                  Welcome to Q-Chem
     A Quantum Leap Into The Future Of Chemistry


 Q-Chem 6.0 (devel), Q-Chem, Inc., Pleasanton, CA (2022)

 E. Epifanovsky,  A. T. B. Gilbert,  Xintian Feng,  Joonho Lee,  Yuezhi Mao,  
 N. Mardirossian,  P. Pokhilko,  A. White,  M. Wormit,  M. P. Coons,  
 A. L. Dempwolff,  Zhengting Gan,  D. Hait,  P. R. Horn,  L. D. Jacobson,  
 I. Kaliman,  J. Kussmann,  A. W. Lange,  Ka Un Lao,  D. S. Levine,  Jie Liu,  
 S. C. McKenzie,  A. F. Morrison,  K. Nanda,  F. Plasser,  D. R. Rehn,  
 M. L. Vidal,  Zhi-Qiang You,  Ying Zhu,  B. Alam,  B. Albrecht,  
 A. Aldossary,  E. Alguire,  J. H. Andersen,  V. Athavale,  D. Barton,  
 K. Begam,  A. Behn,  N. Bellonzi,  Y. A. Bernard,  E. J. Berquist,  
 H. Burton,  A. Carreras,  K. Carter-Fenk,  Romit Chakraborty,  
 Chandrima Chakravarty,  Junhan Chen,  A. D. Chien,  K. D. Closser,  
 V. Cofer-Shabica,  L. Cunha,  S. Dasgupta,  Jia Deng,  M. de Wergifosse,  
 M. Diedenhofen,  Hainam Do,  S. Ehlert,  Po-Tung Fang,  S. Fatehi,  
 Qingguo Feng,  T. Friedhoff,  B. Ganoe,  J. Gayvert,  Qinghui Ge,  
 G. Gidofalvi,  M. Goldey,  J. Gomes,  C. Gonzalez-Espinoza,  S. Gulania,  
 A. Gunina,  J. A. Gyamfi,  M. W. D. Hanson-Heine,  P. H. P. Harbach,  
 A. W. Hauser,  M. F. Herbst,  M. Hernandez Vera,  M. Hodecker,  
 Z. C. Holden,  S. Houck,  Xunkun Huang,  Kerwin Hui,  B. C. Huynh,  
 K. Ikeda,  M. Ivanov,  Hyunjun Ji,  Zuxin Jin,  Hanjie Jiang,  B. Kaduk,  
 S. Kaehler,  R. Kang,  K. Khistyaev,  Jaehoon Kim,  Yongbin Kim,  
 P. Klunzinger,  Z. Koczor-Benda,  Joong Hoon Koh,  D. Kosenkov,  
 Saikiran Kotaru,  L. Koulias,  T. Kowalczyk,  C. M. Krauter,  K. Kue,  
 A. Kunitsa,  T. Kus,  A. Landau,  K. V. Lawler,  D. Lefrancois,  S. Lehtola,  
 Rain Li,  Shaozhi Li,  Yi-Pei Li,  Jiashu Liang,  M. Liebenthal,  
 Hung-Hsuan Lin,  You-Sheng Lin,  Fenglai Liu,  Kuan-Yu Liu,  
 M. Loipersberger,  A. Luenser,  C. Malbon,  A. Manjanath,  P. Manohar,  
 E. Mansoor,  S. F. Manzer,  Shan-Ping Mao,  A. V. Marenich,  T. Markovich,  
 S. Mason,  F. Matz,  S. A. Maurer,  P. F. McLaughlin,  M. F. S. J. Menger,  
 J.-M. Mewes,  S. A. Mewes,  P. Morgante,  Mohammad Mostafanejad,  
 J. W. Mullinax,  K. J. Oosterbaan,  G. Paran,  V. Parravicini,  
 Alexander C. Paul,  Suranjan K. Paul,  F. Pavosevic,  Zheng Pei,  S. Prager,  
 E. I. Proynov,  E. Ramos,  B. Rana,  A. E. Rask,  A. Rettig,  R. M. Richard,  
 F. Rob,  E. Rossomme,  T. Scheele,  M. Scheurer,  M. Schneider,  
 P. E. Schneider,  N. Sergueev,  S. M. Sharada,  Hengyuan Shen,  
 W. Skomorowski,  D. W. Small,  C. J. Stein,  Yingli Su,  Yu-Chuan Su,  
 E. J. Sundstrom,  Zhen Tao,  J. Thirman,  Hung-Yi Tsai,  T. Tsuchimochi,  
 N. M. Tubman,  C. Utku,  S. P. Veccham,  O. Vydrov,  J. Wenzel,  
 Jonathan Wong,  J. Witte,  A. Yamada,  Chou-Hsun Yang,  Kun Yao,  
 S. Yeganeh,  S. R. Yost,  A. Zech,  F. Zeller,  Igor Ying Zhang,  
 Xing Zhang,  Yu Zhang,  D. Zuev,  A. Aspuru-Guzik,  A. T. Bell,  
 N. A. Besley,  K. B. Bravaya,  B. R. Brooks,  D. Casanova,  Jeng-Da Chai,  
 Hsing-Ta Chen,  S. Coriani,  C. J. Cramer,  A. E. DePrince, III,  
 R. A. DiStasio Jr.,  A. Dreuw,  B. D. Dunietz,  T. R. Furlani,  
 W. A. Goddard III,  S. Grimme,  S. Hammes-Schiffer,  T. Head-Gordon,  
 W. J. Hehre,  Chao-Ping Hsu,  T.-C. Jagau,  Yousung Jung,  A. Klamt,  
 Jing Kong,  D. S. Lambrecht,  Xiangyuan Li,  WanZhen Liang,  N. J. Mayhall,  
 C. W. McCurdy,  J. B. Neaton,  T. Neudecker,  C. Ochsenfeld,  
 J. A. Parkhill,  R. Peverati,  V. A. Rassolov,  Haisheng Ren,  Yihan Shao,  
 L. V. Slipchenko,  R. P. Steele,  J. E. Subotnik,  A. J. W. Thom,  
 A. Tkatchenko,  D. G. Truhlar,  T. Van Voorhis,  Fan Wang,  
 T. A. Wesolowski,  K. B. Whaley,  H. L. Woodcock III,  P. M. Zimmerman,  
 S. Faraji,  P. M. W. Gill,  M. Head-Gordon,  J. M. Herbert,  A. I. Krylov

 Contributors to earlier versions of Q-Chem not listed above: 
 R. D. Adamson,  B. Austin,  R. Baer,  J. Baker,  G. J. O. Beran,  
 K. Brandhorst,  S. T. Brown,  E. F. C. Byrd,  Arup K. Chakraborty,  
 G. K. L. Chan,  Chun-Min Chang,  Yunqing Chen,  C.-L. Cheng,  
 Siu Hung Chien,  D. M. Chipman,  D. L. Crittenden,  H. Dachsel,  
 R. J. Doerksen,  A. D. Dutoi,  R. G. Edgar,  J. Fosso-Tande,  
 L. Fusti-Molnar,  D. Ghosh,  A. Ghysels,  A. Golubeva-Zadorozhnaya,  
 J. Gonthier,  M. S. Gordon,  S. R. Gwaltney,  G. Hawkins,  J. E. Herr,  
 A. Heyden,  S. Hirata,  E. G. Hohenstein,  G. Kedziora,  F. J. Keil,  
 C. Kelley,  Jihan Kim,  R. A. King,  R. Z. Khaliullin,  P. P. Korambath,  
 W. Kurlancheek,  A. Laurent,  A. M. Lee,  M. S. Lee,  S. V. Levchenko,  
 Ching Yeh Lin,  D. Liotard,  E. Livshits,  R. C. Lochan,  I. Lotan,  
 L. A. Martinez-Martinez,  P. E. Maslen,  N. Nair,  D. P. O'Neill,  
 D. Neuhauser,  E. Neuscamman,  C. M. Oana,  R. Olivares-Amaya,  R. Olson,  
 T. M. Perrine,  B. Peters,  P. A. Pieniazek,  A. Prociuk,  Y. M. Rhee,  
 J. Ritchie,  M. A. Rohrdanz,  E. Rosta,  N. J. Russ,  H. F. Schaefer III,  
 M. W. Schmidt,  N. E. Schultz,  S. Sharma,  N. Shenvi,  C. D. Sherrill,  
 A. C. Simmonett,  A. Sodt,  T. Stein,  D. Stuck,  K. S. Thanthiriwatte,  
 V. Vanovschi,  L. Vogt,  Tao Wang,  A. Warshel,  M. A. Watson,  
 C. F. Williams,  Q. Wu,  X. Xu,  Jun Yang,  W. Zhang,  Yan Zhao

   Please cite Q-Chem as follows:
  "Software for the frontiers of quantum chemistry:
   An overview of developments in the Q-Chem 5 package"
   J. Chem. Phys. 155, 084801 (2021)
   https://doi.org/10.1063/5.0055522 (open access)

 Q-Chem 6.0.0 for Intel X86 EM64T Linux

 Parts of Q-Chem use Armadillo 9.900.5 (Nocturnal Misbehaviour).
 http://arma.sourceforge.net/

 Q-Chem begins on Thu Jul 21 09:05:34 2022  

 Host: nid00521
0

     Scratch files written to /global/cscratch1/sd/ymao90/r7.00_frame_0053_almo_B3LYP_dp20220721031502//
 Processing $rem in /global/homes/y/ymao90/my_qchem/qchem_embedding_5p4/config/preferences:
 Processing $rem in /global/homes/y/ymao90/.qchemrc:

 Checking the input file for inconsistencies... 	...done.

--------------------------------------------------------------
User input:
--------------------------------------------------------------
$molecule
0 1
--
0 1
C    25.51900   21.40700   25.35100  
C    25.44300   22.28000   26.61500  
C    26.53100   21.95100   27.65000  
C    27.90100   21.73000   26.98700  
C    28.01800   20.89200   25.70400  
C    26.89400   21.18700   24.69800  
H    26.65500   22.81200   28.32000  
H    25.64900   23.34500   26.45700  
H    25.06600   20.42000   25.50600  
H    24.96800   21.95100   24.57500  
H    28.20800   22.74700   26.71200  
H    28.61700   21.34700   27.72500  
H    28.99300   21.17700   25.29100  
H    28.00000   19.82400   25.95300  
H    27.17100   22.06500   24.10200  
H    26.90200   20.34600   23.99300  
H    26.24900   21.10000   28.28100  
N    24.12000   22.07200   27.20000  
H    23.95600   21.42100   27.95900  
C    22.99800   22.75200   26.77600  
H    22.10500   22.52800   27.38600  
O    23.13500   23.56800   25.88100  
--
0 1
C    21.84700   27.12300   26.28600  
H    22.58000   26.41200   26.67500  
H    21.45100   26.55600   25.44000  
H    22.33400   28.07000   26.03900  
S    20.72700   27.44200   27.66800  
C    19.54500   28.43300   26.72500  
H    20.09000   29.31500   26.38100  
H    19.35300   27.82600   25.83700  
H    18.64500   28.69800   27.28600  
O    21.45900   28.42200   28.53200  
C    21.98500   28.62400   21.37900  
H    21.53400   28.37400   20.41500  
H    22.77400   29.36500   21.22600  
H    22.41700   27.77900   21.92000  
S    20.63500   29.27400   22.38900  
C    21.61800   30.16600   23.61500  
H    20.76600   30.42300   24.25000  
H    22.16900   29.40600   24.17400  
H    22.18300   31.02400   23.24200  
O    20.19300   28.08200   23.18000  
C    25.46500   17.57600   21.55400  
H    25.10600   16.93400   22.36300  
H    26.18700   18.25500   22.01500  
H    24.63600   17.96600   20.95900  
S    26.32700   16.42300   20.46200  
C    26.13900   17.30300   18.89500  
H    26.34500   16.68900   18.01500  
H    25.10200   17.61000   18.73500  
H    26.76400   18.18900   19.03100  
O    25.27100   15.36400   20.39400  
C    28.70500   18.73400   31.99500  
H    29.31900   18.99400   32.86100  
H    27.65600   18.87400   32.26900  
H    28.95700   17.72500   31.65800  
S    29.03700   19.87200   30.63100  
C    28.47200   21.39200   31.42900  
H    27.61200   21.05000   32.01000  
H    29.26900   21.85400   32.01700  
H    28.13700   21.97100   30.56400  
O    27.97600   19.46700   29.65600  
C    30.40900   24.27500   29.10800  
H    30.56400   24.45000   30.17500  
H    30.75600   25.13200   28.52400  
H    29.38100   23.99000   28.87000  
S    31.42800   22.84800   28.67000  
C    32.89500   23.83000   29.05600  
H    33.64300   23.31300   28.45000  
H    32.65700   24.86900   28.81300  
H    33.06200   23.77300   30.13500  
O    31.38200   22.68400   27.18200  
C    31.10900   18.66000   27.55100  
H    31.76300   19.45400   27.18000  
H    30.58800   18.32700   26.65000  
H    30.50300   18.99100   28.39900  
S    32.11300   17.22500   27.99500  
C    33.25900   17.11400   26.60300  
H    32.68300   16.73800   25.75300  
H    33.70200   18.07700   26.33300  
H    34.17500   16.53800   26.75800  
O    31.21200   16.04300   27.81200  
C    24.52500   18.78000   30.21600  
H    23.60900   18.40300   30.67800  
H    24.42500   18.90700   29.13500  
H    25.40100   18.16500   30.43800  
S    24.80900   20.48300   30.74900  
C    24.85900   20.13000   32.52000  
H    24.91100   21.09500   33.03100  
H    24.09000   19.43300   32.86400  
H    25.78800   19.57100   32.65600  
O    23.60300   21.31200   30.43200  
C    25.49500   26.57100   26.90900  
H    26.45300   26.91200   26.50800  
H    25.04700   25.83600   26.23600  
H    24.96800   27.51800   27.05400  
S    25.70700   25.80200   28.53100  
C    23.94400   25.93800   28.90400  
H    23.44300   25.30200   28.17100  
H    23.82800   25.50200   29.90000  
H    23.59400   26.95800   28.72900  
O    26.32800   26.94500   29.27200  
C    22.59700   22.86700   18.84100  
H    21.60900   22.52000   18.52500  
H    22.79200   23.91100   19.09700  
H    23.28800   22.48400   18.08600  
S    22.99300   21.95500   20.35000  
C    24.69400   22.48400   20.04600  
H    25.09700   22.05100   19.12700  
H    24.77600   23.57000   19.95900  
H    25.25700   22.19000   20.93600  
O    22.95500   20.47600   20.12000  
C    34.49700   21.33400   25.97400  
H    35.13900   21.79800   25.22000  
H    34.02200   20.42100   25.60500  
H    33.70100   22.00100   26.31400  
S    35.59600   21.04100   27.37800  
C    34.31000   20.30100   28.40900  
H    34.47200   19.23000   28.25900  
H    34.62100   20.58400   29.41800  
H    33.29900   20.68600   28.25900  
O    35.84500   22.40800   27.93700  
C    24.69200   24.97400   23.16700  
H    24.28900   25.47400   24.05100  
H    24.04000   25.01200   22.29000  
H    24.98500   23.93900   23.36000  
S    26.23900   25.85200   22.85300  
C    25.52100   27.44700   22.39800  
H    24.91400   27.86900   23.20200  
H    26.28100   28.18400   22.12600  
H    24.88400   27.21600   21.54000  
O    26.53900   25.35100   21.47400  
C    31.08000   25.75300   25.20200  
H    31.10200   26.65800   24.59000  
H    31.51200   26.02900   26.16700  
H    31.71600   24.98500   24.75400  
S    29.40000   25.11500   25.39300  
C    29.48900   24.34100   23.76300  
H    29.65800   25.14600   23.04300  
H    30.21200   23.52300   23.71000  
H    28.48900   23.91100   23.65900  
O    28.33800   26.15400   25.20400  
C    17.97300   20.22600   23.90100  
H    17.84300   20.95000   23.09200  
H    18.30800   20.67200   24.84000  
H    18.75600   19.55200   23.54400  
S    16.44300   19.30000   24.15800  
C    16.96500   18.59400   25.73700  
H    16.86100   19.40600   26.46200  
H    16.37100   17.68600   25.87200  
H    18.01600   18.34300   25.57500  
O    16.83200   18.16100   23.26700  
C    26.81000   17.44800   27.52000  
H    26.33800   18.28200   28.04600  
H    27.60500   17.78900   26.85400  
H    26.06900   16.93300   26.90300  
S    27.39900   16.40000   28.86900  
C    28.07600   15.24000   27.66000  
H    28.68700   15.72800   26.89600  
H    28.75000   14.52200   28.13400  
H    27.25600   14.74300   27.13600  
O    26.18200   15.83100   29.53100  
C    34.04100   22.55900   32.27300  
H    33.83200   21.67700   31.66300  
H    34.39100   23.38200   31.64500  
H    34.80600   22.48900   33.05100  
S    32.45300   23.08200   32.95900  
C    32.14300   21.53500   33.84100  
H    31.07800   21.63200   34.07000  
H    32.36100   20.74400   33.11900  
H    32.73800   21.56300   34.75800  
O    31.51300   22.93400   31.80300  
C    31.03200   20.55400   23.06500  
H    30.13300   19.96000   23.24900  
H    31.22300   21.05900   24.01500  
H    30.92000   21.29500   22.27000  
S    32.47900   19.49900   22.81800  
C    31.54800   18.51100   21.62500  
H    32.16000   17.97800   20.89200  
H    30.91100   17.78300   22.13300  
H    30.76000   19.07900   21.12400  
O    32.60000   18.75800   24.11200  
C    28.43900   23.30300   19.89600  
H    27.81200   23.66600   19.07800  
H    27.84800   23.00800   20.76700  
H    29.10700   24.11900   20.18400  
S    29.34000   21.85600   19.29500  
C    28.32000   20.61900   20.12800  
H    28.32200   20.75800   21.21200  
H    27.36100   20.76000   19.62200  
H    28.64600   19.59700   19.91800  
O    30.68300   21.74600   19.94800  
C    20.63600   23.86100   30.36300  
H    20.76800   24.37000   29.40500  
H    21.61300   23.46300   30.65200  
H    19.87800   23.08900   30.21200  
S    20.31900   25.00600   31.72500  
C    18.79900   25.65200   30.99200  
H    18.34700   26.08500   31.88800  
H    19.16700   26.46900   30.36600  
H    18.17100   24.91400   30.48600  
O    21.16300   26.24200   31.67100  
C    27.16600   16.11500   24.25900  
H    26.93300   16.93500   24.94300  
H    26.33200   15.97700   23.56600  
H    27.28200   15.23500   24.89600  
S    28.64600   16.57100   23.32800  
C    29.89900   16.62400   24.63000  
H    29.55300   17.29900   25.41700  
H    30.11100   15.62500   25.01900  
H    30.80700   16.94400   24.11300  
O    28.35800   17.96200   22.85600  
C    19.37900   21.40000   28.34200  
H    18.83700   21.21100   29.27300  
H    20.25800   22.02700   28.51400  
H    18.71300   21.86500   27.61100  
S    19.89300   19.81100   27.65400  
C    20.91800   19.41100   29.08700  
H    21.92200   19.83300   29.17500  
H    20.31600   19.70200   29.95200  
H    20.92500   18.31800   29.04600  
O    20.95400   20.26900   26.70200  
C    16.65900   26.39000   27.39400  
H    16.65700   25.92900   28.38500  
H    17.22100   27.32400   27.47300  
H    15.63000   26.56800   27.07000  
S    17.54300   25.14300   26.43100  
C    16.21800   23.96400   26.77500  
H    15.90900   24.07300   27.81800  
H    15.37500   24.15100   26.10600  
H    16.61900   22.97300   26.54600  
O    18.67900   24.64500   27.27000  
C    21.20700   21.55700   23.67500  
H    21.28700   20.69600   23.00700  
H    22.16000   21.84200   24.12700  
H    20.52700   21.35600   24.50700  
S    20.63000   23.05700   22.84900  
C    20.30300   24.10400   24.28500  
H    19.37600   23.77400   24.76000  
H    21.11200   23.95200   25.00500  
H    20.37200   25.13400   23.92800  
O    19.25800   22.69000   22.37600  
C    35.22500   23.18100   21.96200  
H    36.14500   23.23900   22.54800  
H    35.20800   22.17400   21.53700  
H    35.20300   23.94400   21.17900  
S    33.69600   23.55700   22.84800  
C    32.54600   23.67800   21.45900  
H    31.53400   23.84600   21.83500  
H    32.80100   24.55200   20.85500  
H    32.68700   22.76500   20.87400  
O    33.85200   24.97700   23.29800  
C    25.10600   25.58100   32.95500  
H    25.30800   25.62100   34.02900  
H    25.91100   25.99700   32.34400  
H    24.17100   26.08500   32.70000  
S    25.00400   23.86600   32.39400  
C    23.63400   23.55200   33.53000  
H    23.56100   22.46200   33.51700  
H    23.93800   23.99600   34.48100  
H    22.70600   23.91500   33.08000  
O    26.21300   23.31200   33.08100  
C    23.10100   17.80700   26.65000  
H    22.11700   18.09300   27.02900  
H    23.54500   17.04600   27.29800  
H    23.69800   18.71700   26.75200  
S    22.96000   17.33500   24.91200  
C    21.63400   16.11200   25.00800  
H    20.84100   16.42900   25.69000  
H    21.20300   15.91700   24.02200  
H    22.08700   15.20200   25.40900  
O    24.20700   16.53800   24.68300  
C    31.74500   27.47000   28.96000  
H    32.67500   27.92600   29.30700  
H    31.22400   26.84700   29.69100  
H    31.95100   27.04000   27.97600  
S    30.67300   28.91600   28.81100  
C    29.20400   27.96000   28.37100  
H    28.81500   27.22800   29.08200  
H    28.45100   28.72300   28.15600  
H    29.41700   27.38700   27.46400  
O    31.08600   29.55900   27.52400  
$end

$rem
JOBTYPE  SP
METHOD  B3LYP
BASIS  6-31+G(D)
SYMMETRY  FALSE
SYM_IGNORE  TRUE
MEM_TOTAL  12000
MEM_STATIC  4000
BASIS_LIN_DEP_THRESH  6
THRESH  14
SCF_CONVERGENCE  8
FD_MAT_VEC_PROD  FALSE
XC_GRID  000075000302
NL_GRID  1
MAX_SCF_CYCLES  200
FRGM_METHOD  STOLL
SCFMI_MODE  1
ALMO_EFIELD  TRUE
$end

$rem_frgm
SCF_CONVERGENCE  4
$end


--------------------------------------------------------------
 ----------------------------------------------------------------
             Standard Nuclear Orientation (Angstroms)
    I     Atom           X                Y                Z
 ----------------------------------------------------------------
    1      C      25.5190000000    21.4070000000    25.3510000000
    2      C      25.4430000000    22.2800000000    26.6150000000
    3      C      26.5310000000    21.9510000000    27.6500000000
    4      C      27.9010000000    21.7300000000    26.9870000000
    5      C      28.0180000000    20.8920000000    25.7040000000
    6      C      26.8940000000    21.1870000000    24.6980000000
    7      H      26.6550000000    22.8120000000    28.3200000000
    8      H      25.6490000000    23.3450000000    26.4570000000
    9      H      25.0660000000    20.4200000000    25.5060000000
   10      H      24.9680000000    21.9510000000    24.5750000000
   11      H      28.2080000000    22.7470000000    26.7120000000
   12      H      28.6170000000    21.3470000000    27.7250000000
   13      H      28.9930000000    21.1770000000    25.2910000000
   14      H      28.0000000000    19.8240000000    25.9530000000
   15      H      27.1710000000    22.0650000000    24.1020000000
   16      H      26.9020000000    20.3460000000    23.9930000000
   17      H      26.2490000000    21.1000000000    28.2810000000
   18      N      24.1200000000    22.0720000000    27.2000000000
   19      H      23.9560000000    21.4210000000    27.9590000000
   20      C      22.9980000000    22.7520000000    26.7760000000
   21      H      22.1050000000    22.5280000000    27.3860000000
   22      O      23.1350000000    23.5680000000    25.8810000000
   23      C      21.8470000000    27.1230000000    26.2860000000
   24      H      22.5800000000    26.4120000000    26.6750000000
   25      H      21.4510000000    26.5560000000    25.4400000000
   26      H      22.3340000000    28.0700000000    26.0390000000
   27      S      20.7270000000    27.4420000000    27.6680000000
   28      C      19.5450000000    28.4330000000    26.7250000000
   29      H      20.0900000000    29.3150000000    26.3810000000
   30      H      19.3530000000    27.8260000000    25.8370000000
   31      H      18.6450000000    28.6980000000    27.2860000000
   32      O      21.4590000000    28.4220000000    28.5320000000
   33      C      21.9850000000    28.6240000000    21.3790000000
   34      H      21.5340000000    28.3740000000    20.4150000000
   35      H      22.7740000000    29.3650000000    21.2260000000
   36      H      22.4170000000    27.7790000000    21.9200000000
   37      S      20.6350000000    29.2740000000    22.3890000000
   38      C      21.6180000000    30.1660000000    23.6150000000
   39      H      20.7660000000    30.4230000000    24.2500000000
   40      H      22.1690000000    29.4060000000    24.1740000000
   41      H      22.1830000000    31.0240000000    23.2420000000
   42      O      20.1930000000    28.0820000000    23.1800000000
   43      C      25.4650000000    17.5760000000    21.5540000000
   44      H      25.1060000000    16.9340000000    22.3630000000
   45      H      26.1870000000    18.2550000000    22.0150000000
   46      H      24.6360000000    17.9660000000    20.9590000000
   47      S      26.3270000000    16.4230000000    20.4620000000
   48      C      26.1390000000    17.3030000000    18.8950000000
   49      H      26.3450000000    16.6890000000    18.0150000000
   50      H      25.1020000000    17.6100000000    18.7350000000
   51      H      26.7640000000    18.1890000000    19.0310000000
   52      O      25.2710000000    15.3640000000    20.3940000000
   53      C      28.7050000000    18.7340000000    31.9950000000
   54      H      29.3190000000    18.9940000000    32.8610000000
   55      H      27.6560000000    18.8740000000    32.2690000000
   56      H      28.9570000000    17.7250000000    31.6580000000
   57      S      29.0370000000    19.8720000000    30.6310000000
   58      C      28.4720000000    21.3920000000    31.4290000000
   59      H      27.6120000000    21.0500000000    32.0100000000
   60      H      29.2690000000    21.8540000000    32.0170000000
   61      H      28.1370000000    21.9710000000    30.5640000000
   62      O      27.9760000000    19.4670000000    29.6560000000
   63      C      30.4090000000    24.2750000000    29.1080000000
   64      H      30.5640000000    24.4500000000    30.1750000000
   65      H      30.7560000000    25.1320000000    28.5240000000
   66      H      29.3810000000    23.9900000000    28.8700000000
   67      S      31.4280000000    22.8480000000    28.6700000000
   68      C      32.8950000000    23.8300000000    29.0560000000
   69      H      33.6430000000    23.3130000000    28.4500000000
   70      H      32.6570000000    24.8690000000    28.8130000000
   71      H      33.0620000000    23.7730000000    30.1350000000
   72      O      31.3820000000    22.6840000000    27.1820000000
   73      C      31.1090000000    18.6600000000    27.5510000000
   74      H      31.7630000000    19.4540000000    27.1800000000
   75      H      30.5880000000    18.3270000000    26.6500000000
   76      H      30.5030000000    18.9910000000    28.3990000000
   77      S      32.1130000000    17.2250000000    27.9950000000
   78      C      33.2590000000    17.1140000000    26.6030000000
   79      H      32.6830000000    16.7380000000    25.7530000000
   80      H      33.7020000000    18.0770000000    26.3330000000
   81      H      34.1750000000    16.5380000000    26.7580000000
   82      O      31.2120000000    16.0430000000    27.8120000000
   83      C      24.5250000000    18.7800000000    30.2160000000
   84      H      23.6090000000    18.4030000000    30.6780000000
   85      H      24.4250000000    18.9070000000    29.1350000000
   86      H      25.4010000000    18.1650000000    30.4380000000
   87      S      24.8090000000    20.4830000000    30.7490000000
   88      C      24.8590000000    20.1300000000    32.5200000000
   89      H      24.9110000000    21.0950000000    33.0310000000
   90      H      24.0900000000    19.4330000000    32.8640000000
   91      H      25.7880000000    19.5710000000    32.6560000000
   92      O      23.6030000000    21.3120000000    30.4320000000
   93      C      25.4950000000    26.5710000000    26.9090000000
   94      H      26.4530000000    26.9120000000    26.5080000000
   95      H      25.0470000000    25.8360000000    26.2360000000
   96      H      24.9680000000    27.5180000000    27.0540000000
   97      S      25.7070000000    25.8020000000    28.5310000000
   98      C      23.9440000000    25.9380000000    28.9040000000
   99      H      23.4430000000    25.3020000000    28.1710000000
  100      H      23.8280000000    25.5020000000    29.9000000000
  101      H      23.5940000000    26.9580000000    28.7290000000
  102      O      26.3280000000    26.9450000000    29.2720000000
  103      C      22.5970000000    22.8670000000    18.8410000000
  104      H      21.6090000000    22.5200000000    18.5250000000
  105      H      22.7920000000    23.9110000000    19.0970000000
  106      H      23.2880000000    22.4840000000    18.0860000000
  107      S      22.9930000000    21.9550000000    20.3500000000
  108      C      24.6940000000    22.4840000000    20.0460000000
  109      H      25.0970000000    22.0510000000    19.1270000000
  110      H      24.7760000000    23.5700000000    19.9590000000
  111      H      25.2570000000    22.1900000000    20.9360000000
  112      O      22.9550000000    20.4760000000    20.1200000000
  113      C      34.4970000000    21.3340000000    25.9740000000
  114      H      35.1390000000    21.7980000000    25.2200000000
  115      H      34.0220000000    20.4210000000    25.6050000000
  116      H      33.7010000000    22.0010000000    26.3140000000
  117      S      35.5960000000    21.0410000000    27.3780000000
  118      C      34.3100000000    20.3010000000    28.4090000000
  119      H      34.4720000000    19.2300000000    28.2590000000
  120      H      34.6210000000    20.5840000000    29.4180000000
  121      H      33.2990000000    20.6860000000    28.2590000000
  122      O      35.8450000000    22.4080000000    27.9370000000
  123      C      24.6920000000    24.9740000000    23.1670000000
  124      H      24.2890000000    25.4740000000    24.0510000000
  125      H      24.0400000000    25.0120000000    22.2900000000
  126      H      24.9850000000    23.9390000000    23.3600000000
  127      S      26.2390000000    25.8520000000    22.8530000000
  128      C      25.5210000000    27.4470000000    22.3980000000
  129      H      24.9140000000    27.8690000000    23.2020000000
  130      H      26.2810000000    28.1840000000    22.1260000000
  131      H      24.8840000000    27.2160000000    21.5400000000
  132      O      26.5390000000    25.3510000000    21.4740000000
  133      C      31.0800000000    25.7530000000    25.2020000000
  134      H      31.1020000000    26.6580000000    24.5900000000
  135      H      31.5120000000    26.0290000000    26.1670000000
  136      H      31.7160000000    24.9850000000    24.7540000000
  137      S      29.4000000000    25.1150000000    25.3930000000
  138      C      29.4890000000    24.3410000000    23.7630000000
  139      H      29.6580000000    25.1460000000    23.0430000000
  140      H      30.2120000000    23.5230000000    23.7100000000
  141      H      28.4890000000    23.9110000000    23.6590000000
  142      O      28.3380000000    26.1540000000    25.2040000000
  143      C      17.9730000000    20.2260000000    23.9010000000
  144      H      17.8430000000    20.9500000000    23.0920000000
  145      H      18.3080000000    20.6720000000    24.8400000000
  146      H      18.7560000000    19.5520000000    23.5440000000
  147      S      16.4430000000    19.3000000000    24.1580000000
  148      C      16.9650000000    18.5940000000    25.7370000000
  149      H      16.8610000000    19.4060000000    26.4620000000
  150      H      16.3710000000    17.6860000000    25.8720000000
  151      H      18.0160000000    18.3430000000    25.5750000000
  152      O      16.8320000000    18.1610000000    23.2670000000
  153      C      26.8100000000    17.4480000000    27.5200000000
  154      H      26.3380000000    18.2820000000    28.0460000000
  155      H      27.6050000000    17.7890000000    26.8540000000
  156      H      26.0690000000    16.9330000000    26.9030000000
  157      S      27.3990000000    16.4000000000    28.8690000000
  158      C      28.0760000000    15.2400000000    27.6600000000
  159      H      28.6870000000    15.7280000000    26.8960000000
  160      H      28.7500000000    14.5220000000    28.1340000000
  161      H      27.2560000000    14.7430000000    27.1360000000
  162      O      26.1820000000    15.8310000000    29.5310000000
  163      C      34.0410000000    22.5590000000    32.2730000000
  164      H      33.8320000000    21.6770000000    31.6630000000
  165      H      34.3910000000    23.3820000000    31.6450000000
  166      H      34.8060000000    22.4890000000    33.0510000000
  167      S      32.4530000000    23.0820000000    32.9590000000
  168      C      32.1430000000    21.5350000000    33.8410000000
  169      H      31.0780000000    21.6320000000    34.0700000000
  170      H      32.3610000000    20.7440000000    33.1190000000
  171      H      32.7380000000    21.5630000000    34.7580000000
  172      O      31.5130000000    22.9340000000    31.8030000000
  173      C      31.0320000000    20.5540000000    23.0650000000
  174      H      30.1330000000    19.9600000000    23.2490000000
  175      H      31.2230000000    21.0590000000    24.0150000000
  176      H      30.9200000000    21.2950000000    22.2700000000
  177      S      32.4790000000    19.4990000000    22.8180000000
  178      C      31.5480000000    18.5110000000    21.6250000000
  179      H      32.1600000000    17.9780000000    20.8920000000
  180      H      30.9110000000    17.7830000000    22.1330000000
  181      H      30.7600000000    19.0790000000    21.1240000000
  182      O      32.6000000000    18.7580000000    24.1120000000
  183      C      28.4390000000    23.3030000000    19.8960000000
  184      H      27.8120000000    23.6660000000    19.0780000000
  185      H      27.8480000000    23.0080000000    20.7670000000
  186      H      29.1070000000    24.1190000000    20.1840000000
  187      S      29.3400000000    21.8560000000    19.2950000000
  188      C      28.3200000000    20.6190000000    20.1280000000
  189      H      28.3220000000    20.7580000000    21.2120000000
  190      H      27.3610000000    20.7600000000    19.6220000000
  191      H      28.6460000000    19.5970000000    19.9180000000
  192      O      30.6830000000    21.7460000000    19.9480000000
  193      C      20.6360000000    23.8610000000    30.3630000000
  194      H      20.7680000000    24.3700000000    29.4050000000
  195      H      21.6130000000    23.4630000000    30.6520000000
  196      H      19.8780000000    23.0890000000    30.2120000000
  197      S      20.3190000000    25.0060000000    31.7250000000
  198      C      18.7990000000    25.6520000000    30.9920000000
  199      H      18.3470000000    26.0850000000    31.8880000000
  200      H      19.1670000000    26.4690000000    30.3660000000
  201      H      18.1710000000    24.9140000000    30.4860000000
  202      O      21.1630000000    26.2420000000    31.6710000000
  203      C      27.1660000000    16.1150000000    24.2590000000
  204      H      26.9330000000    16.9350000000    24.9430000000
  205      H      26.3320000000    15.9770000000    23.5660000000
  206      H      27.2820000000    15.2350000000    24.8960000000
  207      S      28.6460000000    16.5710000000    23.3280000000
  208      C      29.8990000000    16.6240000000    24.6300000000
  209      H      29.5530000000    17.2990000000    25.4170000000
  210      H      30.1110000000    15.6250000000    25.0190000000
  211      H      30.8070000000    16.9440000000    24.1130000000
  212      O      28.3580000000    17.9620000000    22.8560000000
  213      C      19.3790000000    21.4000000000    28.3420000000
  214      H      18.8370000000    21.2110000000    29.2730000000
  215      H      20.2580000000    22.0270000000    28.5140000000
  216      H      18.7130000000    21.8650000000    27.6110000000
  217      S      19.8930000000    19.8110000000    27.6540000000
  218      C      20.9180000000    19.4110000000    29.0870000000
  219      H      21.9220000000    19.8330000000    29.1750000000
  220      H      20.3160000000    19.7020000000    29.9520000000
  221      H      20.9250000000    18.3180000000    29.0460000000
  222      O      20.9540000000    20.2690000000    26.7020000000
  223      C      16.6590000000    26.3900000000    27.3940000000
  224      H      16.6570000000    25.9290000000    28.3850000000
  225      H      17.2210000000    27.3240000000    27.4730000000
  226      H      15.6300000000    26.5680000000    27.0700000000
  227      S      17.5430000000    25.1430000000    26.4310000000
  228      C      16.2180000000    23.9640000000    26.7750000000
  229      H      15.9090000000    24.0730000000    27.8180000000
  230      H      15.3750000000    24.1510000000    26.1060000000
  231      H      16.6190000000    22.9730000000    26.5460000000
  232      O      18.6790000000    24.6450000000    27.2700000000
  233      C      21.2070000000    21.5570000000    23.6750000000
  234      H      21.2870000000    20.6960000000    23.0070000000
  235      H      22.1600000000    21.8420000000    24.1270000000
  236      H      20.5270000000    21.3560000000    24.5070000000
  237      S      20.6300000000    23.0570000000    22.8490000000
  238      C      20.3030000000    24.1040000000    24.2850000000
  239      H      19.3760000000    23.7740000000    24.7600000000
  240      H      21.1120000000    23.9520000000    25.0050000000
  241      H      20.3720000000    25.1340000000    23.9280000000
  242      O      19.2580000000    22.6900000000    22.3760000000
  243      C      35.2250000000    23.1810000000    21.9620000000
  244      H      36.1450000000    23.2390000000    22.5480000000
  245      H      35.2080000000    22.1740000000    21.5370000000
  246      H      35.2030000000    23.9440000000    21.1790000000
  247      S      33.6960000000    23.5570000000    22.8480000000
  248      C      32.5460000000    23.6780000000    21.4590000000
  249      H      31.5340000000    23.8460000000    21.8350000000
  250      H      32.8010000000    24.5520000000    20.8550000000
  251      H      32.6870000000    22.7650000000    20.8740000000
  252      O      33.8520000000    24.9770000000    23.2980000000
  253      C      25.1060000000    25.5810000000    32.9550000000
  254      H      25.3080000000    25.6210000000    34.0290000000
  255      H      25.9110000000    25.9970000000    32.3440000000
  256      H      24.1710000000    26.0850000000    32.7000000000
  257      S      25.0040000000    23.8660000000    32.3940000000
  258      C      23.6340000000    23.5520000000    33.5300000000
  259      H      23.5610000000    22.4620000000    33.5170000000
  260      H      23.9380000000    23.9960000000    34.4810000000
  261      H      22.7060000000    23.9150000000    33.0800000000
  262      O      26.2130000000    23.3120000000    33.0810000000
  263      C      23.1010000000    17.8070000000    26.6500000000
  264      H      22.1170000000    18.0930000000    27.0290000000
  265      H      23.5450000000    17.0460000000    27.2980000000
  266      H      23.6980000000    18.7170000000    26.7520000000
  267      S      22.9600000000    17.3350000000    24.9120000000
  268      C      21.6340000000    16.1120000000    25.0080000000
  269      H      20.8410000000    16.4290000000    25.6900000000
  270      H      21.2030000000    15.9170000000    24.0220000000
  271      H      22.0870000000    15.2020000000    25.4090000000
  272      O      24.2070000000    16.5380000000    24.6830000000
  273      C      31.7450000000    27.4700000000    28.9600000000
  274      H      32.6750000000    27.9260000000    29.3070000000
  275      H      31.2240000000    26.8470000000    29.6910000000
  276      H      31.9510000000    27.0400000000    27.9760000000
  277      S      30.6730000000    28.9160000000    28.8110000000
  278      C      29.2040000000    27.9600000000    28.3710000000
  279      H      28.8150000000    27.2280000000    29.0820000000
  280      H      28.4510000000    28.7230000000    28.1560000000
  281      H      29.4170000000    27.3870000000    27.4640000000
  282      O      31.0860000000    29.5590000000    27.5240000000
 ----------------------------------------------------------------
 Nuclear Repulsion Energy =       45317.14395326 hartrees
 There are      581 alpha and      581 beta electrons
 Requested basis set is 6-31+G(d)
 There are 929 shells and 2589 basis functions

 Total QAlloc Memory Limit  12000 MB
 Mega-Array Size      3911 MB
 MEM_STATIC part      4000 MB

 A cutoff of  1.0D-14 yielded 168460 shell pairs
 There are   1452865 function pairs
 Smallest overlap matrix eigenvalue = 5.20E-07
 Linear dependence detected in AO basis
 Tighter screening thresholds may be required for diffuse basis sets
 Use S2THRESH > 14 and THRESH = 14 in case of SCF convergence issues
 Number of orthogonalized atomic orbitals = 2587
 Maximum deviation from orthogonality = 1.228E-10

 Scale SEOQF with 1.000000e-03/1.000000e-03/1.000000e-03

 Standard Electronic Orientation quadrupole field applied
 Nucleus-field energy     =    -0.0000001596 hartrees
 Attempting to make child job directory: /global/cscratch1/sd/ymao90/r7.00_frame_0053_almo_B3LYP_dp20220721031502//Frg1/
 Attempting to make child job directory: /global/cscratch1/sd/ymao90/r7.00_frame_0053_almo_B3LYP_dp20220721031502//Frg2/
 Creating input file /global/cscratch1/sd/ymao90/r7.00_frame_0053_almo_B3LYP_dp20220721031502/Frg1.input
 using default PutDataFrgm: nothing
 calling putenv with: QCSCRATCH=/global/cscratch1/sd/ymao90/r7.00_frame_0053_almo_B3LYP_dp20220721031502/ 
 Spawning Job For Fragment 0
 Done Job For Fragment 0
 calling putenv with: QCSCRATCH=/global/cscratch1/sd/ymao90 
 calling putenv with: QCTHREADS=16 
 Creating input file /global/cscratch1/sd/ymao90/r7.00_frame_0053_almo_B3LYP_dp20220721031502/Frg2.input
 using default PutDataFrgm: nothing
 calling putenv with: QCSCRATCH=/global/cscratch1/sd/ymao90/r7.00_frame_0053_almo_B3LYP_dp20220721031502/ 
 Spawning Job For Fragment 1
 Done Job For Fragment 1
 calling putenv with: QCSCRATCH=/global/cscratch1/sd/ymao90 
 calling putenv with: QCTHREADS=16 
 Time for running child jobs:  CPU 0.43 s  wall 11614.05 s

 -----------------------------------------------------------------------
  General SCF calculation program by
  Eric Jon Sundstrom, Paul Horn, Yuezhi Mao, Dmitri Zuev, Alec White,
  David Stuck, Shaama M.S., Shane Yost, Joonho Lee, David Small,
  Daniel Levine, Susi Lehtola, Hugh Burton, Evgeny Epifanovsky,
  Bang C. Huynh
 -----------------------------------------------------------------------
Performing Restricted Closed Shell SCFMI
Doing General SCFMI
 Exchange:     0.2000 Hartree-Fock + 0.0800 Slater + 0.7200 B88
 Correlation:  0.1900 VWN1RPA + 0.8100 LYP
 Using Euler-Maclaurin-Lebedev (75,302) quadrature formula
performing fock build before subrot guess so that all methods have access
 using 16 threads for integral computing
 -------------------------------------------------------
 OpenMP Integral computing Module                
 Release: version 1.0, May 2013, Q-Chem Inc. Pittsburgh 
 -------------------------------------------------------
Printing subrot_rss_gen Method Specification:
Occupied Subspace Method is 0
Virtual Subspace Method is 0
Energy prior to optimization (guess energy) = -14787.502186920414
Begin Timing: Total SCF Calculation
begin iterations for algorithm: DIIS         
the SCF tolerance is set to 1.00e-08
    1  -14787.5021869204      3.08e-05     00000 
    2  -14787.5081251028      2.17e-05     00000 
    3  -14787.5090390863      1.63e-05     00000 
    4  -14787.5096072365      6.51e-06     00000 
    5  -14787.5097079608      2.59e-06     00000 
    6  -14787.5097266953      1.34e-06     00000 
    7  -14787.5097308692      1.05e-06     00000 
    8  -14787.5097330119      6.03e-07     00000 
    9  -14787.5097337875      2.85e-07     00000 
   10  -14787.5097339511      1.73e-07     00000 
   11  -14787.5097339998      1.33e-07     00000 
   12  -14787.5097340353      7.06e-08     00000 
   13  -14787.5097340462      3.47e-08     00000 
   14  -14787.5097340488      2.10e-08     00000 
   15  -14787.5097340497      1.43e-08     00000 
   16  -14787.5097340501      8.10e-09     00000 Convergence criterion met
write pseudocanon occs and virts to disk
write pseudocanon orbital energies to disk
Timing for Total SCF: 16184.00s (wall), 221624.93s (cpu)
SCFMI Energy  -14787.5097340501
<S^2>            0.00000
 Total energy in the final basis set =   -14787.5097340501
    ==================================================
        The end of Object-Oriented SCFman: SCFMI      
    ==================================================

 --------------------------------------------------------------

                    Orbital Energies (a.u.)
 --------------------------------------------------------------

 Alpha MOs
 -- Occupied --
-89.0276 -89.0263 -89.0255 -89.0177 -89.0082 -89.0027 -89.0027 -89.0024
-89.0021 -89.0009 -88.9994 -88.9978 -88.9967 -88.9963 -88.9951 -88.9936
-88.9928 -88.9917 -88.9911 -88.9888 -88.9888 -88.9884 -88.9859 -88.9790
-88.9786 -88.9703 -19.1471 -19.1427 -19.1399 -19.1375 -19.1342 -19.1337
-19.1255 -19.1252 -19.1227 -19.1221 -19.1216 -19.1182 -19.1167 -19.1166
-19.1151 -19.1144 -19.1139 -19.1124 -19.1122 -19.1101 -19.1090 -19.1054
-19.1000 -19.0951 -19.0928 -19.0921 -19.0771 -14.3683 -10.2984 -10.2469
-10.2450 -10.2431 -10.2430 -10.2397 -10.2381 -10.2370 -10.2359 -10.2338
-10.2319 -10.2289 -10.2288 -10.2249 -10.2242 -10.2218 -10.2214 -10.2204
-10.2197 -10.2193 -10.2189 -10.2186 -10.2183 -10.2182 -10.2171 -10.2159
-10.2157 -10.2157 -10.2149 -10.2142 -10.2123 -10.2118 -10.2112 -10.2093
-10.2089 -10.2088 -10.2078 -10.2074 -10.2050 -10.2047 -10.2023 -10.2022
-10.2020 -10.2020 -10.2008 -10.1980 -10.1977 -10.1968 -10.1966 -10.1960
-10.1955 -10.1929 -10.1880 -10.1845 -10.1831 -10.1826 -10.1787 -10.1774
-10.1743  -8.0741  -8.0723  -8.0722  -8.0646  -8.0545  -8.0492  -8.0489
 -8.0485  -8.0478  -8.0472  -8.0449  -8.0442  -8.0427  -8.0427  -8.0407
 -8.0397  -8.0388  -8.0388  -8.0375  -8.0348  -8.0345  -8.0342  -8.0314
 -8.0252  -8.0250  -8.0168  -6.0383  -6.0371  -6.0365  -6.0365  -6.0352
 -6.0351  -6.0318  -6.0298  -6.0297  -6.0287  -6.0278  -6.0219  -6.0191
 -6.0176  -6.0133  -6.0132  -6.0131  -6.0124  -6.0123  -6.0119  -6.0115
 -6.0115  -6.0114  -6.0107  -6.0103  -6.0093  -6.0084  -6.0083  -6.0070
 -6.0070  -6.0070  -6.0067  -6.0063  -6.0058  -6.0056  -6.0055  -6.0054
 -6.0049  -6.0045  -6.0041  -6.0040  -6.0032  -6.0030  -6.0028  -6.0021
 -6.0020  -6.0020  -6.0019  -6.0018  -6.0007  -6.0004  -6.0002  -5.9992
 -5.9989  -5.9985  -5.9980  -5.9975  -5.9975  -5.9972  -5.9969  -5.9966
 -5.9960  -5.9958  -5.9945  -5.9944  -5.9924  -5.9920  -5.9919  -5.9894
 -5.9893  -5.9888  -5.9883  -5.9882  -5.9827  -5.9824  -5.9811  -5.9798
 -5.9742  -1.0569  -1.0550  -1.0537  -1.0506  -1.0444  -1.0435  -1.0328
 -1.0313  -1.0300  -1.0293  -1.0276  -1.0270  -1.0241  -1.0234  -1.0217
 -1.0216  -1.0210  -1.0193  -1.0183  -1.0169  -1.0154  -1.0145  -1.0119
 -1.0114  -1.0030  -1.0027  -0.9910  -0.9282  -0.8352  -0.8295  -0.8261
 -0.8223  -0.8207  -0.8187  -0.8149  -0.8104  -0.8081  -0.8075  -0.8040
 -0.8030  -0.8029  -0.8017  -0.8012  -0.8001  -0.7971  -0.7969  -0.7961
 -0.7950  -0.7928  -0.7908  -0.7898  -0.7891  -0.7846  -0.7796  -0.7697
 -0.7569  -0.7533  -0.7515  -0.7511  -0.7501  -0.7436  -0.7431  -0.7356
 -0.7345  -0.7329  -0.7319  -0.7303  -0.7288  -0.7265  -0.7260  -0.7255
 -0.7242  -0.7209  -0.7188  -0.7181  -0.7154  -0.7130  -0.7120  -0.7100
 -0.7094  -0.7080  -0.7075  -0.7029  -0.6439  -0.6416  -0.6384  -0.6363
 -0.6299  -0.6221  -0.6208  -0.6191  -0.6171  -0.6152  -0.6149  -0.6138
 -0.6134  -0.6120  -0.6100  -0.6095  -0.6087  -0.6079  -0.6073  -0.6055
 -0.6047  -0.6041  -0.6020  -0.5989  -0.5969  -0.5920  -0.5892  -0.5889
 -0.5828  -0.5590  -0.5284  -0.5177  -0.5149  -0.5028  -0.5001  -0.4996
 -0.4989  -0.4981  -0.4973  -0.4963  -0.4959  -0.4923  -0.4916  -0.4909
 -0.4895  -0.4890  -0.4881  -0.4869  -0.4863  -0.4861  -0.4851  -0.4848
 -0.4842  -0.4818  -0.4808  -0.4805  -0.4795  -0.4789  -0.4787  -0.4772
 -0.4764  -0.4761  -0.4753  -0.4751  -0.4743  -0.4735  -0.4733  -0.4728
 -0.4718  -0.4710  -0.4705  -0.4698  -0.4695  -0.4691  -0.4689  -0.4685
 -0.4679  -0.4677  -0.4661  -0.4657  -0.4649  -0.4644  -0.4643  -0.4640
 -0.4635  -0.4628  -0.4623  -0.4610  -0.4607  -0.4599  -0.4596  -0.4591
 -0.4586  -0.4583  -0.4576  -0.4570  -0.4563  -0.4561  -0.4555  -0.4553
 -0.4546  -0.4541  -0.4533  -0.4522  -0.4520  -0.4519  -0.4492  -0.4485
 -0.4484  -0.4466  -0.4461  -0.4458  -0.4451  -0.4443  -0.4429  -0.4424
 -0.4407  -0.4399  -0.4392  -0.4388  -0.4379  -0.4376  -0.4349  -0.4343
 -0.4330  -0.4322  -0.4319  -0.4314  -0.4308  -0.4300  -0.4294  -0.4292
 -0.4274  -0.4271  -0.4248  -0.4238  -0.4213  -0.4200  -0.4199  -0.4194
 -0.4188  -0.4183  -0.4176  -0.4171  -0.4170  -0.4159  -0.4156  -0.4153
 -0.4150  -0.4145  -0.4136  -0.4131  -0.4126  -0.4115  -0.4112  -0.4099
 -0.4097  -0.4084  -0.4082  -0.4074  -0.4071  -0.4065  -0.4059  -0.4055
 -0.4046  -0.4041  -0.4034  -0.4023  -0.4019  -0.4011  -0.3997  -0.3990
 -0.3981  -0.3980  -0.3952  -0.3947  -0.3944  -0.3921  -0.3916  -0.3911
 -0.3894  -0.3889  -0.3884  -0.3864  -0.3858  -0.3851  -0.3830  -0.3818
 -0.3814  -0.3813  -0.3806  -0.3788  -0.3775  -0.3768  -0.3761  -0.3754
 -0.3737  -0.3734  -0.3707  -0.3699  -0.3692  -0.3686  -0.3684  -0.3667
 -0.3661  -0.3658  -0.3654  -0.3643  -0.3636  -0.3591  -0.3581  -0.3575
 -0.3553  -0.3545  -0.3535  -0.3527  -0.3525  -0.3518  -0.3517  -0.3509
 -0.3438  -0.3422  -0.3409  -0.3337  -0.3189  -0.3094  -0.3071  -0.3038
 -0.3029  -0.3029  -0.2951  -0.2915  -0.2861  -0.2851  -0.2848  -0.2824
 -0.2815  -0.2784  -0.2764  -0.2759  -0.2754  -0.2744  -0.2739  -0.2732
 -0.2730  -0.2727  -0.2724  -0.2717  -0.2715  -0.2715  -0.2675  -0.2665
 -0.2616  -0.2610  -0.2600  -0.2572  -0.2531  -0.2516  -0.2497  -0.2494
 -0.2472  -0.2461  -0.2454  -0.2436  -0.2430  -0.2408  -0.2396  -0.2380
 -0.2376  -0.2367  -0.2353  -0.2324  -0.2321  -0.2311  -0.2308  -0.2293
 -0.2280  -0.2275  -0.2210  -0.2153  -0.2065
 -- Virtual --
 -0.0357  -0.0320  -0.0304  -0.0278  -0.0258  -0.0242  -0.0219  -0.0197
 -0.0176  -0.0148  -0.0140  -0.0130  -0.0120  -0.0101  -0.0093  -0.0078
 -0.0073  -0.0057  -0.0049  -0.0045  -0.0037  -0.0035  -0.0020  -0.0014
 -0.0006   0.0003   0.0005   0.0006   0.0020   0.0032   0.0037   0.0042
  0.0043   0.0062   0.0066   0.0073   0.0079   0.0080   0.0087   0.0101
  0.0109   0.0113   0.0117   0.0121   0.0139   0.0145   0.0151   0.0156
  0.0166   0.0175   0.0183   0.0187   0.0194   0.0202   0.0206   0.0219
  0.0225   0.0232   0.0239   0.0247   0.0251   0.0257   0.0267   0.0274
  0.0281   0.0283   0.0296   0.0299   0.0304   0.0315   0.0319   0.0323
  0.0332   0.0342   0.0344   0.0354   0.0361   0.0368   0.0372   0.0376
  0.0387   0.0390   0.0398   0.0400   0.0409   0.0411   0.0423   0.0430
  0.0432   0.0438   0.0444   0.0447   0.0460   0.0461   0.0465   0.0468
  0.0479   0.0484   0.0498   0.0503   0.0509   0.0513   0.0519   0.0530
  0.0530   0.0537   0.0553   0.0559   0.0564   0.0569   0.0575   0.0584
  0.0587   0.0594   0.0600   0.0603   0.0611   0.0620   0.0625   0.0631
  0.0632   0.0646   0.0648   0.0655   0.0660   0.0664   0.0679   0.0686
  0.0695   0.0702   0.0706   0.0708   0.0711   0.0721   0.0733   0.0745
  0.0747   0.0753   0.0757   0.0760   0.0768   0.0778   0.0778   0.0797
  0.0800   0.0809   0.0817   0.0820   0.0823   0.0832   0.0840   0.0848
  0.0852   0.0856   0.0868   0.0872   0.0878   0.0886   0.0890   0.0893
  0.0897   0.0912   0.0917   0.0931   0.0935   0.0942   0.0950   0.0954
  0.0957   0.0962   0.0971   0.0976   0.0979   0.0987   0.0993   0.1000
  0.1012   0.1017   0.1024   0.1029   0.1037   0.1039   0.1055   0.1057
  0.1060   0.1072   0.1078   0.1088   0.1089   0.1096   0.1100   0.1108
  0.1113   0.1118   0.1129   0.1131   0.1138   0.1144   0.1146   0.1150
  0.1158   0.1163   0.1167   0.1175   0.1183   0.1186   0.1192   0.1197
  0.1205   0.1211   0.1216   0.1219   0.1225   0.1231   0.1241   0.1249
  0.1251   0.1260   0.1265   0.1271   0.1284   0.1289   0.1292   0.1303
  0.1305   0.1308   0.1319   0.1325   0.1330   0.1343   0.1347   0.1360
  0.1362   0.1367   0.1369   0.1372   0.1382   0.1387   0.1402   0.1407
  0.1410   0.1415   0.1419   0.1427   0.1433   0.1438   0.1446   0.1455
  0.1460   0.1472   0.1476   0.1483   0.1485   0.1492   0.1501   0.1512
  0.1515   0.1518   0.1524   0.1539   0.1540   0.1547   0.1550   0.1553
  0.1565   0.1568   0.1574   0.1576   0.1580   0.1586   0.1595   0.1607
  0.1618   0.1622   0.1627   0.1636   0.1640   0.1641   0.1648   0.1654
  0.1657   0.1665   0.1670   0.1676   0.1677   0.1691   0.1696   0.1696
  0.1709   0.1711   0.1715   0.1726   0.1736   0.1740   0.1745   0.1757
  0.1768   0.1770   0.1774   0.1783   0.1785   0.1793   0.1800   0.1805
  0.1811   0.1819   0.1821   0.1827   0.1830   0.1843   0.1849   0.1850
  0.1855   0.1861   0.1866   0.1875   0.1885   0.1889   0.1895   0.1904
  0.1908   0.1919   0.1921   0.1931   0.1936   0.1938   0.1945   0.1947
  0.1960   0.1963   0.1969   0.1977   0.1981   0.1985   0.1990   0.1997
  0.2003   0.2009   0.2018   0.2024   0.2033   0.2038   0.2050   0.2054
  0.2063   0.2066   0.2071   0.2074   0.2076   0.2084   0.2092   0.2096
  0.2104   0.2108   0.2118   0.2125   0.2129   0.2132   0.2142   0.2148
  0.2152   0.2160   0.2165   0.2170   0.2177   0.2184   0.2192   0.2194
  0.2207   0.2208   0.2223   0.2228   0.2230   0.2238   0.2245   0.2254
  0.2257   0.2267   0.2274   0.2278   0.2287   0.2288   0.2297   0.2302
  0.2312   0.2316   0.2327   0.2339   0.2344   0.2347   0.2354   0.2358
  0.2364   0.2375   0.2378   0.2386   0.2392   0.2395   0.2403   0.2416
  0.2418   0.2426   0.2440   0.2446   0.2452   0.2466   0.2469   0.2471
  0.2484   0.2490   0.2493   0.2501   0.2504   0.2509   0.2524   0.2531
  0.2531   0.2541   0.2555   0.2558   0.2571   0.2579   0.2587   0.2591
  0.2601   0.2603   0.2610   0.2617   0.2623   0.2629   0.2642   0.2645
  0.2656   0.2667   0.2676   0.2682   0.2687   0.2695   0.2706   0.2713
  0.2719   0.2725   0.2730   0.2737   0.2746   0.2752   0.2762   0.2772
  0.2783   0.2790   0.2793   0.2798   0.2801   0.2824   0.2828   0.2841
  0.2847   0.2855   0.2860   0.2862   0.2874   0.2881   0.2891   0.2900
  0.2909   0.2917   0.2926   0.2928   0.2936   0.2948   0.2956   0.2962
  0.2965   0.2979   0.2986   0.2991   0.3006   0.3011   0.3015   0.3026
  0.3035   0.3041   0.3053   0.3056   0.3066   0.3071   0.3082   0.3083
  0.3095   0.3102   0.3114   0.3123   0.3135   0.3151   0.3154   0.3164
  0.3169   0.3182   0.3188   0.3191   0.3199   0.3206   0.3214   0.3221
  0.3233   0.3240   0.3243   0.3249   0.3258   0.3266   0.3272   0.3284
  0.3294   0.3300   0.3308   0.3315   0.3327   0.3334   0.3343   0.3349
  0.3360   0.3362   0.3370   0.3376   0.3383   0.3403   0.3406   0.3408
  0.3414   0.3431   0.3432   0.3448   0.3462   0.3468   0.3476   0.3480
  0.3494   0.3504   0.3507   0.3517   0.3520   0.3529   0.3535   0.3552
  0.3568   0.3579   0.3587   0.3594   0.3607   0.3612   0.3626   0.3642
  0.3643   0.3657   0.3662   0.3670   0.3680   0.3683   0.3690   0.3698
  0.3711   0.3727   0.3732   0.3740   0.3750   0.3756   0.3767   0.3770
  0.3786   0.3796   0.3813   0.3815   0.3819   0.3832   0.3838   0.3843
  0.3848   0.3855   0.3866   0.3875   0.3876   0.3897   0.3899   0.3921
  0.3929   0.3935   0.3938   0.3946   0.3957   0.3972   0.3985   0.4004
  0.4013   0.4018   0.4023   0.4032   0.4049   0.4058   0.4061   0.4076
  0.4081   0.4083   0.4097   0.4107   0.4126   0.4133   0.4143   0.4153
  0.4159   0.4167   0.4173   0.4181   0.4191   0.4200   0.4219   0.4220
  0.4234   0.4238   0.4245   0.4258   0.4268   0.4277   0.4304   0.4319
  0.4320   0.4328   0.4342   0.4347   0.4357   0.4367   0.4384   0.4395
  0.4398   0.4403   0.4414   0.4433   0.4443   0.4448   0.4462   0.4480
  0.4490   0.4501   0.4509   0.4512   0.4527   0.4543   0.4545   0.4559
  0.4581   0.4582   0.4603   0.4620   0.4627   0.4636   0.4649   0.4657
  0.4682   0.4686   0.4705   0.4711   0.4714   0.4739   0.4745   0.4769
  0.4784   0.4786   0.4798   0.4816   0.4831   0.4835   0.4842   0.4859
  0.4864   0.4904   0.4908   0.4915   0.4943   0.4951   0.4974   0.4977
  0.5006   0.5023   0.5046   0.5061   0.5071   0.5077   0.5094   0.5106
  0.5133   0.5160   0.5162   0.5176   0.5200   0.5210   0.5219   0.5229
  0.5267   0.5293   0.5330   0.5334   0.5343   0.5368   0.5386   0.5408
  0.5430   0.5437   0.5443   0.5457   0.5474   0.5486   0.5495   0.5512
  0.5529   0.5543   0.5551   0.5553   0.5564   0.5593   0.5614   0.5622
  0.5627   0.5650   0.5688   0.5698   0.5705   0.5716   0.5724   0.5747
  0.5760   0.5770   0.5781   0.5790   0.5809   0.5815   0.5822   0.5851
  0.5853   0.5868   0.5883   0.5893   0.5911   0.5921   0.5931   0.5943
  0.5959   0.5974   0.5994   0.6008   0.6024   0.6044   0.6046   0.6053
  0.6086   0.6099   0.6122   0.6143   0.6158   0.6162   0.6174   0.6194
  0.6202   0.6221   0.6232   0.6241   0.6252   0.6266   0.6284   0.6291
  0.6293   0.6305   0.6319   0.6350   0.6360   0.6362   0.6378   0.6380
  0.6394   0.6404   0.6411   0.6419   0.6436   0.6441   0.6458   0.6464
  0.6482   0.6501   0.6504   0.6535   0.6540   0.6545   0.6565   0.6576
  0.6578   0.6589   0.6591   0.6606   0.6621   0.6629   0.6637   0.6652
  0.6669   0.6680   0.6694   0.6715   0.6722   0.6743   0.6749   0.6757
  0.6770   0.6780   0.6787   0.6793   0.6820   0.6824   0.6831   0.6861
  0.6864   0.6878   0.6885   0.6888   0.6896   0.6919   0.6925   0.6941
  0.6947   0.6956   0.6986   0.6990   0.6997   0.7016   0.7018   0.7035
  0.7042   0.7047   0.7062   0.7085   0.7107   0.7118   0.7129   0.7137
  0.7147   0.7173   0.7181   0.7195   0.7212   0.7220   0.7249   0.7270
  0.7286   0.7287   0.7315   0.7317   0.7338   0.7340   0.7362   0.7373
  0.7391   0.7412   0.7424   0.7435   0.7443   0.7485   0.7487   0.7499
  0.7515   0.7527   0.7535   0.7557   0.7566   0.7578   0.7594   0.7603
  0.7622   0.7634   0.7664   0.7667   0.7672   0.7690   0.7717   0.7730
  0.7738   0.7751   0.7764   0.7793   0.7810   0.7830   0.7842   0.7861
  0.7881   0.7894   0.7899   0.7917   0.7922   0.7925   0.7952   0.7966
  0.7977   0.7993   0.7998   0.8016   0.8029   0.8041   0.8060   0.8075
  0.8081   0.8093   0.8118   0.8139   0.8150   0.8154   0.8173   0.8182
  0.8207   0.8221   0.8255   0.8260   0.8270   0.8278   0.8291   0.8310
  0.8316   0.8320   0.8329   0.8344   0.8363   0.8373   0.8389   0.8406
  0.8414   0.8429   0.8435   0.8456   0.8469   0.8476   0.8495   0.8514
  0.8529   0.8543   0.8553   0.8555   0.8579   0.8585   0.8590   0.8600
  0.8612   0.8614   0.8635   0.8658   0.8675   0.8684   0.8700   0.8713
  0.8737   0.8746   0.8758   0.8764   0.8779   0.8787   0.8794   0.8822
  0.8831   0.8847   0.8858   0.8861   0.8886   0.8888   0.8892   0.8922
  0.8927   0.8943   0.8964   0.8969   0.8982   0.8993   0.9003   0.9012
  0.9020   0.9037   0.9051   0.9057   0.9070   0.9099   0.9101   0.9113
  0.9135   0.9158   0.9163   0.9179   0.9192   0.9201   0.9221   0.9228
  0.9238   0.9254   0.9259   0.9270   0.9289   0.9303   0.9318   0.9330
  0.9341   0.9347   0.9360   0.9376   0.9390   0.9393   0.9412   0.9420
  0.9426   0.9445   0.9458   0.9467   0.9472   0.9478   0.9492   0.9497
  0.9518   0.9524   0.9533   0.9545   0.9562   0.9577   0.9594   0.9603
  0.9618   0.9631   0.9638   0.9648   0.9656   0.9685   0.9689   0.9703
  0.9713   0.9720   0.9727   0.9739   0.9760   0.9766   0.9785   0.9791
  0.9795   0.9809   0.9823   0.9831   0.9845   0.9853   0.9861   0.9876
  0.9895   0.9901   0.9903   0.9918   0.9934   0.9940   0.9957   0.9970
  0.9977   0.9984   1.0004   1.0007   1.0029   1.0044   1.0048   1.0049
  1.0071   1.0075   1.0089   1.0100   1.0101   1.0120   1.0125   1.0136
  1.0155   1.0178   1.0180   1.0192   1.0205   1.0215   1.0233   1.0239
  1.0246   1.0255   1.0262   1.0273   1.0291   1.0311   1.0316   1.0320
  1.0341   1.0341   1.0355   1.0372   1.0386   1.0398   1.0407   1.0420
  1.0438   1.0448   1.0467   1.0469   1.0476   1.0486   1.0503   1.0512
  1.0533   1.0542   1.0566   1.0569   1.0588   1.0602   1.0606   1.0629
  1.0632   1.0654   1.0662   1.0683   1.0690   1.0700   1.0708   1.0717
  1.0728   1.0756   1.0770   1.0785   1.0799   1.0808   1.0816   1.0830
  1.0839   1.0862   1.0876   1.0894   1.0909   1.0919   1.0934   1.0944
  1.0955   1.0960   1.0998   1.1009   1.1024   1.1028   1.1038   1.1057
  1.1079   1.1086   1.1105   1.1112   1.1145   1.1148   1.1164   1.1190
  1.1203   1.1214   1.1222   1.1225   1.1246   1.1266   1.1275   1.1294
  1.1313   1.1326   1.1335   1.1358   1.1367   1.1376   1.1380   1.1405
  1.1416   1.1426   1.1446   1.1452   1.1463   1.1479   1.1489   1.1504
  1.1516   1.1531   1.1542   1.1551   1.1557   1.1578   1.1592   1.1607
  1.1620   1.1627   1.1638   1.1669   1.1689   1.1693   1.1706   1.1713
  1.1729   1.1749   1.1763   1.1775   1.1788   1.1807   1.1823   1.1836
  1.1851   1.1863   1.1873   1.1920   1.1924   1.1941   1.1943   1.1962
  1.1980   1.1997   1.2006   1.2015   1.2048   1.2060   1.2081   1.2104
  1.2118   1.2133   1.2151   1.2160   1.2168   1.2183   1.2198   1.2222
  1.2233   1.2253   1.2273   1.2299   1.2317   1.2347   1.2372   1.2388
  1.2399   1.2412   1.2422   1.2456   1.2460   1.2471   1.2508   1.2520
  1.2537   1.2573   1.2580   1.2597   1.2634   1.2651   1.2663   1.2709
  1.2716   1.2735   1.2745   1.2764   1.2801   1.2823   1.2840   1.2868
  1.2936   1.2944   1.2951   1.2961   1.2979   1.3043   1.3066   1.3097
  1.3116   1.3137   1.3142   1.3162   1.3173   1.3183   1.3210   1.3220
  1.3262   1.3277   1.3299   1.3307   1.3333   1.3346   1.3355   1.3386
  1.3409   1.3430   1.3447   1.3470   1.3490   1.3510   1.3528   1.3535
  1.3551   1.3565   1.3584   1.3625   1.3636   1.3640   1.3669   1.3676
  1.3681   1.3698   1.3719   1.3730   1.3735   1.3762   1.3779   1.3794
  1.3819   1.3829   1.3851   1.3876   1.3890   1.3909   1.3911   1.3920
  1.3939   1.3957   1.3972   1.3999   1.4008   1.4022   1.4029   1.4035
  1.4046   1.4074   1.4082   1.4090   1.4111   1.4140   1.4142   1.4162
  1.4188   1.4205   1.4219   1.4229   1.4252   1.4258   1.4273   1.4281
  1.4301   1.4327   1.4339   1.4348   1.4364   1.4372   1.4381   1.4394
  1.4403   1.4422   1.4436   1.4441   1.4452   1.4497   1.4505   1.4517
  1.4534   1.4558   1.4567   1.4575   1.4609   1.4612   1.4652   1.4664
  1.4670   1.4686   1.4698   1.4733   1.4757   1.4764   1.4815   1.4823
  1.4850   1.4861   1.4868   1.4904   1.4919   1.4939   1.4948   1.4977
  1.4990   1.5014   1.5034   1.5048   1.5062   1.5078   1.5108   1.5113
  1.5149   1.5195   1.5216   1.5229   1.5239   1.5248   1.5296   1.5303
  1.5307   1.5360   1.5377   1.5396   1.5452   1.5478   1.5492   1.5528
  1.5549   1.5585   1.5594   1.5628   1.5673   1.5690   1.5718   1.5751
  1.5804   1.5818   1.5864   1.5883   1.5908   1.5911   1.5963   1.6014
  1.6042   1.6104   1.6117   1.6134   1.6155   1.6239   1.6267   1.6315
  1.6371   1.6386   1.6415   1.6453   1.6470   1.6487   1.6524   1.6567
  1.6654   1.6669   1.6675   1.6701   1.6715   1.6742   1.6771   1.6788
  1.6797   1.6804   1.6811   1.6819   1.6836   1.6844   1.6858   1.6863
  1.6879   1.6903   1.6919   1.6929   1.6933   1.6948   1.6965   1.6983
  1.6998   1.7006   1.7014   1.7031   1.7036   1.7046   1.7059   1.7069
  1.7079   1.7095   1.7108   1.7128   1.7135   1.7146   1.7153   1.7182
  1.7197   1.7200   1.7211   1.7221   1.7232   1.7245   1.7265   1.7280
  1.7295   1.7307   1.7328   1.7341   1.7350   1.7375   1.7387   1.7399
  1.7414   1.7419   1.7431   1.7439   1.7452   1.7459   1.7472   1.7481
  1.7495   1.7522   1.7535   1.7544   1.7578   1.7580   1.7599   1.7612
  1.7621   1.7635   1.7653   1.7662   1.7676   1.7681   1.7704   1.7710
  1.7731   1.7749   1.7764   1.7786   1.7802   1.7828   1.7841   1.7869
  1.7893   1.7901   1.7913   1.7922   1.7937   1.7957   1.7979   1.7982
  1.8015   1.8022   1.8062   1.8075   1.8110   1.8116   1.8132   1.8156
  1.8182   1.8198   1.8285   1.8323   1.8344   1.8377   1.8423   1.8442
  1.8455   1.8514   1.8532   1.8559   1.8573   1.8598   1.8615   1.8651
  1.8679   1.8685   1.8708   1.8721   1.8745   1.8759   1.8773   1.8796
  1.8812   1.8825   1.8833   1.8848   1.8863   1.8867   1.8876   1.8891
  1.8895   1.8898   1.8907   1.8920   1.8936   1.8963   1.8978   1.8995
  1.9005   1.9023   1.9032   1.9042   1.9071   1.9073   1.9086   1.9099
  1.9104   1.9115   1.9118   1.9134   1.9152   1.9174   1.9178   1.9184
  1.9190   1.9200   1.9217   1.9237   1.9259   1.9277   1.9289   1.9297
  1.9305   1.9319   1.9337   1.9356   1.9375   1.9407   1.9419   1.9437
  1.9446   1.9471   1.9509   1.9528   1.9569   1.9574   1.9635   1.9647
  1.9710   1.9734   1.9848   1.9885   1.9903   1.9994   2.0068   2.0155
  2.0194   2.0229   2.0278   2.0336   2.0371   2.0407   2.0435   2.0453
  2.0479   2.0488   2.0560   2.0584   2.0590   2.0603   2.0639   2.0650
  2.0662   2.0671   2.0678   2.0681   2.0692   2.0708   2.0710   2.0734
  2.0745   2.0752   2.0781   2.0785   2.0789   2.0815   2.0840   2.0856
  2.0866   2.0875   2.0897   2.0914   2.0967   2.1001   2.1024   2.1032
  2.1052   2.1062   2.1076   2.1094   2.1108   2.1128   2.1146   2.1163
  2.1178   2.1180   2.1192   2.1227   2.1267   2.1306   2.1331   2.1332
  2.1369   2.1392   2.1429   2.1471   2.1477   2.1544   2.1554   2.1618
  2.1779   2.1816   2.1845   2.1897   2.1906   2.1912   2.1922   2.1933
  2.1957   2.1969   2.1995   2.2018   2.2028   2.2033   2.2041   2.2063
  2.2078   2.2093   2.2108   2.2131   2.2160   2.2174   2.2197   2.2216
  2.2251   2.2259   2.2276   2.2286   2.2299   2.2299   2.2311   2.2321
  2.2326   2.2342   2.2361   2.2386   2.2390   2.2397   2.2417   2.2438
  2.2449   2.2470   2.2476   2.2501   2.2514   2.2526   2.2534   2.2547
  2.2566   2.2583   2.2599   2.2605   2.2617   2.2625   2.2628   2.2634
  2.2645   2.2654   2.2657   2.2663   2.2674   2.2675   2.2682   2.2687
  2.2701   2.2717   2.2726   2.2733   2.2740   2.2743   2.2758   2.2763
  2.2772   2.2786   2.2795   2.2798   2.2813   2.2816   2.2832   2.2839
  2.2841   2.2851   2.2864   2.2879   2.2891   2.2896   2.2921   2.2923
  2.2932   2.2943   2.2955   2.2955   2.2961   2.2980   2.2996   2.3018
  2.3022   2.3038   2.3053   2.3057   2.3065   2.3070   2.3083   2.3087
  2.3099   2.3120   2.3141   2.3145   2.3151   2.3162   2.3177   2.3188
  2.3195   2.3199   2.3205   2.3227   2.3232   2.3262   2.3269   2.3284
  2.3287   2.3296   2.3302   2.3316   2.3337   2.3342   2.3345   2.3352
  2.3366   2.3391   2.3413   2.3428   2.3448   2.3479   2.3494   2.3500
  2.3521   2.3532   2.3536   2.3573   2.3594   2.3628   2.3638   2.3644
  2.3658   2.3675   2.3681   2.3691   2.3726   2.3758   2.3796   2.3823
  2.3876   2.3929   2.3941   2.3960   2.3989   2.4026   2.4045   2.4069
  2.4098   2.4226   2.4354   2.4682   2.4971   2.5192   2.5364   2.5610
  2.6441   2.7276   2.7757   2.7937   2.8102   2.8178   2.8193   2.8265
  2.8337   2.8358   2.8411   2.8429   2.8442   2.8454   2.8478   2.8480
  2.8503   2.8548   2.8553   2.8581   2.8589   2.8613   2.8630   2.8652
  2.8659   2.8692   2.8727   2.8757   2.8766   2.8824   2.8853   2.8990
  2.9006   2.9086   2.9427   3.1035   3.2277   3.9466   3.9488   3.9590
  3.9624   3.9685   3.9704   3.9731   3.9743   3.9758   3.9791   3.9807
  3.9837   3.9881   3.9938   3.9940   3.9954   3.9982   4.0000   4.0087
  4.0092   4.0140   4.0189   4.0244   4.0292   4.0332   4.0409   4.2004
  4.2084   4.2153   4.2221   4.2271   4.2295   4.2335   4.2366   4.2442
  4.2472   4.2530   4.2536   4.2617   4.2635   4.2646   4.2666   4.2703
  4.2730   4.2762   4.2809   4.2816   4.2838   4.2883   4.2889   4.2903
  4.2917   4.2928   4.2957   4.2970   4.2987   4.3016   4.3043   4.3088
  4.3102   4.3129   4.3163   4.3195   4.3263   4.3282   4.3301   4.3321
  4.3350   4.3365   4.3384   4.3413   4.3437   4.3448   4.3498   4.3504
  4.3535   4.3574   4.3628   4.3680   4.3725   4.3740   4.3774   4.3799
  4.3812   4.3867   4.3900   4.4002   4.4008   4.4027   4.4060   4.4133
  4.4170   4.4185   4.4266   4.4334   4.4400   4.4470   4.4544   4.4873
  4.4990   4.5084   4.5158   4.5322   4.5397   4.5433   4.5578   4.5895
  4.6255   4.6857   4.7173   4.7371   4.7475   4.8979
 --------------------------------------------------------------

          Ground-State Mulliken Net Atomic Charges

     Atom                 Charge (a.u.)
  ----------------------------------------
      1 C                    -0.101456
      2 C                    -0.438680
      3 C                    -0.363088
      4 C                    -0.360994
      5 C                    -0.411923
      6 C                    -0.711563
      7 H                     0.218828
      8 H                     0.224685
      9 H                     0.207226
     10 H                     0.205950
     11 H                     0.208941
     12 H                     0.214179
     13 H                     0.211012
     14 H                     0.182878
     15 H                     0.174515
     16 H                     0.239595
     17 H                     0.213925
     18 N                    -0.318227
     19 H                     0.429217
     20 C                     0.382928
     21 H                     0.159434
     22 O                    -0.567382
     23 C                    -0.874056
     24 H                     0.261527
     25 H                     0.264277
     26 H                     0.235221
     27 S                     0.953790
     28 C                    -0.973255
     29 H                     0.251721
     30 H                     0.274670
     31 H                     0.225448
     32 O                    -0.669864
     33 C                    -0.803707
     34 H                     0.247627
     35 H                     0.240732
     36 H                     0.263184
     37 S                     0.835715
     38 C                    -0.786596
     39 H                     0.244336
     40 H                     0.255528
     41 H                     0.239027
     42 O                    -0.735777
     43 C                    -0.976296
     44 H                     0.296336
     45 H                     0.274464
     46 H                     0.261365
     47 S                     1.052110
     48 C                    -0.932143
     49 H                     0.251024
     50 H                     0.265878
     51 H                     0.204750
     52 O                    -0.722765
     53 C                    -0.713332
     54 H                     0.238573
     55 H                     0.226830
     56 H                     0.272753
     57 S                     0.281801
     58 C                    -0.526133
     59 H                     0.246826
     60 H                     0.284009
     61 H                     0.266642
     62 O                    -0.583817
     63 C                    -1.032911
     64 H                     0.303410
     65 H                     0.232721
     66 H                     0.261077
     67 S                     0.388392
     68 C                    -0.527908
     69 H                     0.279108
     70 H                     0.227144
     71 H                     0.220458
     72 O                    -0.501647
     73 C                    -0.705698
     74 H                     0.267400
     75 H                     0.240741
     76 H                     0.269621
     77 S                     0.820151
     78 C                    -0.852799
     79 H                     0.277874
     80 H                     0.247408
     81 H                     0.246664
     82 O                    -0.686079
     83 C                    -0.812687
     84 H                     0.255144
     85 H                     0.233887
     86 H                     0.300823
     87 S                     0.671805
     88 C                    -0.746118
     89 H                     0.252263
     90 H                     0.248626
     91 H                     0.231896
     92 O                    -0.673491
     93 C                    -1.036129
     94 H                     0.323441
     95 H                     0.239049
     96 H                     0.262137
     97 S                     1.169280
     98 C                    -0.967280
     99 H                     0.239316
    100 H                     0.246548
    101 H                     0.310239
    102 O                    -0.706995
    103 C                    -0.892476
    104 H                     0.260428
    105 H                     0.231253
    106 H                     0.242900
    107 S                     1.052867
    108 C                    -0.991419
    109 H                     0.243237
    110 H                     0.271963
    111 H                     0.244594
    112 O                    -0.666107
    113 C                    -0.841880
    114 H                     0.237591
    115 H                     0.269002
    116 H                     0.309121
    117 S                     0.889876
    118 C                    -0.976769
    119 H                     0.240675
    120 H                     0.248544
    121 H                     0.266838
    122 O                    -0.684562
    123 C                    -0.785250
    124 H                     0.239291
    125 H                     0.249670
    126 H                     0.262452
    127 S                     0.828965
    128 C                    -0.816794
    129 H                     0.228003
    130 H                     0.258440
    131 H                     0.243993
    132 O                    -0.723205
    133 C                    -0.793197
    134 H                     0.279518
    135 H                     0.229006
    136 H                     0.276454
    137 S                     0.994599
    138 C                    -1.098821
    139 H                     0.271662
    140 H                     0.245093
    141 H                     0.244678
    142 O                    -0.629559
    143 C                    -0.969627
    144 H                     0.310528
    145 H                     0.196205
    146 H                     0.297310
    147 S                     1.040960
    148 C                    -0.807400
    149 H                     0.204446
    150 H                     0.253202
    151 H                     0.258292
    152 O                    -0.785940
    153 C                    -0.980228
    154 H                     0.261687
    155 H                     0.242660
    156 H                     0.287905
    157 S                     1.058626
    158 C                    -0.995088
    159 H                     0.259922
    160 H                     0.268514
    161 H                     0.253567
    162 O                    -0.624503
    163 C                    -0.777152
    164 H                     0.250930
    165 H                     0.264014
    166 H                     0.243212
    167 S                     0.910330
    168 C                    -0.799166
    169 H                     0.253677
    170 H                     0.246646
    171 H                     0.238988
    172 O                    -0.818580
    173 C                    -1.024158
    174 H                     0.316982
    175 H                     0.276109
    176 H                     0.296284
    177 S                     1.022521
    178 C                    -0.934514
    179 H                     0.238793
    180 H                     0.254734
    181 H                     0.286592
    182 O                    -0.674116
    183 C                    -0.799397
    184 H                     0.264716
    185 H                     0.283284
    186 H                     0.280861
    187 S                     0.695443
    188 C                    -0.847501
    189 H                     0.285085
    190 H                     0.233191
    191 H                     0.264024
    192 O                    -0.714219
    193 C                    -0.868838
    194 H                     0.303917
    195 H                     0.274075
    196 H                     0.225014
    197 S                     0.858013
    198 C                    -0.852058
    199 H                     0.236813
    200 H                     0.292660
    201 H                     0.222741
    202 O                    -0.635292
    203 C                    -0.808634
    204 H                     0.258694
    205 H                     0.287187
    206 H                     0.246850
    207 S                     0.671208
    208 C                    -0.871294
    209 H                     0.225686
    210 H                     0.286001
    211 H                     0.275016
    212 O                    -0.630212
    213 C                    -0.886584
    214 H                     0.226902
    215 H                     0.276654
    216 H                     0.261234
    217 S                     0.876353
    218 C                    -0.916884
    219 H                     0.319791
    220 H                     0.226415
    221 H                     0.245177
    222 O                    -0.658731
    223 C                    -0.740410
    224 H                     0.247066
    225 H                     0.234108
    226 H                     0.248042
    227 S                     0.801584
    228 C                    -0.803588
    229 H                     0.237231
    230 H                     0.256171
    231 H                     0.236614
    232 O                    -0.625064
    233 C                    -0.758397
    234 H                     0.278978
    235 H                     0.270946
    236 H                     0.279782
    237 S                     0.546434
    238 C                    -0.783990
    239 H                     0.247265
    240 H                     0.318175
    241 H                     0.259928
    242 O                    -0.666355
    243 C                    -0.926769
    244 H                     0.262367
    245 H                     0.241155
    246 H                     0.248418
    247 S                     0.967906
    248 C                    -0.827451
    249 H                     0.248772
    250 H                     0.257278
    251 H                     0.274270
    252 O                    -0.693561
    253 C                    -0.890935
    254 H                     0.248112
    255 H                     0.276714
    256 H                     0.276112
    257 S                     0.783341
    258 C                    -0.766631
    259 H                     0.227405
    260 H                     0.238972
    261 H                     0.246008
    262 O                    -0.723162
    263 C                    -0.931066
    264 H                     0.212683
    265 H                     0.279241
    266 H                     0.263027
    267 S                     1.070909
    268 C                    -0.872899
    269 H                     0.226704
    270 H                     0.269010
    271 H                     0.270948
    272 O                    -0.738280
    273 C                    -0.864472
    274 H                     0.246495
    275 H                     0.224168
    276 H                     0.250322
    277 S                     0.962294
    278 C                    -0.928813
    279 H                     0.282454
    280 H                     0.254118
    281 H                     0.258329
    282 O                    -0.700513
  ----------------------------------------
  Sum of atomic charges =     0.000000

 -----------------------------------------------------------------
                    Cartesian Multipole Moments
 -----------------------------------------------------------------
    Charge (ESU x 10^10)
                 0.0000
    Dipole Moment (Debye)
         X      -5.8724      Y       3.7619      Z      10.5462
       Tot      12.6435
    Quadrupole Moments (Debye-Ang)
        XX   -1154.7751     XY    -153.8754     YY    -885.3499
        XZ      82.1554     YZ     215.8945     ZZ    -300.0228
    Octopole Moments (Debye-Ang^2)
       XXX  -79389.7692    XXY  -29359.5950    XYY  -31859.0637
       YYY  -64019.0752    XXZ  -24066.0127    XYZ   -1326.8889
       YYZ  -23370.2639    XZZ  -13232.8665    YZZ   -9905.5162
       ZZZ  -44915.9151
    Hexadecapole Moments (Debye-Ang^3)
      XXXX ************   XXXY ************   XXYY ************
      XYYY ************   YYYY ************   XXXZ ************
      XXYZ -687384.6361   XYYZ -836839.9934   YYYZ ************
      XXZZ ************   XYZZ -433826.1345   YYZZ ************
      XZZZ ************   YZZZ ************   ZZZZ ************
 -----------------------------------------------------------------
 Total job time:  29679.12s(wall), 248267.30s(cpu) 
 Thu Jul 21 17:20:13 2022

        *************************************************************
        *                                                           *
        *  Thank you very much for using Q-Chem.  Have a nice day.  *
        *                                                           *
        *************************************************************


 
User input: 2 of 2 
 
                  Welcome to Q-Chem
     A Quantum Leap Into The Future Of Chemistry


 Q-Chem 6.0 (devel), Q-Chem, Inc., Pleasanton, CA (2022)

 E. Epifanovsky,  A. T. B. Gilbert,  Xintian Feng,  Joonho Lee,  Yuezhi Mao,  
 N. Mardirossian,  P. Pokhilko,  A. White,  M. Wormit,  M. P. Coons,  
 A. L. Dempwolff,  Zhengting Gan,  D. Hait,  P. R. Horn,  L. D. Jacobson,  
 I. Kaliman,  J. Kussmann,  A. W. Lange,  Ka Un Lao,  D. S. Levine,  Jie Liu,  
 S. C. McKenzie,  A. F. Morrison,  K. Nanda,  F. Plasser,  D. R. Rehn,  
 M. L. Vidal,  Zhi-Qiang You,  Ying Zhu,  B. Alam,  B. Albrecht,  
 A. Aldossary,  E. Alguire,  J. H. Andersen,  V. Athavale,  D. Barton,  
 K. Begam,  A. Behn,  N. Bellonzi,  Y. A. Bernard,  E. J. Berquist,  
 H. Burton,  A. Carreras,  K. Carter-Fenk,  Romit Chakraborty,  
 Chandrima Chakravarty,  Junhan Chen,  A. D. Chien,  K. D. Closser,  
 V. Cofer-Shabica,  L. Cunha,  S. Dasgupta,  Jia Deng,  M. de Wergifosse,  
 M. Diedenhofen,  Hainam Do,  S. Ehlert,  Po-Tung Fang,  S. Fatehi,  
 Qingguo Feng,  T. Friedhoff,  B. Ganoe,  J. Gayvert,  Qinghui Ge,  
 G. Gidofalvi,  M. Goldey,  J. Gomes,  C. Gonzalez-Espinoza,  S. Gulania,  
 A. Gunina,  J. A. Gyamfi,  M. W. D. Hanson-Heine,  P. H. P. Harbach,  
 A. W. Hauser,  M. F. Herbst,  M. Hernandez Vera,  M. Hodecker,  
 Z. C. Holden,  S. Houck,  Xunkun Huang,  Kerwin Hui,  B. C. Huynh,  
 K. Ikeda,  M. Ivanov,  Hyunjun Ji,  Zuxin Jin,  Hanjie Jiang,  B. Kaduk,  
 S. Kaehler,  R. Kang,  K. Khistyaev,  Jaehoon Kim,  Yongbin Kim,  
 P. Klunzinger,  Z. Koczor-Benda,  Joong Hoon Koh,  D. Kosenkov,  
 Saikiran Kotaru,  L. Koulias,  T. Kowalczyk,  C. M. Krauter,  K. Kue,  
 A. Kunitsa,  T. Kus,  A. Landau,  K. V. Lawler,  D. Lefrancois,  S. Lehtola,  
 Rain Li,  Shaozhi Li,  Yi-Pei Li,  Jiashu Liang,  M. Liebenthal,  
 Hung-Hsuan Lin,  You-Sheng Lin,  Fenglai Liu,  Kuan-Yu Liu,  
 M. Loipersberger,  A. Luenser,  C. Malbon,  A. Manjanath,  P. Manohar,  
 E. Mansoor,  S. F. Manzer,  Shan-Ping Mao,  A. V. Marenich,  T. Markovich,  
 S. Mason,  F. Matz,  S. A. Maurer,  P. F. McLaughlin,  M. F. S. J. Menger,  
 J.-M. Mewes,  S. A. Mewes,  P. Morgante,  Mohammad Mostafanejad,  
 J. W. Mullinax,  K. J. Oosterbaan,  G. Paran,  V. Parravicini,  
 Alexander C. Paul,  Suranjan K. Paul,  F. Pavosevic,  Zheng Pei,  S. Prager,  
 E. I. Proynov,  E. Ramos,  B. Rana,  A. E. Rask,  A. Rettig,  R. M. Richard,  
 F. Rob,  E. Rossomme,  T. Scheele,  M. Scheurer,  M. Schneider,  
 P. E. Schneider,  N. Sergueev,  S. M. Sharada,  Hengyuan Shen,  
 W. Skomorowski,  D. W. Small,  C. J. Stein,  Yingli Su,  Yu-Chuan Su,  
 E. J. Sundstrom,  Zhen Tao,  J. Thirman,  Hung-Yi Tsai,  T. Tsuchimochi,  
 N. M. Tubman,  C. Utku,  S. P. Veccham,  O. Vydrov,  J. Wenzel,  
 Jonathan Wong,  J. Witte,  A. Yamada,  Chou-Hsun Yang,  Kun Yao,  
 S. Yeganeh,  S. R. Yost,  A. Zech,  F. Zeller,  Igor Ying Zhang,  
 Xing Zhang,  Yu Zhang,  D. Zuev,  A. Aspuru-Guzik,  A. T. Bell,  
[...]
    3  -3.1291400   0.7147649  -2.0308107  -3.7713503  -0.4281640  -1.7347607
          187         188         189         190         191         192
    1   0.3880849  -0.3762722  -0.1609599  -1.6809337   0.7675719   2.8879161
    2   0.1464846  -1.1724295  -0.3416814  -0.4956057  -2.5094914  -0.0549100
    3  -3.2637507  -1.6836487   0.2634419  -2.9204313  -2.5401780  -1.7254542
          193         194         195         196         197         198
    1  -1.2285916  -0.8665270   0.2656736  -2.7714208  -1.6855450  -3.0443257
    2  -0.6895690   0.7204182  -0.9224312  -1.5657380   0.0126646   1.1898971
    3   0.7733478  -0.6130548   1.5997756   1.2948901   2.5872289   1.3326820
          199         200         201         202         203         204
    1  -3.1479639  -1.8605416  -3.5474748   0.1008705  -0.8099343  -0.7730105
    2   1.7950780   2.8105049  -0.5393671   3.0203047  -2.6637280  -0.5064084
    3   3.0557608   0.4449130   0.8245179   2.0482022   0.0008721   0.7984057
          205         206         207         208         209         210
    1  -1.6258151  -0.1200213   0.8514034   1.6674618   0.3927398   1.6335665
    2  -2.8375798  -4.2704028  -2.7558712  -2.1938830  -0.5666394  -4.2112574
    3  -1.3471586   0.6298989  -1.2001199   0.1152923   1.0413643   0.2202907
          211         212         213         214         215         216
    1   2.8177866   0.0316495  -2.3450070  -3.2127597  -0.3045262  -3.2313897
    2  -1.8643145   0.6878972   0.3491929  -0.6740933   0.9662904   0.4731535
    3  -1.2549425  -1.6813061   1.4575321   3.0276732   1.2998022  -0.1564124
          217         218         219         220         221         222
    1  -2.4398000  -0.9669511   0.1932341  -2.4168771  -1.3448315   0.1669081
    2  -1.6940393  -1.7172404  -0.6493457  -1.0420298  -3.6964245  -0.2007612
    3   0.8167879   2.2899034   1.5629052   3.5178827   1.7479996  -1.1018794
          223         224         225         226         227         228
    1  -3.0375414  -2.8066878  -1.8362582  -4.2202521  -2.4653267  -3.5169002
    2   2.0648676   0.7032831   3.2520504   1.7399127   0.9540897  -0.6576786
    3   0.8497899   2.7782713   0.7086192  -0.1582639  -0.9632835   0.2603313
          229         230         231         232         233         234
    1  -3.5280687  -4.2740812  -2.4055338  -0.4209195  -0.5050979  -0.8262431
    2  -0.1745716   0.2345995  -1.9482218  -0.2421111  -1.3503813  -2.4769229
    3   2.3636848  -1.2071662  -0.1678013   1.3394604  -0.4680531  -1.9848670
          235         236         237         238         239         240
    1   1.1491577  -1.9341150  -0.6705373  -1.4131880  -3.0047162   0.3618010
    2  -0.1912070  -1.0803457   0.6437592   1.2655611   0.0918633   0.4660010
    3   0.2770422   0.6422420  -1.6231545  -0.0658814   0.1497668   0.9528449
          241         242         243         244         245         246
    1  -1.2668740  -3.6913704   3.3610702   4.2434361   2.7100953   2.6778362
    2   2.6255704  -0.2252431   0.1130051   0.4041457  -1.6795790   1.8105484
    3  -1.3896209  -2.4563464  -1.8509801  -0.2870654  -2.3671806  -3.1246542
          247         248         249         250         251         252
    1   1.8989823   0.8641669  -0.4168314   1.5713242   1.8040841   2.2777555
    2   0.1043423   1.0361884   1.4521573   2.7105230  -0.7812071   3.3646450
    3  -0.8418535  -2.6556091  -1.4674674  -3.3090852  -3.2716429  -0.2162102
          253         254         255         256         257         258
    1   0.0727670   0.4127181   1.5753962  -1.6204393  -0.5063818  -1.7210766
    2   2.6347016   1.9481991   2.8294922   2.9182644   0.7135147   0.0404627
    3   2.5883623   4.3142413   1.3547935   1.9446033   1.3999186   3.3823345
          259         260         261         262         263         264
    1  -1.5754919  -0.5953663  -2.5908045   1.9294911  -0.7904129  -2.2874211
    2  -1.9366370   0.9799691   0.6733696  -0.2384775  -1.3067605  -1.4452556
    3   3.1159718   4.6934537   2.2174515   3.3881652   1.2707788   1.3071383
          265         266         267         268         269         270
    1  -0.3807650   0.3598245  -1.4417685  -2.2850095  -3.0867789  -2.4026066
    2  -3.0824738   0.5059298  -1.0218274  -2.9588312  -2.0597237  -2.6851904
    3   1.9683494   0.5605387  -0.8310343  -0.3642015   0.9658262  -2.2846594
          271         272         273         274         275         276
    1  -0.9573611   0.7293197   2.3500585   3.6403318   0.8787027   2.5290587
    2  -4.3129325  -2.9947487   1.0388383   2.1540316   0.6034146   0.9602085
    3   0.5773886  -0.7886888   1.1521131   1.6116393   2.7294573  -0.9723079
          277         278         279         280         281         282
    1   0.8606167  -0.3539788  -0.1602745  -1.2358544   0.6234745   1.7019084
    2   2.5461570   1.7865891   0.8225466   3.6265220   1.2460777   3.4035357
    3   1.6313473   0.5844412   2.2733290   0.1180859  -1.0529724  -1.6290298
 EField
            1           2           3           4           5           6
    1   0.0025030   0.0026856   0.0023114   0.0034440   0.0023429   0.0027345
    2  -0.0050566  -0.0044234  -0.0040715  -0.0036482  -0.0015620  -0.0062071
    3   0.0038442   0.0061106   0.0045773   0.0033023   0.0040273   0.0030547
            7           8           9          10          11          12
    1  -0.0019269   0.0062083   0.0021868   0.0024280   0.0071127  -0.0015241
    2  -0.0015733  -0.0061602  -0.0018598  -0.0090391  -0.0012935  -0.0072701
    3   0.0014228   0.0064505   0.0004927   0.0051571   0.0015251  -0.0007290
           13          14          15          16          17          18
    1   0.0024892  -0.0000383   0.0023073   0.0039924   0.0083944  -0.0019599
    2  -0.0003709   0.0037873  -0.0072811  -0.0102925  -0.0039716  -0.0058295
    3   0.0069415   0.0018517   0.0046926   0.0004197   0.0066461   0.0084119
           19          20          21          22          23          24
    1  -0.0057981  -0.0016966   0.0007894   0.0030279   0.0039857   0.0231094
    2   0.0027451  -0.0133038  -0.0161475  -0.0102214   0.0019310  -0.0059125
    3   0.0127535   0.0080925   0.0003566   0.0077492  -0.0037271   0.0153664
           25          26          27          28          29          30
    1  -0.0245398   0.0142881  -0.0262098  -0.0010961   0.0116171  -0.0173851
    2   0.0006417   0.0287341  -0.0486226   0.0043807   0.0305570  -0.0084532
    3  -0.0274508  -0.0070774   0.0242582  -0.0062760  -0.0039761  -0.0321933
           31          32          33          34          35          36
    1  -0.0206762   0.0519791   0.0051131  -0.0060897   0.0232759   0.0057938
    2   0.0117074   0.0710830  -0.0028117  -0.0155569   0.0236994  -0.0274764
    3   0.0171050   0.0686705  -0.0034324  -0.0290954  -0.0082970   0.0106803
           37          38          39          40          41          42
    1  -0.0328342   0.0014210  -0.0129680   0.0215060   0.0166042  -0.0364005
    2   0.0355012   0.0012744   0.0245211  -0.0166449   0.0266610  -0.0861692
    3  -0.0300533   0.0060548   0.0310500   0.0140665  -0.0066034   0.0554853
           43          44          45          46          47          48
    1  -0.0037321  -0.0201348   0.0182364  -0.0268278   0.0502843  -0.0045840
    2   0.0045642  -0.0149208   0.0278931   0.0189899  -0.0096505   0.0037237
    3   0.0077725   0.0213565   0.0121601  -0.0060692   0.0153929  -0.0036396
           49          50          51          52          53          54
    1   0.0180024  -0.0330473   0.0195826  -0.0777639  -0.0020801   0.0185042
    2  -0.0209429   0.0091256   0.0289711  -0.0789039  -0.0037488   0.0049608
    3  -0.0198979   0.0038969  -0.0117439  -0.0037103   0.0037702   0.0276084
           55          56          57          58          59          60
    1  -0.0293055  -0.0002055   0.0571421  -0.0055235  -0.0281452   0.0205778
    2  -0.0065384  -0.0291544   0.0041129   0.0062829   0.0131263   0.0205342
    3   0.0047890  -0.0094218  -0.0127181   0.0029375   0.0196387   0.0119810
           61          62          63          64          65          66
    1  -0.0133183  -0.0758752  -0.0055429  -0.0017450  -0.0013763  -0.0338119
    2   0.0268159  -0.0293606   0.0042495   0.0014440   0.0185654   0.0007895
    3  -0.0168552  -0.0751569   0.0016116   0.0334961  -0.0193852  -0.0045305
           67          68          69          70          71          72
    1  -0.0077502   0.0081229   0.0405646   0.0106836   0.0049612  -0.0057499
    2  -0.0426491   0.0015476   0.0044112   0.0264367  -0.0051552  -0.0160222
    3   0.0418613  -0.0004726  -0.0113781  -0.0146862   0.0244071  -0.1066856
           73          74          75          76          77          78
    1  -0.0054852   0.0123600  -0.0255056  -0.0229068   0.0286789   0.0024786
    2   0.0073930   0.0286323  -0.0022045   0.0077279   0.0107213   0.0016002
    3  -0.0067735  -0.0081118  -0.0186989   0.0176059   0.0529240  -0.0134787
           79          80          81          82          83          84
    1  -0.0109813  -0.0008616   0.0163395  -0.0651617   0.0000628  -0.0256787
    2  -0.0081025   0.0318240  -0.0313347  -0.0876606  -0.0053881  -0.0144204
    3  -0.0261331  -0.0170921   0.0139935  -0.0106559  -0.0046176   0.0074184
           85          86          87          88          89          90
    1  -0.0057554   0.0216993   0.0610388  -0.0001871   0.0073573  -0.0308353
    2  -0.0055041  -0.0213423   0.0158092  -0.0003158   0.0187805  -0.0116926
    3  -0.0338738   0.0010305  -0.0229106   0.0064101   0.0203725   0.0097653
           91          92          93          94          95          96
    1   0.0287524  -0.0835205   0.0082725   0.0377422  -0.0084958  -0.0208432
    2  -0.0107367   0.0633298   0.0067052  -0.0045370  -0.0123793   0.0249626
    3   0.0105721  -0.0313338  -0.0049559  -0.0097445  -0.0206099   0.0072542
           97          98          99         100         101         102
    1   0.0177829  -0.0057972  -0.0197417  -0.0149258  -0.0094143   0.0472586
    2  -0.0495181   0.0025244  -0.0264103  -0.0032552   0.0332704   0.0840513
    3  -0.0007650   0.0058716  -0.0086969   0.0313588   0.0163372   0.0549719
          103         104         105         106         107         108
    1  -0.0030123  -0.0341703  -0.0080847   0.0174125  -0.0216091   0.0085190
    2  -0.0034229   0.0058178   0.0337051  -0.0059298   0.0272169   0.0009263
    3  -0.0082446  -0.0108164  -0.0059170  -0.0284421   0.0449944   0.0004540
          109         110         111         112         113         114
    1   0.0106038   0.0080819   0.0255018  -0.0051537  -0.0084681   0.0087469
    2  -0.0208055   0.0319355  -0.0102315  -0.1105369   0.0037290   0.0154835
    3  -0.0234449   0.0017925   0.0186243  -0.0133523  -0.0059448  -0.0257980
          115         116         117         118         119         120
    1  -0.0125188  -0.0234146   0.0379931  -0.0032104  -0.0084021   0.0074997
    2  -0.0280432   0.0244461  -0.0377192  -0.0009849  -0.0331498   0.0026713
    3  -0.0170212   0.0038595  -0.0124316   0.0046645   0.0043840   0.0313779
          121         122         123         124         125         126
    1  -0.0284546   0.0221680  -0.0003214  -0.0208824  -0.0167422   0.0075643
    2   0.0072412   0.0995847   0.0009633   0.0058392   0.0034685  -0.0323693
    3  -0.0095433   0.0403074  -0.0034935   0.0225583  -0.0289439   0.0061015
          127         128         129         130         131         132
    1   0.0380538  -0.0030183  -0.0164540   0.0265792  -0.0125848   0.0245780
    2  -0.0006710   0.0063590   0.0168982   0.0164664  -0.0031515  -0.0358419
    3   0.0441721  -0.0039867   0.0247670  -0.0092903  -0.0299445  -0.1016913
          133         134         135         136         137         138
    1   0.0117815  -0.0000185   0.0139059   0.0243193   0.0011041  -0.0010568
    2   0.0044890   0.0257589   0.0059376  -0.0166933  -0.0446059  -0.0037623
    3  -0.0019312  -0.0200675   0.0249755  -0.0098555   0.0456014  -0.0042683
          139         140         141         142         143         144
    1   0.0026172   0.0220417  -0.0269414  -0.0777175   0.0080633   0.0025869
    2   0.0195043  -0.0228886  -0.0135969   0.0724591   0.0047898   0.0283516
    3  -0.0237961   0.0015244  -0.0139444  -0.0112577  -0.0059329  -0.0180197
          145         146         147         148         149         150
    1   0.0145984   0.0131058  -0.0379253   0.0035654  -0.0043782  -0.0159928
    2   0.0225219  -0.0293716   0.0243743  -0.0025685   0.0124224  -0.0240330
    3   0.0230417  -0.0089870  -0.0006240   0.0011944   0.0355475   0.0114442
          151         152         153         154         155         156
    1   0.0282818   0.0296110  -0.0069620  -0.0082125   0.0254508  -0.0247363
    2  -0.0130982  -0.0839298   0.0071727   0.0334616   0.0194421  -0.0163431
    3  -0.0010083  -0.0673991  -0.0041843   0.0060298  -0.0108153  -0.0126819
          157         158         159         160         161         162
    1   0.0481826   0.0039894   0.0215460   0.0172210  -0.0263060  -0.0869004
    2   0.0303962  -0.0074131   0.0178653  -0.0209453  -0.0191784  -0.0403709
    3   0.0289937  -0.0057256  -0.0115685   0.0145915  -0.0085014   0.0514639
          163         164         165         166         167         168
    1   0.0060267   0.0016548   0.0131055   0.0234084   0.0047140  -0.0023887
    2  -0.0009450  -0.0262578   0.0183443  -0.0133213   0.0422688  -0.0037501
    3  -0.0048904  -0.0178021  -0.0241158   0.0220801   0.0346708   0.0019801
          169         170         171         172         173         174
    1  -0.0307978   0.0018465   0.0157156  -0.0702785  -0.0092484  -0.0269220
    2  -0.0091210  -0.0293544  -0.0117970  -0.0097792   0.0070911  -0.0211736
    3   0.0102986  -0.0131324   0.0285373  -0.0834176   0.0043258   0.0005039
          175         176         177         178         179         180
    1   0.0045614  -0.0053321   0.0408018  -0.0091337   0.0195604  -0.0116427
    2   0.0194335   0.0161826   0.0318179  -0.0078556  -0.0130360  -0.0218660
    3   0.0299561  -0.0286958  -0.0267651  -0.0066126  -0.0198908   0.0194159
          181         182         183         184         185         186
    1  -0.0113488   0.0114991  -0.0045466  -0.0222016  -0.0198659   0.0198919
    2   0.0251625  -0.0526442   0.0074464   0.0132982   0.0048395   0.0212956
    3  -0.0190538   0.0947374   0.0062460  -0.0185646   0.0240318   0.0082715
          187         188         189         190         191         192
    1  -0.0073452  -0.0035339  -0.0045026  -0.0377353   0.0141033   0.0997244
    2  -0.0061012  -0.0054048   0.0023819  -0.0041177  -0.0273093  -0.0090637
    3  -0.0593246   0.0043178   0.0313831  -0.0011620  -0.0064608   0.0432795
          193         194         195         196         197         198
    1   0.0081293   0.0016770   0.0286922  -0.0196742  -0.0119135  -0.0026581
    2  -0.0041182   0.0180993  -0.0300444  -0.0213536  -0.0312922   0.0059400
    3  -0.0081375  -0.0258158  -0.0055144   0.0058912   0.0471990  -0.0018360
          199         200         201         202         203         204
    1  -0.0283693   0.0083270  -0.0178357   0.0598506  -0.0117486  -0.0148057
    2   0.0181304   0.0210427  -0.0189540   0.0920080   0.0011036   0.0267305
    3   0.0171210  -0.0203664  -0.0153428  -0.0007530   0.0063625   0.0107175
          205         206         207         208         209         210
    1  -0.0237525   0.0031434   0.0143779   0.0057175  -0.0019949   0.0038601
    2  -0.0052048  -0.0300214  -0.0486727   0.0017316   0.0205960  -0.0283123
    3  -0.0103596   0.0117411  -0.0377600   0.0056928   0.0215276   0.0165073
          211         212         213         214         215         216
    1   0.0290525  -0.0226314   0.0016193  -0.0174183   0.0314829  -0.0128543
    2   0.0196238   0.0998457   0.0071424   0.0011725   0.0138655   0.0232123
    3  -0.0016324  -0.0366876   0.0011205   0.0279071  -0.0025192  -0.0154806
          217         218         219         220         221         222
    1  -0.0327476   0.0074684   0.0292289  -0.0055364   0.0141201   0.0819900
    2  -0.0301221  -0.0006070   0.0252670   0.0043763  -0.0314265   0.0346558
    3  -0.0045892   0.0071859  -0.0091170   0.0335684   0.0118468  -0.0660049
          223         224         225         226         227         228
    1  -0.0018175  -0.0023989   0.0115080  -0.0289702   0.0018756  -0.0047845
    2   0.0055702  -0.0036915   0.0245145   0.0065093   0.0123169  -0.0058108
    3   0.0091331   0.0349937  -0.0003479  -0.0119551  -0.0579112   0.0012984
          229         230         231         232         233         234
    1  -0.0088397  -0.0278887   0.0073097   0.0844254  -0.0016021   0.0024577
    2  -0.0064529   0.0031614  -0.0302214  -0.0371309  -0.0105117  -0.0241146
    3   0.0301362  -0.0192262  -0.0022998   0.0594246   0.0081122  -0.0222656
          235         236         237         238         239         240
    1   0.0298583  -0.0171846   0.0372154  -0.0077200  -0.0335572   0.0085618
    2  -0.0121007  -0.0175177   0.0199027   0.0011762  -0.0046165  -0.0037304
    3   0.0145593   0.0267097  -0.0358958   0.0055700   0.0078332   0.0224076
          241         242         243         244         245         246
    1  -0.0168751  -0.1018894   0.0059187   0.0206858  -0.0032705   0.0141029
    2   0.0344943  -0.0271444   0.0002627   0.0106877  -0.0296792   0.0202216
    3  -0.0103497  -0.0375093  -0.0070979   0.0241774  -0.0169433  -0.0260061
          247         248         249         250         251         252
    1  -0.0182125  -0.0022921  -0.0274276   0.0112056  -0.0158369   0.0115137
    2  -0.0421375  -0.0004869  -0.0041806   0.0268980  -0.0246177   0.1043888
    3   0.0380247  -0.0089512   0.0075494  -0.0167905  -0.0247030   0.0349221
          253         254         255         256         257         258
    1   0.0011414   0.0116881   0.0240312  -0.0268302  -0.0147790  -0.0037856
    2   0.0086953  -0.0005929   0.0224934   0.0229508  -0.0024372  -0.0034261
    3  -0.0007838   0.0275124  -0.0104567  -0.0057920  -0.0519394   0.0022457
          259         260         261         262         263         264
    1  -0.0097705  -0.0008119  -0.0274592   0.0902647  -0.0008974  -0.0249089
    2  -0.0302639   0.0047123   0.0168666  -0.0391570   0.0026223   0.0121821
    3   0.0138536   0.0309415  -0.0041197   0.0481875   0.0117448   0.0103582
          265         266         267         268         269         270
    1   0.0141081   0.0196225  -0.0141067  -0.0038787  -0.0255573  -0.0087699
    2  -0.0272594   0.0288405   0.0481440  -0.0086465   0.0091532  -0.0052870
    3   0.0121654  -0.0024804  -0.0328778   0.0024347   0.0185875  -0.0284714
          271         272         273         274         275         276
    1   0.0147389   0.0917302   0.0034474   0.0323086  -0.0015076   0.0013617
    2  -0.0287078  -0.0572857  -0.0008380   0.0006706  -0.0256010  -0.0100911
    3   0.0083995  -0.0172034  -0.0009458   0.0156261   0.0227258  -0.0277021
          277         278         279         280         281         282
    1  -0.0056329  -0.0087167  -0.0179936  -0.0287172   0.0028002   0.0308225
    2   0.0237040  -0.0052445  -0.0130075   0.0119570  -0.0068748   0.0498934
    3   0.0477199  -0.0042954   0.0289404  -0.0069513  -0.0325946  -0.0939643
  --- DONE ESP SUMMARY ---
 Total job time:  30.97s(wall), 72.72s(cpu) 
 Thu Jul 21 17:20:45 2022

        *************************************************************
        *                                                           *
        *  Thank you very much for using Q-Chem.  Have a nice day.  *
        *                                                           *
        *************************************************************


