                  Welcome to Q-Chem
     A Quantum Leap Into The Future Of Chemistry


 Q-Chem 5.2 (devel), Q-Chem, Inc., Pleasanton, CA (2019)

 Yihan Shao,  Zhengting Gan,  E. Epifanovsky,  A. T. B. Gilbert,  M. Wormit,  
 J. Kussmann,  A. W. Lange,  A. Behn,  Jia Deng,  Xintian Feng,  D. Ghosh,  
 M. Goldey,  P. R. Horn,  L. D. Jacobson,  I. Kaliman,  T. Kus,  A. Landau,  
 Jie Liu,  E. I. Proynov,  R. M. Richard,  R. P. Steele,  E. J. Sundstrom,  
 H. L. Woodcock III,  P. M. Zimmerman,  D. Zuev,  B. Alam,  B. Albrecht,  
 E. Alguire,  S. A. Baeppler,  D. Barton,  Z. Benda,  Y. A. Bernard,  
 E. J. Berquist,  K. B. Bravaya,  H. Burton,  K. Carter-Fenk,  D. Casanova,  
 Chun-Min Chang,  Yunqing Chen,  A. Chien,  K. D. Closser,  M. P. Coons,  
 S. Coriani,  S. Dasgupta,  A. L. Dempwolff,  M. Diedenhofen,  Hainam Do,  
 R. G. Edgar,  Po-Tung Fang,  S. Faraji,  S. Fatehi,  Qingguo Feng,  
 J. Fosso-Tande,  J. Gayvert,  Qinghui Ge,  A. Ghysels,  G. Gidofalvi,  
 J. Gomes,  J. Gonthier,  A. Gunina,  D. Hait,  M. W. D. Hanson-Heine,  
 P. H. P. Harbach,  A. W. Hauser,  M. F. Herbst,  J. E. Herr,  
 E. G. Hohenstein,  Z. C. Holden,  Kerwin Hui,  B. C. Huynh,  T.-C. Jagau,  
 Hyunjun Ji,  B. Kaduk,  K. Khistyaev,  Jaehoon Kim,  P. Klunzinger,  K. Koh,  
 D. Kosenkov,  L. Koulias,  T. Kowalczyk,  C. M. Krauter,  A. Kunitsa,  
 Ka Un Lao,  A. Laurent,  K. V. Lawler,  Joonho Lee,  D. Lefrancois,  
 S. Lehtola,  D. S. Levine,  Yi-Pei Li,  You-Sheng Lin,  Fenglai Liu,  
 Kuan-Yu Liu,  E. Livshits,  M. Loipersberger,  A. Luenser,  P. Manohar,  
 E. Mansoor,  S. F. Manzer,  Shan-Ping Mao,  Yuezhi Mao,  N. Mardirossian,  
 A. V. Marenich,  T. Markovich,  L. A. Martinez-Martinez,  S. A. Maurer,  
 N. J. Mayhall,  S. C. McKenzie,  J.-M. Mewes,  P. Morgante,  A. F. Morrison,  
 J. W. Mullinax,  K. Nanda,  T. S. Nguyen-Beck,  R. Olivares-Amaya,  
 J. A. Parkhill,  S. K. Paul,  F. Pavosevic,  Zheng Pei,  T. M. Perrine,  
 F. Plasser,  P. Pokhilko,  S. Prager,  A. Prociuk,  E. Ramos,  B. Rana,  
 D. R. Rehn,  F. Rob,  M. Scheurer,  M. Schneider,  N. Sergueev,  
 S. M. Sharada,  S. Sharma,  D. W. Small,  T. Stauch,  C. J. Stein,  
 T. Stein,  Yu-Chuan Su,  S. P. Veccham,  Zhen Tao,  A. J. W. Thom,  
 A. Tkatchenko,  T. Tsuchimochi,  N. M. Tubman,  L. Vogt,  M. L. Vidal,  
 O. Vydrov,  M. A. Watson,  J. Wenzel,  M. de Wergifosse,  T. A. Wesolowski,  
 A. White,  J. Witte,  A. Yamada,  Jun Yang,  K. Yao,  S. Yeganeh,  
 S. R. Yost,  Zhi-Qiang You,  A. Zech,  Igor Ying Zhang,  Xing Zhang,  
 Yan Zhao,  Ying Zhu,  B. R. Brooks,  G. K. L. Chan,  C. J. Cramer,  
 M. S. Gordon,  W. J. Hehre,  A. Klamt,  M. W. Schmidt,  C. D. Sherrill,  
 D. G. Truhlar,  A. Aspuru-Guzik,  R. Baer,  A. T. Bell,  N. A. Besley,  
 Jeng-Da Chai,  A. E. DePrince, III,  R. A. DiStasio Jr.,  A. Dreuw,  
 B. D. Dunietz,  T. R. Furlani,  Chao-Ping Hsu,  Yousung Jung,  Jing Kong,  
 D. S. Lambrecht,  WanZhen Liang,  C. Ochsenfeld,  V. A. Rassolov,  
 L. V. Slipchenko,  J. E. Subotnik,  T. Van Voorhis,  J. M. Herbert,  
 A. I. Krylov,  P. M. W. Gill,  M. Head-Gordon

 Contributors to earlier versions of Q-Chem not listed above: 
 R. D. Adamson,  B. Austin,  J. Baker,  G. J. O. Beran,  K. Brandhorst,  
 S. T. Brown,  E. F. C. Byrd,  A. K. Chakraborty,  C.-L. Cheng,  
 Siu Hung Chien,  D. M. Chipman,  D. L. Crittenden,  H. Dachsel,  
 R. J. Doerksen,  A. D. Dutoi,  L. Fusti-Molnar,  W. A. Goddard III,  
 A. Golubeva-Zadorozhnaya,  S. R. Gwaltney,  G. Hawkins,  A. Heyden,  
 S. Hirata,  G. Kedziora,  F. J. Keil,  C. Kelley,  Jihan Kim,  R. A. King,  
 R. Z. Khaliullin,  P. P. Korambath,  W. Kurlancheek,  A. M. Lee,  M. S. Lee,  
 S. V. Levchenko,  Ching Yeh Lin,  D. Liotard,  R. C. Lochan,  I. Lotan,  
 P. E. Maslen,  N. Nair,  D. P. O'Neill,  D. Neuhauser,  E. Neuscamman,  
 C. M. Oana,  R. Olson,  B. Peters,  R. Peverati,  P. A. Pieniazek,  
 Y. M. Rhee,  J. Ritchie,  M. A. Rohrdanz,  E. Rosta,  N. J. Russ,  
 H. F. Schaefer III,  N. E. Schultz,  N. Shenvi,  A. C. Simmonett,  A. Sodt,  
 D. Stuck,  K. S. Thanthiriwatte,  V. Vanovschi,  Tao Wang,  A. Warshel,  
 C. F. Williams,  Q. Wu,  X. Xu,  W. Zhang

 Please cite Q-Chem as follows:
 Y. Shao et al., Mol. Phys. 113, 184-215 (2015)
 DOI: 10.1080/00268976.2014.952696

 Q-Chem 5.2.2 for Intel X86 EM64T Linux

 Parts of Q-Chem use Armadillo 9.800.1 (Horizon Scraper).
 http://arma.sourceforge.net/

 Q-Chem begins on Thu Mar 11 13:37:48 2021  

Host: n0096.mhg0
0

     Scratch files written to /local/scratch/users/ymao/r7.00_frame_0012_almo_B3LYP_dp.in20210311133743//

Checking the input file for inconsistencies... 	...done.

--------------------------------------------------------------
User input:
--------------------------------------------------------------
$molecule
0 1
--
0 1
C    22.16000   19.13600   30.58000  
C    23.05300   18.01000   31.12600  
C    23.96100   17.57000   29.96600  
C    24.75400   18.68500   29.26400  
C    23.78300   19.76100   28.75000  
C    22.93800   20.28700   29.92200  
H    24.63100   16.74900   30.24800  
H    23.62300   18.51700   31.91400  
H    21.37300   18.76300   29.91200  
H    21.66200   19.57700   31.45200  
H    25.51900   19.05900   29.95500  
H    25.28100   18.19100   28.43900  
H    24.35300   20.55600   28.25300  
H    23.12600   19.37900   27.96000  
H    23.55800   20.76200   30.69100  
H    22.24300   21.03800   29.52500  
H    23.23100   17.16600   29.25400  
N    22.29300   16.90300   31.70600  
H    21.38600   16.65600   31.32900  
C    22.74900   15.95600   32.59900  
H    22.10000   15.06300   32.64600  
O    23.82800   16.11600   33.13900  
--
0 1
C    23.73400   24.36400   30.20300  
H    24.77900   24.26600   29.89900  
H    23.53800   23.79500   31.11500  
H    23.07400   24.16700   29.35300  
S    23.64700   26.06700   30.80200  
C    24.09000   26.74400   29.18600  
H    24.97100   26.24900   28.77000  
H    23.21100   26.78600   28.53800  
H    24.39200   27.76000   29.45400  
O    24.87400   26.36500   31.60500  
C    19.37900   18.31700   27.45100  
H    19.74100   18.39400   26.42300  
H    20.14200   17.94500   28.13900  
H    18.52700   17.63900   27.35500  
S    18.83900   19.99000   27.87100  
C    18.13200   19.64000   29.49700  
H    17.36000   18.87200   29.40900  
H    18.93300   19.21800   30.10800  
H    17.78900   20.60600   29.87700  
O    17.69900   20.35300   26.97200  
C    28.27900   15.07400   31.73100  
H    27.46000   15.59100   31.22400  
H    28.88600   15.81700   32.25500  
H    28.83400   14.44300   31.03100  
S    27.25600   14.12800   32.88200  
C    26.83000   15.59500   33.84800  
H    27.74700   16.03400   34.24700  
H    26.14400   16.22700   33.27700  
H    26.24000   15.21700   34.68700  
O    28.28000   13.39400   33.68900  
C    23.62900   8.66400    29.83900  
H    24.29400   8.03800    29.23800  
H    24.11500   8.83800    30.80200  
H    22.62600   8.23200    29.89600  
S    23.53400   10.31000   29.09800  
C    23.85300   9.92000    27.36300  
H    24.11500   10.86300   26.87600  
H    24.75400   9.31800    27.21800  
H    22.99700   9.40300    26.92200  
O    24.79200   10.94000   29.60800  
C    29.21300   17.59200   27.15700  
H    28.85800   17.98800   26.20200  
H    29.94200   18.31000   27.54100  
H    29.63100   16.58700   27.06300  
S    27.98000   17.72100   28.47200  
C    29.18700   17.59200   29.81100  
H    29.93900   18.38500   29.80000  
H    28.60800   17.61500   30.73800  
H    29.65100   16.60700   29.71000  
O    27.34800   16.36400   28.45700  
C    18.41200   13.18100   35.32700  
H    18.47900   13.27800   34.24000  
H    18.39900   14.08600   35.93900  
H    19.25300   12.54700   35.61800  
S    16.96400   12.11700   35.51700  
C    15.86000   13.36200   36.22300  
H    15.64900   13.99100   35.35500  
H    14.93000   12.89800   36.56200  
H    16.42900   13.99800   36.90500  
O    17.34700   11.41100   36.78000  
C    21.76000   8.28800    33.21800  
H    21.75000   7.48800    32.47400  
H    22.56100   9.01200    33.05200  
H    21.81300   7.92900    34.24900  
S    20.22800   9.18400    32.87800  
C    20.52800   9.46700    31.11800  
H    21.51600   9.92000    31.01000  
H    20.33700   8.61700    30.45800  
H    19.87500   10.29100   30.81900  
O    20.33000   10.54400   33.49500  
C    17.83000   23.63300   34.88100  
H    17.30000   23.33100   33.97400  
H    17.30000   24.52200   35.23400  
H    18.87100   23.95600   34.79800  
S    17.70500   22.32400   36.12100  
C    18.25100   23.20500   37.60100  
H    19.33800   23.30000   37.54000  
H    17.81300   24.20500   37.56000  
H    17.93200   22.73800   38.53600  
O    18.74900   21.29100   35.83500  
C    16.99700   10.82800   32.02700  
H    16.10000   11.12700   32.57700  
H    16.95700   9.75000    31.85400  
H    17.98000   10.99400   32.47500  
S    16.90100   11.55800   30.37600  
C    15.30900   10.88300   29.85400  
H    14.56300   11.16000   30.60400  
H    15.00100   11.35700   28.91900  
H    15.33300   9.79500    29.96200  
O    17.97200   10.85500   29.60200  
C    24.13000   15.07800   27.07300  
H    24.76400   15.67300   27.73500  
H    24.47600   14.09600   26.74200  
H    23.94200   15.76600   26.24500  
S    22.53300   14.83500   27.88300  
C    23.26400   13.92000   29.25900  
H    22.50900   13.67400   30.01000  
H    23.65700   13.02800   28.76200  
H    24.05000   14.53300   29.70800  
O    21.84000   13.75800   27.10900  
C    25.99500   22.14600   32.60900  
H    26.54900   21.88000   31.70500  
H    25.38700   21.31600   32.97800  
H    25.33700   23.01200   32.49900  
S    27.24800   22.49500   33.86400  
C    28.15800   20.93800   33.74800  
H    27.53000   20.05200   33.86600  
H    28.49600   20.86500   32.71100  
H    28.99700   20.87600   34.44500  
O    26.52100   22.51300   35.17200  
C    23.25700   22.74700   35.59900  
H    23.66400   23.54400   36.22500  
H    23.21300   21.78100   36.10800  
H    23.80400   22.71500   34.65300  
S    21.54300   23.19600   35.24300  
C    21.34200   21.89700   34.00400  
H    21.26000   20.95500   34.55100  
H    20.42200   22.08500   33.44300  
H    22.14100   21.97500   33.26200  
O    21.64600   24.41900   34.38700  
C    28.88500   13.82700   26.88600  
H    28.91000   14.36100   27.83900  
H    29.63100   13.02800   26.84900  
H    28.85400   14.59100   26.10400  
S    27.22400   13.12000   26.81800  
C    27.56600   11.73500   27.92700  
H    26.97900   10.92500   27.48600  
H    28.64000   11.57600   28.04800  
H    26.96000   12.01900   28.79100  
O    27.27900   12.59000   25.41900  
C    30.02500   17.08500   38.76300  
H    29.78600   16.17400   39.31700  
H    31.08600   16.92000   38.55600  
H    29.91900   17.98600   39.37300  
S    29.05200   16.93600   37.24700  
C    29.24200   18.70600   36.93800  
H    28.52100   19.01300   36.17600  
H    29.19200   19.28600   37.86300  
H    30.28400   18.80100   36.62300  
O    27.57900   16.95200   37.51500  
C    25.53800   13.00800   38.60200  
H    25.01200   13.35600   39.49500  
H    24.90200   13.16800   37.72800  
H    25.80900   11.95000   38.64900  
S    27.11200   13.89100   38.51700  
C    27.74600   13.18600   36.97800  
H    28.79300   13.46800   36.84000  
H    27.43700   12.13800   36.96900  
H    27.26500   13.65200   36.11400  
O    27.96500   13.17700   39.52000  
C    24.48800   11.95800   33.28000  
H    25.53500   11.77000   33.53000  
H    24.36600   11.41300   32.34100  
H    24.22900   13.01400   33.16400  
S    23.73400   11.09800   34.67900  
C    22.39200   12.30800   34.69300  
H    22.14300   12.49300   33.64500  
H    21.54400   11.89700   35.24700  
H    22.75900   13.20200   35.20300  
O    24.72700   11.46200   35.73800  
C    19.89500   24.32600   31.24400  
H    20.49300   24.34800   32.15800  
H    19.93300   25.25300   30.66500  
H    18.86800   24.10300   31.54400  
S    20.25800   22.94100   30.14100  
C    18.78600   23.25900   29.14300  
H    18.78100   24.34100   28.98600  
H    18.89000   22.77300   28.16900  
H    17.89600   22.99300   29.71800  
O    19.93500   21.78500   31.03500  
C    21.35000   15.53200   38.66300  
H    20.44600   15.50400   39.27600  
H    22.18300   16.10600   39.07600  
H    21.09700   15.83800   37.64400  
S    22.14800   13.91300   38.76000  
C    20.67700   13.03700   38.18300  
H    20.54700   13.31100   37.13300  
H    20.87200   11.96200   38.14800  
H    19.88800   13.29600   38.89500  
O    22.17500   13.45100   40.18300  
C    17.98600   20.10000   32.90600  
H    18.04300   21.08000   32.42500  
H    18.12600   20.19200   33.98600  
H    18.85300   19.58300   32.48600  
S    16.48900   19.25600   32.34700  
C    15.48200   20.63300   32.94100  
H    15.82100   21.63100   32.65000  
H    14.42700   20.49100   32.69200  
H    15.57400   20.49200   34.02100  
O    16.44500   18.21800   33.42600  
C    18.88400   16.25700   33.37100  
H    18.31900   17.11800   33.00500  
H    19.75100   15.99300   32.76000  
H    18.19000   15.42700   33.52100  
S    19.45800   16.69400   35.02800  
C    20.44000   18.15700   34.62700  
H    21.25900   18.15800   35.35200  
H    20.86900   18.08200   33.62500  
H    19.85600   19.08000   34.59500  
O    20.54500   15.67400   35.17300  
C    22.91000   24.72000   24.79300  
H    22.35900   24.02700   24.15200  
H    22.31300   25.50000   25.27200  
H    23.69900   25.27200   24.27600  
S    23.64700   23.53800   25.94400  
C    22.20000   23.40400   27.01700  
H    21.29400   23.06400   26.50800  
H    22.42500   22.68200   27.80700  
H    22.02700   24.41000   27.40900  
O    24.60000   24.42700   26.68000  
C    18.90000   14.58500   26.32900  
H    19.50400   15.43100   26.66600  
H    17.99600   14.61100   26.94200  
H    19.47000   13.65300   26.29400  
S    18.50600   14.89000   24.59200  
C    20.19300   15.22600   24.03800  
H    20.80600   15.59300   24.86500  
H    20.44000   14.24500   23.62300  
H    20.15500   15.99100   23.25900  
O    18.00500   16.29800   24.67900  
C    24.71600   19.31000   35.20600  
H    25.53800   18.85900   34.64600  
H    23.72700   19.15800   34.76400  
H    24.84100   20.35600   35.50000  
S    24.44700   18.50700   36.80300  
C    23.89800   16.85200   36.33100  
H    22.93800   17.02600   35.83800  
H    24.55800   16.38500   35.59400  
H    23.87200   16.24800   37.24100  
O    23.13700   19.12700   37.17700  
C    22.27200   18.33900   23.76300  
H    22.54400   18.37600   22.70500  
H    23.01300   17.71500   24.26900  
H    21.26900   17.96800   23.98700  
S    22.41600   19.96600   24.53600  
C    24.17900   19.92900   24.92800  
H    24.36000   19.41700   25.87700  
H    24.80100   19.44600   24.17000  
H    24.53900   20.95000   25.07800  
O    21.77500   20.01700   25.88800  
C    20.57100   27.14800   26.16900  
H    20.12000   26.28900   25.66500  
H    19.99200   27.99200   25.78500  
H    21.66200   27.20800   26.17000  
S    19.95800   27.03600   27.86500  
C    20.93200   28.46200   28.39700  
H    20.54500   29.41800   28.03600  
H    20.94600   28.54800   29.48600  
H    21.98600   28.29600   28.16000  
O    20.71500   25.92600   28.52500  
C    29.39600   21.19000   26.75900  
H    29.78300   22.21100   26.78800  
H    29.29300   20.70100   27.73200  
H    30.11600   20.58700   26.20100  
S    27.79000   21.57300   26.02400  
C    27.01200   22.00100   27.59700  
H    27.65100   22.74200   28.08400  
H    26.03400   22.44200   27.38800  
H    26.94400   21.12100   28.24100  
O    27.30600   20.17800   25.78200  
C    26.75500   17.43200   24.65800  
H    27.64100   18.06800   24.58600  
H    26.02800   17.83200   23.94700  
H    26.33000   17.52100   25.66100  
S    27.08800   15.73000   24.15200  
C    28.28500   16.05300   22.83700  
H    29.16300   16.49800   23.31200  
H    28.58200   15.11600   22.35900  
H    27.90800   16.76100   22.09400  
O    25.88900   15.36900   23.33200  
C    17.81300   15.05100   29.47800  
H    17.29600   14.16900   29.09100  
H    17.48800   15.40500   30.46000  
H    17.69300   15.93000   28.83900  
S    19.56500   14.62800   29.60100  
C    19.60200   13.58900   31.07900  
H    20.63500   13.49400   31.42400  
H    18.97100   13.92500   31.90500  
H    19.31500   12.57900   30.77300  
O    20.09700   15.93100   30.11100  
C    31.51100   22.16300   29.51900  
H    31.31600   23.18100   29.17300  
H    32.56700   22.06200   29.78300  
H    31.36000   21.44500   28.70900  
S    30.37000   21.82100   30.87800  
C    31.26100   20.32000   31.34400  
H    32.08400   20.71800   31.94300  
H    30.49600   19.74500   31.87100  
H    31.54600   19.78000   30.43800  
O    29.06900   21.38900   30.27700  
$end

$rem
JOBTYPE  SP
METHOD  B3LYP
BASIS  6-31+G(D)
SYMMETRY  FALSE
SYM_IGNORE  TRUE
MEM_TOTAL  16000
MEM_STATIC  8000
MAX_SUB_FILE_NUM  16000
BASIS_LIN_DEP_THRESH  6
THRESH  14
SCF_CONVERGENCE  8
GEN_SCFMAN  TRUE
SCF_GUESS  FRAGMO
FD_MAT_VEC_PROD  FALSE
XC_GRID  000075000302
NL_GRID  1
MAX_SCF_CYCLES  200
FRGM_METHOD  STOLL
SCFMI_MODE  1
$end

$development
almo_efield  1
$end

$rem_frgm
SCF_CONVERGENCE  4
$end

--------------------------------------------------------------
 ----------------------------------------------------------------
             Standard Nuclear Orientation (Angstroms)
    I     Atom           X                Y                Z
 ----------------------------------------------------------------
    1      C      22.1600000000    19.1360000000    30.5800000000
    2      C      23.0530000000    18.0100000000    31.1260000000
    3      C      23.9610000000    17.5700000000    29.9660000000
    4      C      24.7540000000    18.6850000000    29.2640000000
    5      C      23.7830000000    19.7610000000    28.7500000000
    6      C      22.9380000000    20.2870000000    29.9220000000
    7      H      24.6310000000    16.7490000000    30.2480000000
    8      H      23.6230000000    18.5170000000    31.9140000000
    9      H      21.3730000000    18.7630000000    29.9120000000
   10      H      21.6620000000    19.5770000000    31.4520000000
   11      H      25.5190000000    19.0590000000    29.9550000000
   12      H      25.2810000000    18.1910000000    28.4390000000
   13      H      24.3530000000    20.5560000000    28.2530000000
   14      H      23.1260000000    19.3790000000    27.9600000000
   15      H      23.5580000000    20.7620000000    30.6910000000
   16      H      22.2430000000    21.0380000000    29.5250000000
   17      H      23.2310000000    17.1660000000    29.2540000000
   18      N      22.2930000000    16.9030000000    31.7060000000
   19      H      21.3860000000    16.6560000000    31.3290000000
   20      C      22.7490000000    15.9560000000    32.5990000000
   21      H      22.1000000000    15.0630000000    32.6460000000
   22      O      23.8280000000    16.1160000000    33.1390000000
   23      C      23.7340000000    24.3640000000    30.2030000000
   24      H      24.7790000000    24.2660000000    29.8990000000
   25      H      23.5380000000    23.7950000000    31.1150000000
   26      H      23.0740000000    24.1670000000    29.3530000000
   27      S      23.6470000000    26.0670000000    30.8020000000
   28      C      24.0900000000    26.7440000000    29.1860000000
   29      H      24.9710000000    26.2490000000    28.7700000000
   30      H      23.2110000000    26.7860000000    28.5380000000
   31      H      24.3920000000    27.7600000000    29.4540000000
   32      O      24.8740000000    26.3650000000    31.6050000000
   33      C      19.3790000000    18.3170000000    27.4510000000
   34      H      19.7410000000    18.3940000000    26.4230000000
   35      H      20.1420000000    17.9450000000    28.1390000000
   36      H      18.5270000000    17.6390000000    27.3550000000
   37      S      18.8390000000    19.9900000000    27.8710000000
   38      C      18.1320000000    19.6400000000    29.4970000000
   39      H      17.3600000000    18.8720000000    29.4090000000
   40      H      18.9330000000    19.2180000000    30.1080000000
   41      H      17.7890000000    20.6060000000    29.8770000000
   42      O      17.6990000000    20.3530000000    26.9720000000
   43      C      28.2790000000    15.0740000000    31.7310000000
   44      H      27.4600000000    15.5910000000    31.2240000000
   45      H      28.8860000000    15.8170000000    32.2550000000
   46      H      28.8340000000    14.4430000000    31.0310000000
   47      S      27.2560000000    14.1280000000    32.8820000000
   48      C      26.8300000000    15.5950000000    33.8480000000
   49      H      27.7470000000    16.0340000000    34.2470000000
   50      H      26.1440000000    16.2270000000    33.2770000000
   51      H      26.2400000000    15.2170000000    34.6870000000
   52      O      28.2800000000    13.3940000000    33.6890000000
   53      C      23.6290000000     8.6640000000    29.8390000000
   54      H      24.2940000000     8.0380000000    29.2380000000
   55      H      24.1150000000     8.8380000000    30.8020000000
   56      H      22.6260000000     8.2320000000    29.8960000000
   57      S      23.5340000000    10.3100000000    29.0980000000
   58      C      23.8530000000     9.9200000000    27.3630000000
   59      H      24.1150000000    10.8630000000    26.8760000000
   60      H      24.7540000000     9.3180000000    27.2180000000
   61      H      22.9970000000     9.4030000000    26.9220000000
   62      O      24.7920000000    10.9400000000    29.6080000000
   63      C      29.2130000000    17.5920000000    27.1570000000
   64      H      28.8580000000    17.9880000000    26.2020000000
   65      H      29.9420000000    18.3100000000    27.5410000000
   66      H      29.6310000000    16.5870000000    27.0630000000
   67      S      27.9800000000    17.7210000000    28.4720000000
   68      C      29.1870000000    17.5920000000    29.8110000000
   69      H      29.9390000000    18.3850000000    29.8000000000
   70      H      28.6080000000    17.6150000000    30.7380000000
   71      H      29.6510000000    16.6070000000    29.7100000000
   72      O      27.3480000000    16.3640000000    28.4570000000
   73      C      18.4120000000    13.1810000000    35.3270000000
   74      H      18.4790000000    13.2780000000    34.2400000000
   75      H      18.3990000000    14.0860000000    35.9390000000
   76      H      19.2530000000    12.5470000000    35.6180000000
   77      S      16.9640000000    12.1170000000    35.5170000000
   78      C      15.8600000000    13.3620000000    36.2230000000
   79      H      15.6490000000    13.9910000000    35.3550000000
   80      H      14.9300000000    12.8980000000    36.5620000000
   81      H      16.4290000000    13.9980000000    36.9050000000
   82      O      17.3470000000    11.4110000000    36.7800000000
   83      C      21.7600000000     8.2880000000    33.2180000000
   84      H      21.7500000000     7.4880000000    32.4740000000
   85      H      22.5610000000     9.0120000000    33.0520000000
   86      H      21.8130000000     7.9290000000    34.2490000000
   87      S      20.2280000000     9.1840000000    32.8780000000
   88      C      20.5280000000     9.4670000000    31.1180000000
   89      H      21.5160000000     9.9200000000    31.0100000000
   90      H      20.3370000000     8.6170000000    30.4580000000
   91      H      19.8750000000    10.2910000000    30.8190000000
   92      O      20.3300000000    10.5440000000    33.4950000000
   93      C      17.8300000000    23.6330000000    34.8810000000
   94      H      17.3000000000    23.3310000000    33.9740000000
   95      H      17.3000000000    24.5220000000    35.2340000000
   96      H      18.8710000000    23.9560000000    34.7980000000
   97      S      17.7050000000    22.3240000000    36.1210000000
   98      C      18.2510000000    23.2050000000    37.6010000000
   99      H      19.3380000000    23.3000000000    37.5400000000
  100      H      17.8130000000    24.2050000000    37.5600000000
  101      H      17.9320000000    22.7380000000    38.5360000000
  102      O      18.7490000000    21.2910000000    35.8350000000
  103      C      16.9970000000    10.8280000000    32.0270000000
  104      H      16.1000000000    11.1270000000    32.5770000000
  105      H      16.9570000000     9.7500000000    31.8540000000
  106      H      17.9800000000    10.9940000000    32.4750000000
  107      S      16.9010000000    11.5580000000    30.3760000000
  108      C      15.3090000000    10.8830000000    29.8540000000
  109      H      14.5630000000    11.1600000000    30.6040000000
  110      H      15.0010000000    11.3570000000    28.9190000000
  111      H      15.3330000000     9.7950000000    29.9620000000
  112      O      17.9720000000    10.8550000000    29.6020000000
  113      C      24.1300000000    15.0780000000    27.0730000000
  114      H      24.7640000000    15.6730000000    27.7350000000
  115      H      24.4760000000    14.0960000000    26.7420000000
  116      H      23.9420000000    15.7660000000    26.2450000000
  117      S      22.5330000000    14.8350000000    27.8830000000
  118      C      23.2640000000    13.9200000000    29.2590000000
  119      H      22.5090000000    13.6740000000    30.0100000000
  120      H      23.6570000000    13.0280000000    28.7620000000
  121      H      24.0500000000    14.5330000000    29.7080000000
  122      O      21.8400000000    13.7580000000    27.1090000000
  123      C      25.9950000000    22.1460000000    32.6090000000
  124      H      26.5490000000    21.8800000000    31.7050000000
  125      H      25.3870000000    21.3160000000    32.9780000000
  126      H      25.3370000000    23.0120000000    32.4990000000
  127      S      27.2480000000    22.4950000000    33.8640000000
  128      C      28.1580000000    20.9380000000    33.7480000000
  129      H      27.5300000000    20.0520000000    33.8660000000
  130      H      28.4960000000    20.8650000000    32.7110000000
  131      H      28.9970000000    20.8760000000    34.4450000000
  132      O      26.5210000000    22.5130000000    35.1720000000
  133      C      23.2570000000    22.7470000000    35.5990000000
  134      H      23.6640000000    23.5440000000    36.2250000000
  135      H      23.2130000000    21.7810000000    36.1080000000
  136      H      23.8040000000    22.7150000000    34.6530000000
  137      S      21.5430000000    23.1960000000    35.2430000000
  138      C      21.3420000000    21.8970000000    34.0040000000
  139      H      21.2600000000    20.9550000000    34.5510000000
  140      H      20.4220000000    22.0850000000    33.4430000000
  141      H      22.1410000000    21.9750000000    33.2620000000
  142      O      21.6460000000    24.4190000000    34.3870000000
  143      C      28.8850000000    13.8270000000    26.8860000000
  144      H      28.9100000000    14.3610000000    27.8390000000
  145      H      29.6310000000    13.0280000000    26.8490000000
  146      H      28.8540000000    14.5910000000    26.1040000000
  147      S      27.2240000000    13.1200000000    26.8180000000
  148      C      27.5660000000    11.7350000000    27.9270000000
  149      H      26.9790000000    10.9250000000    27.4860000000
  150      H      28.6400000000    11.5760000000    28.0480000000
  151      H      26.9600000000    12.0190000000    28.7910000000
  152      O      27.2790000000    12.5900000000    25.4190000000
  153      C      30.0250000000    17.0850000000    38.7630000000
  154      H      29.7860000000    16.1740000000    39.3170000000
  155      H      31.0860000000    16.9200000000    38.5560000000
  156      H      29.9190000000    17.9860000000    39.3730000000
  157      S      29.0520000000    16.9360000000    37.2470000000
  158      C      29.2420000000    18.7060000000    36.9380000000
  159      H      28.5210000000    19.0130000000    36.1760000000
  160      H      29.1920000000    19.2860000000    37.8630000000
  161      H      30.2840000000    18.8010000000    36.6230000000
  162      O      27.5790000000    16.9520000000    37.5150000000
  163      C      25.5380000000    13.0080000000    38.6020000000
  164      H      25.0120000000    13.3560000000    39.4950000000
  165      H      24.9020000000    13.1680000000    37.7280000000
  166      H      25.8090000000    11.9500000000    38.6490000000
  167      S      27.1120000000    13.8910000000    38.5170000000
  168      C      27.7460000000    13.1860000000    36.9780000000
  169      H      28.7930000000    13.4680000000    36.8400000000
  170      H      27.4370000000    12.1380000000    36.9690000000
  171      H      27.2650000000    13.6520000000    36.1140000000
  172      O      27.9650000000    13.1770000000    39.5200000000
  173      C      24.4880000000    11.9580000000    33.2800000000
  174      H      25.5350000000    11.7700000000    33.5300000000
  175      H      24.3660000000    11.4130000000    32.3410000000
  176      H      24.2290000000    13.0140000000    33.1640000000
  177      S      23.7340000000    11.0980000000    34.6790000000
  178      C      22.3920000000    12.3080000000    34.6930000000
  179      H      22.1430000000    12.4930000000    33.6450000000
  180      H      21.5440000000    11.8970000000    35.2470000000
  181      H      22.7590000000    13.2020000000    35.2030000000
  182      O      24.7270000000    11.4620000000    35.7380000000
  183      C      19.8950000000    24.3260000000    31.2440000000
  184      H      20.4930000000    24.3480000000    32.1580000000
  185      H      19.9330000000    25.2530000000    30.6650000000
  186      H      18.8680000000    24.1030000000    31.5440000000
  187      S      20.2580000000    22.9410000000    30.1410000000
  188      C      18.7860000000    23.2590000000    29.1430000000
  189      H      18.7810000000    24.3410000000    28.9860000000
  190      H      18.8900000000    22.7730000000    28.1690000000
  191      H      17.8960000000    22.9930000000    29.7180000000
  192      O      19.9350000000    21.7850000000    31.0350000000
  193      C      21.3500000000    15.5320000000    38.6630000000
  194      H      20.4460000000    15.5040000000    39.2760000000
  195      H      22.1830000000    16.1060000000    39.0760000000
  196      H      21.0970000000    15.8380000000    37.6440000000
  197      S      22.1480000000    13.9130000000    38.7600000000
  198      C      20.6770000000    13.0370000000    38.1830000000
  199      H      20.5470000000    13.3110000000    37.1330000000
  200      H      20.8720000000    11.9620000000    38.1480000000
  201      H      19.8880000000    13.2960000000    38.8950000000
  202      O      22.1750000000    13.4510000000    40.1830000000
  203      C      17.9860000000    20.1000000000    32.9060000000
  204      H      18.0430000000    21.0800000000    32.4250000000
  205      H      18.1260000000    20.1920000000    33.9860000000
  206      H      18.8530000000    19.5830000000    32.4860000000
  207      S      16.4890000000    19.2560000000    32.3470000000
  208      C      15.4820000000    20.6330000000    32.9410000000
  209      H      15.8210000000    21.6310000000    32.6500000000
  210      H      14.4270000000    20.4910000000    32.6920000000
  211      H      15.5740000000    20.4920000000    34.0210000000
  212      O      16.4450000000    18.2180000000    33.4260000000
  213      C      18.8840000000    16.2570000000    33.3710000000
  214      H      18.3190000000    17.1180000000    33.0050000000
  215      H      19.7510000000    15.9930000000    32.7600000000
  216      H      18.1900000000    15.4270000000    33.5210000000
  217      S      19.4580000000    16.6940000000    35.0280000000
  218      C      20.4400000000    18.1570000000    34.6270000000
  219      H      21.2590000000    18.1580000000    35.3520000000
  220      H      20.8690000000    18.0820000000    33.6250000000
  221      H      19.8560000000    19.0800000000    34.5950000000
  222      O      20.5450000000    15.6740000000    35.1730000000
  223      C      22.9100000000    24.7200000000    24.7930000000
  224      H      22.3590000000    24.0270000000    24.1520000000
  225      H      22.3130000000    25.5000000000    25.2720000000
  226      H      23.6990000000    25.2720000000    24.2760000000
  227      S      23.6470000000    23.5380000000    25.9440000000
  228      C      22.2000000000    23.4040000000    27.0170000000
  229      H      21.2940000000    23.0640000000    26.5080000000
  230      H      22.4250000000    22.6820000000    27.8070000000
  231      H      22.0270000000    24.4100000000    27.4090000000
  232      O      24.6000000000    24.4270000000    26.6800000000
  233      C      18.9000000000    14.5850000000    26.3290000000
  234      H      19.5040000000    15.4310000000    26.6660000000
  235      H      17.9960000000    14.6110000000    26.9420000000
  236      H      19.4700000000    13.6530000000    26.2940000000
  237      S      18.5060000000    14.8900000000    24.5920000000
  238      C      20.1930000000    15.2260000000    24.0380000000
  239      H      20.8060000000    15.5930000000    24.8650000000
  240      H      20.4400000000    14.2450000000    23.6230000000
  241      H      20.1550000000    15.9910000000    23.2590000000
  242      O      18.0050000000    16.2980000000    24.6790000000
  243      C      24.7160000000    19.3100000000    35.2060000000
  244      H      25.5380000000    18.8590000000    34.6460000000
  245      H      23.7270000000    19.1580000000    34.7640000000
  246      H      24.8410000000    20.3560000000    35.5000000000
  247      S      24.4470000000    18.5070000000    36.8030000000
  248      C      23.8980000000    16.8520000000    36.3310000000
  249      H      22.9380000000    17.0260000000    35.8380000000
  250      H      24.5580000000    16.3850000000    35.5940000000
  251      H      23.8720000000    16.2480000000    37.2410000000
  252      O      23.1370000000    19.1270000000    37.1770000000
  253      C      22.2720000000    18.3390000000    23.7630000000
  254      H      22.5440000000    18.3760000000    22.7050000000
  255      H      23.0130000000    17.7150000000    24.2690000000
  256      H      21.2690000000    17.9680000000    23.9870000000
  257      S      22.4160000000    19.9660000000    24.5360000000
  258      C      24.1790000000    19.9290000000    24.9280000000
  259      H      24.3600000000    19.4170000000    25.8770000000
  260      H      24.8010000000    19.4460000000    24.1700000000
  261      H      24.5390000000    20.9500000000    25.0780000000
  262      O      21.7750000000    20.0170000000    25.8880000000
  263      C      20.5710000000    27.1480000000    26.1690000000
  264      H      20.1200000000    26.2890000000    25.6650000000
  265      H      19.9920000000    27.9920000000    25.7850000000
  266      H      21.6620000000    27.2080000000    26.1700000000
  267      S      19.9580000000    27.0360000000    27.8650000000
  268      C      20.9320000000    28.4620000000    28.3970000000
  269      H      20.5450000000    29.4180000000    28.0360000000
  270      H      20.9460000000    28.5480000000    29.4860000000
  271      H      21.9860000000    28.2960000000    28.1600000000
  272      O      20.7150000000    25.9260000000    28.5250000000
  273      C      29.3960000000    21.1900000000    26.7590000000
  274      H      29.7830000000    22.2110000000    26.7880000000
  275      H      29.2930000000    20.7010000000    27.7320000000
  276      H      30.1160000000    20.5870000000    26.2010000000
  277      S      27.7900000000    21.5730000000    26.0240000000
  278      C      27.0120000000    22.0010000000    27.5970000000
  279      H      27.6510000000    22.7420000000    28.0840000000
  280      H      26.0340000000    22.4420000000    27.3880000000
  281      H      26.9440000000    21.1210000000    28.2410000000
  282      O      27.3060000000    20.1780000000    25.7820000000
  283      C      26.7550000000    17.4320000000    24.6580000000
  284      H      27.6410000000    18.0680000000    24.5860000000
  285      H      26.0280000000    17.8320000000    23.9470000000
  286      H      26.3300000000    17.5210000000    25.6610000000
  287      S      27.0880000000    15.7300000000    24.1520000000
  288      C      28.2850000000    16.0530000000    22.8370000000
  289      H      29.1630000000    16.4980000000    23.3120000000
  290      H      28.5820000000    15.1160000000    22.3590000000
  291      H      27.9080000000    16.7610000000    22.0940000000
  292      O      25.8890000000    15.3690000000    23.3320000000
  293      C      17.8130000000    15.0510000000    29.4780000000
  294      H      17.2960000000    14.1690000000    29.0910000000
  295      H      17.4880000000    15.4050000000    30.4600000000
  296      H      17.6930000000    15.9300000000    28.8390000000
  297      S      19.5650000000    14.6280000000    29.6010000000
  298      C      19.6020000000    13.5890000000    31.0790000000
  299      H      20.6350000000    13.4940000000    31.4240000000
  300      H      18.9710000000    13.9250000000    31.9050000000
  301      H      19.3150000000    12.5790000000    30.7730000000
  302      O      20.0970000000    15.9310000000    30.1110000000
  303      C      31.5110000000    22.1630000000    29.5190000000
  304      H      31.3160000000    23.1810000000    29.1730000000
  305      H      32.5670000000    22.0620000000    29.7830000000
  306      H      31.3600000000    21.4450000000    28.7090000000
  307      S      30.3700000000    21.8210000000    30.8780000000
  308      C      31.2610000000    20.3200000000    31.3440000000
  309      H      32.0840000000    20.7180000000    31.9430000000
  310      H      30.4960000000    19.7450000000    31.8710000000
  311      H      31.5460000000    19.7800000000    30.4380000000
  312      O      29.0690000000    21.3890000000    30.2770000000
 ----------------------------------------------------------------
 Nuclear Repulsion Energy =       53826.13265326 hartrees
 There are      644 alpha and      644 beta electrons
 Requested basis set is 6-31+G(d)
 There are 1028 shells and 2865 basis functions

 Total QAlloc Memory Limit  16000 MB
 Mega-Array Size      7821 MB
 MEM_STATIC part      8000 MB
 A cutoff of  1.0D-14 yielded 194512 shell pairs
 There are   1693008 function pairs
 Smallest overlap matrix eigenvalue = 3.30E-07
 Linear dependence detected in AO basis
 Tighter screening thresholds may be required for diffuse basis sets
 Use S2THRESH > 14 and THRESH = 14 in case of SCF convergence issues
 Number of orthogonalized atomic orbitals = 2863
 Maximum deviation from orthogonality = 2.641E-10

 Scale SEOQF with 1.000000e-03/1.000000e-03/1.000000e-03

 Standard Electronic Orientation quadrupole field applied
 Nucleus-field energy     =    -0.0000008112 hartrees
Attempting to make child job directory: /local/scratch/users/ymao/r7.00_frame_0012_almo_B3LYP_dp.in20210311133743//Frg1/
Attempting to make child job directory: /local/scratch/users/ymao/r7.00_frame_0012_almo_B3LYP_dp.in20210311133743//Frg2/
Creating input file /local/scratch/users/ymao/r7.00_frame_0012_almo_B3LYP_dp.in20210311133743/Frg1.input
using default PutDataFrgm: nothing
calling putenv with: QCSCRATCH=/local/scratch/users/ymao/r7.00_frame_0012_almo_B3LYP_dp.in20210311133743/ 
Spawning Job For Fragment 0
Done Job For Fragment 0
calling putenv with: QCSCRATCH=/local/scratch/users/ymao 
calling putenv with: QCTHREADS=8 
Creating input file /local/scratch/users/ymao/r7.00_frame_0012_almo_B3LYP_dp.in20210311133743/Frg2.input
using default PutDataFrgm: nothing
calling putenv with: QCSCRATCH=/local/scratch/users/ymao/r7.00_frame_0012_almo_B3LYP_dp.in20210311133743/ 
Spawning Job For Fragment 1
Done Job For Fragment 1
calling putenv with: QCSCRATCH=/local/scratch/users/ymao 
calling putenv with: QCTHREADS=8 
 Time for running child jobs:  CPU 0.99 s  wall 28979.83 s

 -----------------------------------------------------------------------
  General SCF calculation program by
  Eric Jon Sundstrom, Paul Horn, Yuezhi Mao, Dmitri Zuev, Alec White,
  David Stuck, Shaama M.S., Shane Yost, Joonho Lee, David Small,
  Daniel Levine, Susi Lehtola, Hugh Burton, Evgeny Epifanovsky,
  Bang C. Huynh
 -----------------------------------------------------------------------
Performing Restricted Closed Shell SCFMI
Doing General SCFMI
 Exchange:     0.2000 Hartree-Fock + 0.0800 Slater + 0.7200 B88
 Correlation:  0.1900 VWN1RPA + 0.8100 LYP
 Using Euler-Maclaurin-Lebedev (75,302) quadrature formula
performing fock build before subrot guess so that all methods have access
Printing subrot_rss_gen Method Specification:
Occupied Subspace Method is 0
Virtual Subspace Method is 0
Energy prior to optimization (guess energy) = -16447.033880027695
Begin Timing: Total SCF Calculation
begin iterations for algorithm: DIIS         
the SCF tolerance is set to 1.00e-08
    1  -16447.0338800277      5.87e-05     00000 
    2  -16447.0168364984      1.09e-04     00000 
    3  -16447.0515154689      1.83e-05     00000 
    4  -16447.0525390835      7.47e-06     00000 
    5  -16447.0527415861      3.45e-06     00000 
    6  -16447.0527742227      2.24e-06     00000 
    7  -16447.0527904502      1.21e-06     00000 
    8  -16447.0527958234      7.09e-07     00000 
    9  -16447.0527973738      4.55e-07     00000 
   10  -16447.0527977743      3.37e-07     00000 
   11  -16447.0527980653      1.70e-07     00000 
   12  -16447.0527981512      9.89e-08     00000 
   13  -16447.0527981802      6.29e-08     00000 
   14  -16447.0527981920      4.08e-08     00000 
   15  -16447.0527981965      2.59e-08     00000 
   16  -16447.0527981986      1.19e-08     00000 
   17  -16447.0527981992      8.47e-09     00000 Convergence criterion met
write pseudocanon occs and virts to disk
write pseudocanon orbital energies to disk
Timing for Total SCF: 59844.00s (wall), 473909.46s (cpu)
SCFMI Energy  -16447.0527981992
<S^2>            0.00000
 Total energy in the final basis set =   -16447.0527981992
    ==================================================
        The end of Object-Oriented SCFman: SCFMI      
    ==================================================
 
 --------------------------------------------------------------
 
                    Orbital Energies (a.u.)
 --------------------------------------------------------------
 
 Alpha MOs
 -- Occupied --
-89.0410 -89.0385 -89.0230 -89.0227 -89.0204 -89.0147 -89.0141 -89.0135
-89.0112 -89.0021 -89.0017 -89.0009 -89.0004 -88.9972 -88.9942 -88.9941
-88.9894 -88.9884 -88.9871 -88.9860 -88.9846 -88.9836 -88.9835 -88.9777
-88.9755 -88.9743 -88.9639 -88.9573 -88.9343 -19.1650 -19.1536 -19.1398
-19.1360 -19.1330 -19.1281 -19.1280 -19.1279 -19.1275 -19.1242 -19.1236
-19.1208 -19.1143 -19.1141 -19.1138 -19.1085 -19.1047 -19.1029 -19.1004
-19.0967 -19.0961 -19.0958 -19.0944 -19.0939 -19.0923 -19.0882 -19.0881
-19.0806 -19.0771 -19.0520 -14.3531 -10.2899 -10.2634 -10.2593 -10.2584
-10.2454 -10.2443 -10.2426 -10.2402 -10.2380 -10.2361 -10.2345 -10.2341
-10.2320 -10.2303 -10.2291 -10.2290 -10.2278 -10.2273 -10.2269 -10.2252
-10.2244 -10.2242 -10.2213 -10.2196 -10.2195 -10.2186 -10.2165 -10.2151
-10.2138 -10.2117 -10.2114 -10.2103 -10.2103 -10.2095 -10.2095 -10.2061
-10.2058 -10.2056 -10.2053 -10.2043 -10.2036 -10.2024 -10.2022 -10.2016
-10.2003 -10.2002 -10.1986 -10.1959 -10.1949 -10.1923 -10.1898 -10.1896
-10.1892 -10.1885 -10.1883 -10.1877 -10.1850 -10.1829 -10.1815 -10.1809
-10.1806 -10.1768 -10.1761 -10.1570 -10.1522  -8.0875  -8.0846  -8.0688
 -8.0686  -8.0668  -8.0607  -8.0597  -8.0596  -8.0573  -8.0483  -8.0478
 -8.0464  -8.0464  -8.0428  -8.0399  -8.0398  -8.0354  -8.0351  -8.0327
 -8.0318  -8.0318  -8.0301  -8.0296  -8.0236  -8.0220  -8.0199  -8.0105
 -8.0037  -7.9811  -6.0518  -6.0505  -6.0490  -6.0475  -6.0448  -6.0422
 -6.0332  -6.0331  -6.0319  -6.0315  -6.0313  -6.0300  -6.0262  -6.0261
 -6.0251  -6.0242  -6.0240  -6.0239  -6.0237  -6.0229  -6.0229  -6.0218
 -6.0204  -6.0182  -6.0168  -6.0168  -6.0145  -6.0128  -6.0123  -6.0116
 -6.0111  -6.0109  -6.0106  -6.0097  -6.0093  -6.0073  -6.0057  -6.0053
 -6.0050  -6.0041  -6.0041  -6.0039  -6.0035  -6.0032  -6.0029  -6.0004
 -5.9998  -5.9992  -5.9984  -5.9982  -5.9976  -5.9972  -5.9971  -5.9961
 -5.9960  -5.9958  -5.9949  -5.9947  -5.9943  -5.9938  -5.9932  -5.9929
 -5.9928  -5.9927  -5.9903  -5.9893  -5.9893  -5.9878  -5.9875  -5.9871
 -5.9865  -5.9864  -5.9848  -5.9843  -5.9832  -5.9815  -5.9796  -5.9772
 -5.9747  -5.9737  -5.9679  -5.9676  -5.9668  -5.9613  -5.9454  -5.9442
 -5.9383  -1.0708  -1.0650  -1.0477  -1.0477  -1.0441  -1.0439  -1.0406
 -1.0397  -1.0394  -1.0390  -1.0291  -1.0277  -1.0258  -1.0255  -1.0211
 -1.0184  -1.0128  -1.0124  -1.0116  -1.0105  -1.0074  -1.0069  -1.0058
 -1.0053  -1.0043  -1.0023  -0.9998  -0.9939  -0.9843  -0.9616  -0.9175
 -0.8521  -0.8418  -0.8288  -0.8276  -0.8260  -0.8201  -0.8176  -0.8142
 -0.8121  -0.8099  -0.8079  -0.8072  -0.8067  -0.8016  -0.7993  -0.7968
 -0.7966  -0.7942  -0.7924  -0.7912  -0.7909  -0.7873  -0.7850  -0.7812
 -0.7793  -0.7791  -0.7772  -0.7707  -0.7658  -0.7641  -0.7620  -0.7528
 -0.7526  -0.7476  -0.7472  -0.7469  -0.7441  -0.7432  -0.7405  -0.7399
 -0.7368  -0.7359  -0.7358  -0.7330  -0.7269  -0.7214  -0.7213  -0.7182
 -0.7179  -0.7173  -0.7172  -0.7169  -0.7165  -0.7152  -0.7132  -0.7065
 -0.7048  -0.6990  -0.6986  -0.6874  -0.6680  -0.6557  -0.6507  -0.6391
 -0.6372  -0.6340  -0.6331  -0.6293  -0.6265  -0.6259  -0.6239  -0.6175
 -0.6168  -0.6166  -0.6153  -0.6140  -0.6096  -0.6088  -0.6075  -0.6019
 -0.6006  -0.5998  -0.5986  -0.5971  -0.5956  -0.5945  -0.5900  -0.5867
 -0.5859  -0.5793  -0.5765  -0.5707  -0.5686  -0.5487  -0.5289  -0.5275
 -0.5260  -0.5187  -0.5100  -0.5071  -0.5056  -0.5038  -0.5030  -0.4977
 -0.4975  -0.4961  -0.4954  -0.4949  -0.4941  -0.4919  -0.4919  -0.4904
 -0.4895  -0.4890  -0.4876  -0.4852  -0.4842  -0.4833  -0.4826  -0.4822
 -0.4820  -0.4812  -0.4810  -0.4800  -0.4794  -0.4787  -0.4786  -0.4776
 -0.4774  -0.4771  -0.4758  -0.4756  -0.4749  -0.4736  -0.4730  -0.4727
 -0.4719  -0.4713  -0.4706  -0.4702  -0.4696  -0.4692  -0.4687  -0.4676
 -0.4665  -0.4660  -0.4658  -0.4655  -0.4649  -0.4632  -0.4627  -0.4624
 -0.4616  -0.4611  -0.4599  -0.4591  -0.4588  -0.4584  -0.4580  -0.4567
 -0.4564  -0.4558  -0.4549  -0.4543  -0.4540  -0.4529  -0.4524  -0.4522
 -0.4517  -0.4512  -0.4498  -0.4497  -0.4492  -0.4490  -0.4477  -0.4474
 -0.4469  -0.4460  -0.4460  -0.4457  -0.4446  -0.4442  -0.4433  -0.4430
 -0.4427  -0.4416  -0.4412  -0.4411  -0.4402  -0.4385  -0.4384  -0.4353
 -0.4346  -0.4338  -0.4328  -0.4326  -0.4323  -0.4313  -0.4312  -0.4303
 -0.4301  -0.4299  -0.4289  -0.4283  -0.4269  -0.4267  -0.4259  -0.4255
 -0.4244  -0.4233  -0.4227  -0.4226  -0.4225  -0.4211  -0.4197  -0.4185
 -0.4179  -0.4175  -0.4167  -0.4161  -0.4156  -0.4153  -0.4149  -0.4141
 -0.4132  -0.4123  -0.4119  -0.4104  -0.4088  -0.4083  -0.4079  -0.4073
 -0.4072  -0.4066  -0.4065  -0.4055  -0.4050  -0.4047  -0.4038  -0.4036
 -0.4027  -0.4025  -0.4021  -0.4016  -0.4004  -0.3993  -0.3991  -0.3989
 -0.3981  -0.3972  -0.3968  -0.3964  -0.3956  -0.3947  -0.3931  -0.3925
 -0.3903  -0.3900  -0.3891  -0.3873  -0.3864  -0.3862  -0.3846  -0.3839
 -0.3837  -0.3831  -0.3821  -0.3808  -0.3805  -0.3787  -0.3784  -0.3764
 -0.3763  -0.3752  -0.3741  -0.3739  -0.3731  -0.3729  -0.3722  -0.3717
 -0.3687  -0.3662  -0.3655  -0.3653  -0.3644  -0.3612  -0.3598  -0.3585
 -0.3573  -0.3564  -0.3560  -0.3544  -0.3523  -0.3518  -0.3503  -0.3502
 -0.3493  -0.3483  -0.3466  -0.3463  -0.3461  -0.3454  -0.3433  -0.3400
 -0.3387  -0.3380  -0.3273  -0.3261  -0.3247  -0.3238  -0.3175  -0.3129
 -0.3033  -0.3019  -0.3008  -0.2973  -0.2951  -0.2912  -0.2904  -0.2899
 -0.2874  -0.2868  -0.2848  -0.2841  -0.2836  -0.2768  -0.2744  -0.2731
 -0.2716  -0.2670  -0.2658  -0.2630  -0.2618  -0.2608  -0.2597  -0.2594
 -0.2591  -0.2575  -0.2566  -0.2561  -0.2554  -0.2545  -0.2533  -0.2516
 -0.2502  -0.2496  -0.2492  -0.2455  -0.2451  -0.2448  -0.2436  -0.2407
 -0.2397  -0.2390  -0.2355  -0.2342  -0.2337  -0.2335  -0.2281  -0.2278
 -0.2272  -0.2265  -0.2237  -0.2235  -0.2224  -0.2216  -0.2209  -0.2135
 -0.2129  -0.2050  -0.2020  -0.1749
 -- Virtual --
 -0.0468  -0.0393  -0.0341  -0.0302  -0.0283  -0.0273  -0.0255  -0.0243
 -0.0217  -0.0197  -0.0189  -0.0186  -0.0159  -0.0150  -0.0138  -0.0129
 -0.0120  -0.0115  -0.0099  -0.0089  -0.0084  -0.0071  -0.0056  -0.0044
 -0.0039  -0.0033  -0.0021  -0.0014  -0.0008   0.0003   0.0008   0.0014
  0.0018   0.0029   0.0031   0.0036   0.0040   0.0048   0.0057   0.0066
  0.0076   0.0080   0.0088   0.0090   0.0096   0.0104   0.0112   0.0117
  0.0125   0.0133   0.0147   0.0152   0.0159   0.0164   0.0170   0.0178
  0.0185   0.0191   0.0200   0.0204   0.0212   0.0223   0.0225   0.0228
  0.0245   0.0248   0.0250   0.0259   0.0264   0.0273   0.0275   0.0280
  0.0292   0.0293   0.0298   0.0307   0.0312   0.0317   0.0325   0.0329
  0.0337   0.0343   0.0353   0.0362   0.0373   0.0378   0.0387   0.0392
  0.0399   0.0407   0.0415   0.0416   0.0420   0.0422   0.0435   0.0439
  0.0444   0.0452   0.0458   0.0461   0.0470   0.0478   0.0481   0.0491
  0.0496   0.0497   0.0509   0.0517   0.0521   0.0530   0.0531   0.0543
  0.0549   0.0554   0.0559   0.0571   0.0574   0.0584   0.0590   0.0593
  0.0596   0.0605   0.0610   0.0616   0.0618   0.0629   0.0633   0.0639
  0.0642   0.0651   0.0654   0.0658   0.0663   0.0672   0.0673   0.0675
  0.0688   0.0692   0.0698   0.0705   0.0708   0.0711   0.0714   0.0724
  0.0727   0.0732   0.0743   0.0745   0.0750   0.0755   0.0760   0.0766
  0.0776   0.0778   0.0786   0.0792   0.0795   0.0798   0.0809   0.0817
  0.0823   0.0830   0.0838   0.0846   0.0852   0.0857   0.0866   0.0869
  0.0872   0.0879   0.0889   0.0897   0.0903   0.0910   0.0912   0.0921
  0.0923   0.0931   0.0934   0.0941   0.0949   0.0953   0.0966   0.0968
  0.0971   0.0978   0.0984   0.0989   0.0992   0.0998   0.1003   0.1013
  0.1021   0.1026   0.1031   0.1033   0.1041   0.1049   0.1054   0.1058
  0.1069   0.1074   0.1076   0.1086   0.1092   0.1096   0.1105   0.1105
  0.1110   0.1114   0.1123   0.1133   0.1138   0.1144   0.1147   0.1153
  0.1162   0.1164   0.1165   0.1175   0.1184   0.1189   0.1192   0.1197
  0.1200   0.1209   0.1213   0.1221   0.1225   0.1227   0.1233   0.1241
  0.1244   0.1250   0.1262   0.1266   0.1270   0.1280   0.1285   0.1293
  0.1299   0.1301   0.1304   0.1309   0.1319   0.1322   0.1332   0.1336
  0.1346   0.1350   0.1355   0.1362   0.1370   0.1374   0.1380   0.1386
  0.1390   0.1400   0.1405   0.1410   0.1416   0.1420   0.1426   0.1430
  0.1439   0.1446   0.1452   0.1458   0.1461   0.1469   0.1474   0.1486
  0.1491   0.1494   0.1496   0.1502   0.1512   0.1518   0.1522   0.1529
  0.1539   0.1540   0.1546   0.1554   0.1559   0.1563   0.1572   0.1578
  0.1582   0.1589   0.1600   0.1604   0.1606   0.1616   0.1617   0.1618
  0.1628   0.1630   0.1638   0.1641   0.1652   0.1658   0.1662   0.1666
  0.1670   0.1676   0.1683   0.1687   0.1695   0.1699   0.1708   0.1713
  0.1718   0.1721   0.1726   0.1736   0.1743   0.1751   0.1755   0.1757
  0.1763   0.1766   0.1777   0.1782   0.1792   0.1797   0.1802   0.1808
  0.1813   0.1814   0.1823   0.1823   0.1833   0.1837   0.1841   0.1854
  0.1857   0.1859   0.1867   0.1869   0.1880   0.1886   0.1887   0.1897
  0.1899   0.1905   0.1906   0.1912   0.1918   0.1927   0.1927   0.1929
  0.1933   0.1944   0.1945   0.1946   0.1962   0.1966   0.1974   0.1978
  0.1985   0.1987   0.1993   0.1996   0.2004   0.2009   0.2021   0.2023
  0.2027   0.2036   0.2039   0.2045   0.2054   0.2060   0.2064   0.2069
  0.2074   0.2077   0.2087   0.2096   0.2102   0.2108   0.2117   0.2122
  0.2125   0.2130   0.2136   0.2147   0.2149   0.2153   0.2160   0.2168
  0.2171   0.2176   0.2179   0.2189   0.2196   0.2199   0.2206   0.2212
  0.2215   0.2218   0.2223   0.2236   0.2239   0.2250   0.2251   0.2258
  0.2264   0.2273   0.2277   0.2278   0.2287   0.2290   0.2302   0.2306
  0.2313   0.2320   0.2328   0.2336   0.2344   0.2348   0.2356   0.2358
  0.2365   0.2366   0.2373   0.2382   0.2385   0.2393   0.2401   0.2407
  0.2411   0.2419   0.2427   0.2429   0.2437   0.2446   0.2449   0.2454
  0.2458   0.2462   0.2465   0.2481   0.2482   0.2487   0.2494   0.2501
  0.2513   0.2517   0.2521   0.2526   0.2529   0.2539   0.2542   0.2554
  0.2557   0.2559   0.2567   0.2568   0.2579   0.2582   0.2593   0.2598
  0.2599   0.2609   0.2619   0.2622   0.2634   0.2638   0.2645   0.2650
  0.2656   0.2664   0.2670   0.2675   0.2679   0.2684   0.2692   0.2697
  0.2710   0.2717   0.2721   0.2723   0.2733   0.2736   0.2740   0.2753
  0.2758   0.2763   0.2764   0.2778   0.2783   0.2789   0.2801   0.2803
  0.2808   0.2814   0.2822   0.2835   0.2840   0.2842   0.2853   0.2854
  0.2860   0.2869   0.2871   0.2877   0.2887   0.2889   0.2901   0.2912
  0.2918   0.2924   0.2930   0.2936   0.2945   0.2952   0.2966   0.2971
  0.2976   0.2978   0.2994   0.3007   0.3011   0.3032   0.3033   0.3048
  0.3054   0.3058   0.3060   0.3068   0.3077   0.3077   0.3089   0.3106
  0.3115   0.3118   0.3127   0.3130   0.3135   0.3145   0.3153   0.3168
  0.3172   0.3175   0.3185   0.3198   0.3206   0.3212   0.3224   0.3235
  0.3240   0.3245   0.3253   0.3257   0.3266   0.3274   0.3287   0.3300
  0.3302   0.3304   0.3313   0.3325   0.3340   0.3342   0.3355   0.3358
  0.3364   0.3370   0.3389   0.3391   0.3403   0.3412   0.3417   0.3430
  0.3433   0.3439   0.3445   0.3450   0.3464   0.3474   0.3478   0.3480
  0.3494   0.3501   0.3504   0.3517   0.3522   0.3528   0.3537   0.3542
  0.3546   0.3559   0.3567   0.3581   0.3586   0.3594   0.3600   0.3616
  0.3629   0.3635   0.3637   0.3643   0.3657   0.3663   0.3671   0.3673
  0.3681   0.3689   0.3703   0.3706   0.3717   0.3734   0.3738   0.3751
  0.3759   0.3764   0.3771   0.3778   0.3786   0.3790   0.3810   0.3812
  0.3816   0.3823   0.3839   0.3844   0.3849   0.3862   0.3882   0.3892
  0.3895   0.3901   0.3905   0.3921   0.3925   0.3939   0.3941   0.3946
  0.3960   0.3966   0.3969   0.3972   0.3982   0.3995   0.4006   0.4013
  0.4020   0.4025   0.4035   0.4044   0.4054   0.4059   0.4064   0.4075
  0.4082   0.4087   0.4096   0.4105   0.4111   0.4127   0.4136   0.4140
  0.4151   0.4163   0.4171   0.4176   0.4193   0.4207   0.4210   0.4221
  0.4237   0.4242   0.4254   0.4263   0.4265   0.4273   0.4283   0.4289
  0.4293   0.4300   0.4310   0.4326   0.4336   0.4343   0.4348   0.4369
  0.4376   0.4388   0.4389   0.4407   0.4416   0.4423   0.4428   0.4440
  0.4450   0.4463   0.4466   0.4482   0.4484   0.4494   0.4500   0.4503
  0.4522   0.4538   0.4548   0.4556   0.4563   0.4576   0.4583   0.4589
  0.4608   0.4615   0.4619   0.4631   0.4642   0.4646   0.4658   0.4671
  0.4681   0.4686   0.4693   0.4714   0.4728   0.4745   0.4751   0.4757
  0.4765   0.4788   0.4799   0.4802   0.4815   0.4833   0.4846   0.4854
  0.4862   0.4869   0.4889   0.4896   0.4910   0.4930   0.4937   0.4946
  0.4964   0.4991   0.4996   0.5010   0.5022   0.5034   0.5041   0.5057
  0.5061   0.5085   0.5103   0.5124   0.5132   0.5142   0.5152   0.5169
  0.5190   0.5211   0.5217   0.5230   0.5250   0.5258   0.5261   0.5264
  0.5294   0.5306   0.5318   0.5340   0.5349   0.5364   0.5378   0.5402
  0.5414   0.5425   0.5430   0.5457   0.5474   0.5494   0.5500   0.5514
  0.5536   0.5544   0.5558   0.5565   0.5585   0.5590   0.5614   0.5626
  0.5650   0.5659   0.5674   0.5680   0.5690   0.5698   0.5713   0.5730
  0.5741   0.5752   0.5768   0.5781   0.5795   0.5806   0.5822   0.5854
  0.5863   0.5879   0.5888   0.5912   0.5918   0.5920   0.5939   0.5950
  0.5955   0.5959   0.5984   0.5989   0.5996   0.6008   0.6017   0.6034
  0.6063   0.6066   0.6082   0.6086   0.6095   0.6101   0.6123   0.6144
  0.6153   0.6164   0.6177   0.6191   0.6200   0.6216   0.6223   0.6226
  0.6235   0.6256   0.6259   0.6268   0.6280   0.6297   0.6314   0.6320
  0.6325   0.6339   0.6350   0.6365   0.6378   0.6383   0.6393   0.6408
  0.6412   0.6427   0.6442   0.6452   0.6455   0.6463   0.6474   0.6479
  0.6490   0.6495   0.6511   0.6519   0.6544   0.6548   0.6558   0.6567
  0.6571   0.6584   0.6590   0.6600   0.6605   0.6633   0.6640   0.6643
  0.6662   0.6671   0.6685   0.6687   0.6707   0.6715   0.6720   0.6732
  0.6739   0.6753   0.6765   0.6766   0.6777   0.6800   0.6818   0.6823
  0.6828   0.6846   0.6851   0.6856   0.6869   0.6887   0.6894   0.6906
  0.6907   0.6924   0.6936   0.6951   0.6972   0.6974   0.6986   0.6998
  0.7015   0.7028   0.7036   0.7044   0.7051   0.7067   0.7074   0.7076
  0.7083   0.7102   0.7120   0.7138   0.7139   0.7154   0.7158   0.7176
  0.7186   0.7198   0.7205   0.7210   0.7221   0.7232   0.7244   0.7253
  0.7264   0.7275   0.7281   0.7305   0.7318   0.7331   0.7338   0.7356
  0.7361   0.7378   0.7381   0.7393   0.7414   0.7429   0.7442   0.7450
  0.7460   0.7469   0.7484   0.7489   0.7498   0.7506   0.7517   0.7519
  0.7532   0.7543   0.7559   0.7566   0.7594   0.7598   0.7612   0.7631
  0.7651   0.7655   0.7662   0.7665   0.7682   0.7688   0.7712   0.7720
  0.7729   0.7749   0.7767   0.7778   0.7788   0.7813   0.7834   0.7842
  0.7860   0.7876   0.7888   0.7898   0.7913   0.7916   0.7944   0.7949
  0.7965   0.7973   0.7984   0.8013   0.8021   0.8040   0.8057   0.8080
  0.8084   0.8092   0.8106   0.8119   0.8132   0.8142   0.8167   0.8170
  0.8182   0.8185   0.8212   0.8222   0.8249   0.8256   0.8285   0.8290
  0.8294   0.8301   0.8312   0.8330   0.8347   0.8348   0.8357   0.8378
  0.8394   0.8399   0.8421   0.8433   0.8442   0.8459   0.8462   0.8468
  0.8480   0.8485   0.8508   0.8524   0.8535   0.8544   0.8567   0.8573
  0.8586   0.8599   0.8609   0.8612   0.8618   0.8640   0.8666   0.8670
  0.8674   0.8692   0.8695   0.8708   0.8716   0.8731   0.8742   0.8751
  0.8761   0.8774   0.8788   0.8800   0.8807   0.8829   0.8857   0.8872
  0.8878   0.8882   0.8898   0.8919   0.8926   0.8938   0.8946   0.8970
  0.8985   0.9003   0.9015   0.9016   0.9026   0.9044   0.9073   0.9079
  0.9089   0.9100   0.9118   0.9134   0.9137   0.9154   0.9177   0.9182
  0.9185   0.9197   0.9211   0.9213   0.9222   0.9238   0.9246   0.9248
  0.9268   0.9280   0.9290   0.9301   0.9312   0.9323   0.9343   0.9355
  0.9367   0.9373   0.9383   0.9389   0.9404   0.9417   0.9428   0.9439
  0.9447   0.9451   0.9464   0.9473   0.9489   0.9496   0.9500   0.9516
  0.9519   0.9536   0.9540   0.9543   0.9570   0.9577   0.9584   0.9587
  0.9612   0.9616   0.9635   0.9641   0.9656   0.9665   0.9679   0.9681
  0.9699   0.9702   0.9715   0.9726   0.9739   0.9754   0.9758   0.9770
  0.9782   0.9788   0.9803   0.9808   0.9821   0.9830   0.9832   0.9843
  0.9851   0.9864   0.9874   0.9887   0.9895   0.9903   0.9913   0.9918
  0.9930   0.9940   0.9950   0.9958   0.9964   0.9980   0.9989   1.0002
  1.0009   1.0030   1.0035   1.0041   1.0053   1.0075   1.0083   1.0095
  1.0109   1.0114   1.0120   1.0138   1.0148   1.0157   1.0167   1.0183
  1.0200   1.0206   1.0218   1.0229   1.0234   1.0242   1.0247   1.0253
  1.0257   1.0297   1.0301   1.0305   1.0310   1.0323   1.0327   1.0333
  1.0343   1.0365   1.0380   1.0386   1.0406   1.0413   1.0419   1.0430
  1.0437   1.0442   1.0457   1.0474   1.0480   1.0489   1.0515   1.0521
  1.0532   1.0545   1.0566   1.0570   1.0594   1.0604   1.0607   1.0626
  1.0635   1.0653   1.0660   1.0666   1.0674   1.0685   1.0704   1.0708
  1.0722   1.0737   1.0752   1.0755   1.0765   1.0787   1.0799   1.0804
  1.0809   1.0820   1.0851   1.0862   1.0870   1.0901   1.0907   1.0923
  1.0929   1.0946   1.0954   1.0974   1.0988   1.0990   1.1004   1.1020
  1.1040   1.1062   1.1074   1.1083   1.1092   1.1097   1.1118   1.1121
  1.1158   1.1160   1.1171   1.1184   1.1190   1.1207   1.1217   1.1229
  1.1234   1.1242   1.1259   1.1273   1.1275   1.1291   1.1307   1.1318
  1.1331   1.1337   1.1344   1.1352   1.1363   1.1372   1.1403   1.1410
  1.1419   1.1438   1.1448   1.1463   1.1472   1.1476   1.1486   1.1492
  1.1503   1.1532   1.1534   1.1549   1.1551   1.1565   1.1578   1.1586
  1.1604   1.1621   1.1636   1.1642   1.1652   1.1671   1.1673   1.1679
  1.1691   1.1707   1.1720   1.1727   1.1740   1.1762   1.1778   1.1790
  1.1792   1.1801   1.1815   1.1825   1.1855   1.1862   1.1877   1.1893
  1.1905   1.1917   1.1924   1.1930   1.1940   1.1968   1.1979   1.1981
  1.1997   1.2009   1.2037   1.2052   1.2053   1.2069   1.2083   1.2088
  1.2103   1.2114   1.2123   1.2150   1.2162   1.2189   1.2194   1.2215
  1.2222   1.2241   1.2261   1.2300   1.2307   1.2323   1.2334   1.2346
  1.2360   1.2380   1.2392   1.2414   1.2440   1.2459   1.2471   1.2484
  1.2490   1.2507   1.2535   1.2562   1.2592   1.2606   1.2638   1.2652
  1.2653   1.2672   1.2714   1.2731   1.2763   1.2769   1.2777   1.2788
  1.2831   1.2841   1.2880   1.2883   1.2901   1.2940   1.2964   1.2990
  1.3000   1.3037   1.3042   1.3068   1.3083   1.3094   1.3107   1.3136
  1.3171   1.3195   1.3209   1.3235   1.3258   1.3270   1.3308   1.3314
  1.3340   1.3353   1.3367   1.3380   1.3408   1.3427   1.3450   1.3455
  1.3497   1.3503   1.3517   1.3531   1.3555   1.3584   1.3590   1.3623
  1.3631   1.3644   1.3665   1.3674   1.3690   1.3712   1.3727   1.3733
  1.3741   1.3759   1.3781   1.3795   1.3819   1.3842   1.3850   1.3874
  1.3889   1.3903   1.3914   1.3919   1.3943   1.3955   1.3964   1.3989
  1.3999   1.4017   1.4020   1.4039   1.4046   1.4059   1.4076   1.4096
  1.4104   1.4126   1.4129   1.4147   1.4170   1.4176   1.4186   1.4203
  1.4217   1.4225   1.4236   1.4253   1.4266   1.4289   1.4295   1.4308
  1.4313   1.4324   1.4338   1.4354   1.4361   1.4381   1.4396   1.4409
  1.4416   1.4427   1.4446   1.4461   1.4470   1.4472   1.4487   1.4500
  1.4517   1.4532   1.4544   1.4555   1.4569   1.4589   1.4598   1.4614
  1.4638   1.4653   1.4661   1.4685   1.4697   1.4704   1.4709   1.4726
  1.4732   1.4765   1.4770   1.4788   1.4807   1.4810   1.4831   1.4844
  1.4860   1.4871   1.4881   1.4886   1.4924   1.4935   1.4962   1.4976
  1.4996   1.5013   1.5036   1.5051   1.5074   1.5096   1.5110   1.5132
  1.5138   1.5169   1.5190   1.5217   1.5227   1.5242   1.5245   1.5269
  1.5303   1.5316   1.5328   1.5376   1.5381   1.5405   1.5434   1.5464
  1.5476   1.5497   1.5509   1.5521   1.5538   1.5574   1.5598   1.5646
  1.5681   1.5707   1.5715   1.5764   1.5773   1.5795   1.5835   1.5857
  1.5873   1.5894   1.5919   1.5945   1.5979   1.6027   1.6032   1.6053
  1.6127   1.6157   1.6247   1.6264   1.6282   1.6371   1.6397   1.6418
  1.6424   1.6434   1.6476   1.6517   1.6548   1.6561   1.6590   1.6594
  1.6636   1.6657   1.6668   1.6695   1.6708   1.6729   1.6743   1.6761
  1.6786   1.6807   1.6815   1.6827   1.6837   1.6840   1.6860   1.6867
  1.6878   1.6887   1.6905   1.6915   1.6923   1.6935   1.6941   1.6957
  1.6966   1.6982   1.6993   1.7007   1.7022   1.7031   1.7044   1.7055
  1.7072   1.7077   1.7082   1.7109   1.7115   1.7132   1.7144   1.7155
  1.7167   1.7174   1.7189   1.7221   1.7232   1.7233   1.7248   1.7259
  1.7271   1.7277   1.7287   1.7300   1.7322   1.7327   1.7339   1.7350
  1.7360   1.7381   1.7392   1.7404   1.7410   1.7423   1.7434   1.7454
  1.7456   1.7486   1.7494   1.7498   1.7513   1.7524   1.7532   1.7548
  1.7564   1.7573   1.7583   1.7585   1.7598   1.7626   1.7634   1.7646
  1.7656   1.7685   1.7687   1.7692   1.7715   1.7730   1.7745   1.7750
  1.7768   1.7775   1.7802   1.7811   1.7822   1.7833   1.7851   1.7875
  1.7892   1.7928   1.7938   1.7957   1.7981   1.7990   1.8027   1.8036
  1.8045   1.8081   1.8093   1.8111   1.8128   1.8156   1.8183   1.8193
  1.8224   1.8237   1.8290   1.8309   1.8329   1.8338   1.8368   1.8402
  1.8427   1.8450   1.8459   1.8505   1.8522   1.8532   1.8575   1.8600
  1.8614   1.8639   1.8677   1.8696   1.8703   1.8716   1.8746   1.8752
  1.8784   1.8788   1.8806   1.8827   1.8831   1.8847   1.8856   1.8876
  1.8884   1.8912   1.8919   1.8925   1.8938   1.8953   1.8970   1.8980
  1.8987   1.8998   1.9006   1.9013   1.9038   1.9050   1.9055   1.9068
  1.9072   1.9088   1.9093   1.9105   1.9120   1.9128   1.9146   1.9158
  1.9167   1.9186   1.9189   1.9206   1.9216   1.9232   1.9261   1.9265
  1.9270   1.9289   1.9308   1.9314   1.9320   1.9327   1.9356   1.9372
  1.9385   1.9390   1.9409   1.9427   1.9437   1.9449   1.9464   1.9487
  1.9516   1.9530   1.9549   1.9563   1.9589   1.9608   1.9623   1.9664
  1.9686   1.9724   1.9732   1.9776   1.9821   1.9837   1.9867   1.9895
  2.0005   2.0060   2.0100   2.0167   2.0205   2.0235   2.0328   2.0344
  2.0392   2.0426   2.0473   2.0488   2.0515   2.0539   2.0570   2.0607
  2.0611   2.0613   2.0644   2.0703   2.0718   2.0739   2.0745   2.0753
  2.0758   2.0771   2.0777   2.0784   2.0808   2.0847   2.0871   2.0882
  2.0906   2.0923   2.0928   2.0939   2.0942   2.0955   2.0958   2.0961
  2.0982   2.0984   2.1000   2.1002   2.1013   2.1025   2.1038   2.1040
  2.1049   2.1066   2.1088   2.1093   2.1110   2.1129   2.1155   2.1166
  2.1185   2.1192   2.1251   2.1273   2.1279   2.1282   2.1301   2.1339
  2.1354   2.1368   2.1395   2.1404   2.1415   2.1460   2.1471   2.1494
  2.1567   2.1611   2.1666   2.1693   2.1705   2.1721   2.1732   2.1780
  2.1787   2.1804   2.1837   2.1855   2.1884   2.1914   2.1955   2.1990
  2.2001   2.2018   2.2037   2.2081   2.2088   2.2106   2.2132   2.2142
  2.2180   2.2193   2.2214   2.2232   2.2240   2.2247   2.2266   2.2276
  2.2280   2.2297   2.2299   2.2317   2.2327   2.2340   2.2347   2.2360
  2.2372   2.2378   2.2395   2.2419   2.2428   2.2443   2.2451   2.2457
  2.2461   2.2477   2.2483   2.2487   2.2494   2.2503   2.2517   2.2525
  2.2536   2.2541   2.2544   2.2564   2.2568   2.2577   2.2586   2.2594
  2.2606   2.2608   2.2615   2.2624   2.2632   2.2647   2.2653   2.2656
  2.2663   2.2667   2.2672   2.2682   2.2688   2.2698   2.2712   2.2739
  2.2751   2.2762   2.2774   2.2782   2.2786   2.2794   2.2804   2.2812
  2.2821   2.2824   2.2838   2.2846   2.2858   2.2872   2.2875   2.2880
  2.2900   2.2904   2.2910   2.2929   2.2936   2.2942   2.2960   2.2974
  2.2984   2.2996   2.3017   2.3022   2.3032   2.3047   2.3051   2.3064
  2.3081   2.3085   2.3107   2.3122   2.3129   2.3144   2.3154   2.3170
  2.3172   2.3185   2.3197   2.3207   2.3222   2.3233   2.3248   2.3256
  2.3265   2.3271   2.3284   2.3291   2.3300   2.3314   2.3319   2.3331
  2.3340   2.3352   2.3359   2.3378   2.3406   2.3419   2.3442   2.3454
  2.3457   2.3491   2.3509   2.3516   2.3523   2.3551   2.3552   2.3559
  2.3569   2.3580   2.3594   2.3611   2.3645   2.3650   2.3675   2.3700
  2.3731   2.3740   2.3744   2.3762   2.3782   2.3799   2.3802   2.3853
  2.3860   2.3874   2.3877   2.3905   2.3943   2.3959   2.3994   2.4021
  2.4045   2.4087   2.4144   2.4194   2.4226   2.4238   2.4263   2.4310
  2.4709   2.4864   2.5160   2.5538   2.5560   2.5759   2.6642   2.7221
  2.7684   2.8062   2.8084   2.8110   2.8159   2.8253   2.8342   2.8388
  2.8406   2.8443   2.8467   2.8490   2.8513   2.8540   2.8549   2.8567
  2.8588   2.8619   2.8650   2.8666   2.8688   2.8721   2.8725   2.8730
  2.8778   2.8845   2.8851   2.8884   2.8895   2.8915   2.8945   2.8996
  2.9031   2.9103   2.9245   2.9420   3.1171   3.2494   3.9415   3.9467
  3.9537   3.9640   3.9676   3.9691   3.9711   3.9744   3.9785   3.9796
  3.9800   3.9843   3.9891   3.9895   3.9916   3.9951   3.9975   3.9988
  4.0028   4.0036   4.0085   4.0196   4.0200   4.0253   4.0259   4.0296
  4.0346   4.0449   4.0550   4.1959   4.2037   4.2252   4.2363   4.2407
  4.2488   4.2526   4.2536   4.2547   4.2570   4.2587   4.2595   4.2609
  4.2628   4.2644   4.2664   4.2687   4.2696   4.2772   4.2794   4.2806
  4.2828   4.2849   4.2885   4.2908   4.2911   4.2934   4.2945   4.2992
  4.3007   4.3027   4.3066   4.3073   4.3117   4.3168   4.3174   4.3195
  4.3205   4.3252   4.3262   4.3292   4.3308   4.3312   4.3334   4.3366
  4.3399   4.3407   4.3446   4.3466   4.3484   4.3496   4.3531   4.3553
  4.3570   4.3599   4.3646   4.3658   4.3693   4.3734   4.3797   4.3816
  4.3879   4.3885   4.3958   4.3977   4.4037   4.4099   4.4110   4.4124
  4.4164   4.4182   4.4276   4.4311   4.4414   4.4466   4.4540   4.4623
  4.4641   4.4703   4.4725   4.4804   4.4861   4.5183   4.5192   4.5319
  4.5487   4.5514   4.5874   4.5993   4.6616   4.6850   4.7112   4.7412
  4.7609   4.7694   4.9457
 --------------------------------------------------------------
 
          Ground-State Mulliken Net Atomic Charges

     Atom                 Charge (a.u.)
  ----------------------------------------
      1 C                    -0.470152
      2 C                    -0.090723
      3 C                    -0.221843
      4 C                    -0.701803
      5 C                    -0.412129
      6 C                    -0.401561
      7 H                     0.205241
      8 H                     0.205587
      9 H                     0.201559
     10 H                     0.237639
     11 H                     0.193876
     12 H                     0.204474
     13 H                     0.179856
     14 H                     0.255465
     15 H                     0.191222
     16 H                     0.199319
     17 H                     0.207188
     18 N                    -0.459641
     19 H                     0.484565
     20 C                     0.369997
     21 H                     0.156748
     22 O                    -0.534884
     23 C                    -0.837643
     24 H                     0.264416
     25 H                     0.246111
     26 H                     0.262154
     27 S                     0.921213
     28 C                    -0.855284
     29 H                     0.275085
     30 H                     0.216714
     31 H                     0.243317
     32 O                    -0.672426
     33 C                    -0.931392
     34 H                     0.286686
     35 H                     0.267911
     36 H                     0.256022
     37 S                     0.972513
     38 C                    -0.987625
     39 H                     0.256816
     40 H                     0.287714
     41 H                     0.244815
     42 O                    -0.660136
     43 C                    -0.839315
     44 H                     0.248184
     45 H                     0.232729
     46 H                     0.247642
     47 S                     0.817296
     48 C                    -0.843952
     49 H                     0.239212
     50 H                     0.277219
     51 H                     0.271032
     52 O                    -0.652228
     53 C                    -0.896947
     54 H                     0.250489
     55 H                     0.280052
     56 H                     0.233325
     57 S                     0.882139
     58 C                    -0.870146
     59 H                     0.283447
     60 H                     0.265619
     61 H                     0.244459
     62 O                    -0.655403
     63 C                    -0.806822
     64 H                     0.272993
     65 H                     0.204158
     66 H                     0.267812
     67 S                     0.831605
     68 C                    -0.938189
     69 H                     0.214851
     70 H                     0.255237
     71 H                     0.274136
     72 O                    -0.657668
     73 C                    -1.013574
     74 H                     0.210470
     75 H                     0.256663
     76 H                     0.294004
     77 S                     1.053878
     78 C                    -0.860289
     79 H                     0.225736
     80 H                     0.250787
     81 H                     0.266767
     82 O                    -0.701445
     83 C                    -0.878124
     84 H                     0.230658
     85 H                     0.256267
     86 H                     0.274393
     87 S                     0.914495
     88 C                    -0.845188
     89 H                     0.235139
     90 H                     0.240045
     91 H                     0.298191
     92 O                    -0.693152
     93 C                    -0.870569
     94 H                     0.245461
     95 H                     0.241667
     96 H                     0.289863
     97 S                     0.935868
     98 C                    -0.878564
     99 H                     0.279244
    100 H                     0.227074
    101 H                     0.258228
    102 O                    -0.645099
    103 C                    -0.926233
    104 H                     0.246750
    105 H                     0.265815
    106 H                     0.292277
    107 S                     0.842828
    108 C                    -0.946758
    109 H                     0.245771
    110 H                     0.258561
    111 H                     0.259595
    112 O                    -0.613482
    113 C                    -0.956319
    114 H                     0.285434
    115 H                     0.260311
    116 H                     0.244265
    117 S                     0.949245
    118 C                    -0.765875
    119 H                     0.222488
    120 H                     0.240155
    121 H                     0.252580
    122 O                    -0.648070
    123 C                    -0.860792
    124 H                     0.250645
    125 H                     0.267180
    126 H                     0.281842
    127 S                     0.783579
    128 C                    -0.808300
    129 H                     0.248399
    130 H                     0.222327
    131 H                     0.251333
    132 O                    -0.630318
    133 C                    -0.801362
    134 H                     0.255501
    135 H                     0.268010
    136 H                     0.243013
    137 S                     0.948324
    138 C                    -1.058921
    139 H                     0.259729
    140 H                     0.309308
    141 H                     0.250668
    142 O                    -0.624522
    143 C                    -0.962685
    144 H                     0.250652
    145 H                     0.239280
    146 H                     0.231307
    147 S                     1.239117
    148 C                    -0.960933
    149 H                     0.258434
    150 H                     0.226571
    151 H                     0.285764
    152 O                    -0.698643
    153 C                    -0.880814
    154 H                     0.285238
    155 H                     0.246028
    156 H                     0.236384
    157 S                     1.002276
    158 C                    -0.864564
    159 H                     0.240648
    160 H                     0.254666
    161 H                     0.217331
    162 O                    -0.649683
    163 C                    -0.949939
    164 H                     0.263283
    165 H                     0.260244
    166 H                     0.258925
    167 S                     0.961350
    168 C                    -0.776770
    169 H                     0.239186
    170 H                     0.255940
    171 H                     0.240579
    172 O                    -0.728253
    173 C                    -1.048331
    174 H                     0.276751
    175 H                     0.262222
    176 H                     0.269109
    177 S                     0.760223
    178 C                    -0.728066
    179 H                     0.239698
    180 H                     0.259571
    181 H                     0.293429
    182 O                    -0.647474
    183 C                    -0.798905
    184 H                     0.331000
    185 H                     0.283071
    186 H                     0.236933
    187 S                     0.396940
    188 C                    -0.714063
    189 H                     0.261229
    190 H                     0.281284
    191 H                     0.249818
    192 O                    -0.546473
    193 C                    -0.831130
    194 H                     0.241729
    195 H                     0.236145
    196 H                     0.292945
    197 S                     0.850116
    198 C                    -0.802481
    199 H                     0.229953
    200 H                     0.257079
    201 H                     0.246669
    202 O                    -0.707667
    203 C                    -1.456583
    204 H                     0.269360
    205 H                     0.334704
    206 H                     0.287236
    207 S                     1.389371
    208 C                    -1.021155
    209 H                     0.227208
    210 H                     0.243878
    211 H                     0.280221
    212 O                    -0.659858
    213 C                    -0.874752
    214 H                     0.268458
    215 H                     0.265377
    216 H                     0.222417
    217 S                     0.886799
    218 C                    -0.980979
    219 H                     0.278969
    220 H                     0.279542
    221 H                     0.266195
    222 O                    -0.677374
    223 C                    -0.835723
    224 H                     0.238069
    225 H                     0.219542
    226 H                     0.261103
    227 S                     0.718751
    228 C                    -0.911528
    229 H                     0.278839
    230 H                     0.295813
    231 H                     0.304984
    232 O                    -0.663972
    233 C                    -0.734389
    234 H                     0.275840
    235 H                     0.238705
    236 H                     0.286063
    237 S                     0.820960
    238 C                    -0.843872
    239 H                     0.256644
    240 H                     0.231720
    241 H                     0.255199
    242 O                    -0.743779
    243 C                    -0.779131
    244 H                     0.202099
    245 H                     0.249841
    246 H                     0.291656
    247 S                     0.610110
    248 C                    -0.643686
    249 H                     0.252525
    250 H                     0.256263
    251 H                     0.246120
    252 O                    -0.702399
    253 C                    -0.864361
    254 H                     0.254895
    255 H                     0.261318
    256 H                     0.263294
    257 S                     0.797923
    258 C                    -0.781697
    259 H                     0.294913
    260 H                     0.242444
    261 H                     0.248079
    262 O                    -0.700282
    263 C                    -0.802918
    264 H                     0.258623
    265 H                     0.248648
    266 H                     0.247266
    267 S                     0.900035
    268 C                    -0.824848
    269 H                     0.239608
    270 H                     0.276045
    271 H                     0.242751
    272 O                    -0.809264
    273 C                    -0.917709
    274 H                     0.228879
    275 H                     0.279396
    276 H                     0.259962
    277 S                     0.952785
    278 C                    -0.813798
    279 H                     0.259277
    280 H                     0.284475
    281 H                     0.299425
    282 O                    -0.736640
    283 C                    -1.014769
    284 H                     0.258822
    285 H                     0.250694
    286 H                     0.277978
    287 S                     1.076122
    288 C                    -0.999754
    289 H                     0.213542
    290 H                     0.267296
    291 H                     0.258267
    292 O                    -0.708587
    293 C                    -0.804372
    294 H                     0.245751
    295 H                     0.278689
    296 H                     0.294753
[...]
    2  -0.0072470  -0.0346791   0.0067950  -0.0518093  -0.0034252   0.0057432
    3   0.0027086  -0.0033737  -0.0252390   0.0748514  -0.0065499   0.0043055
          175         176         177         178         179         180
    1  -0.0078872  -0.0062977  -0.0193585  -0.0104234  -0.0229223  -0.0285948
    2  -0.0121755   0.0229108  -0.0488383   0.0053200   0.0080550  -0.0101026
    3  -0.0349468   0.0006682  -0.0133781   0.0018315  -0.0253546   0.0071459
          181         182         183         184         185         186
    1   0.0067413   0.0735279  -0.0008270   0.0246930   0.0070673  -0.0304754
    2   0.0254341   0.0217555   0.0086449   0.0013043   0.0279717  -0.0009494
    3   0.0112547   0.0773876   0.0062911   0.0237829  -0.0120518   0.0138064
          187         188         189         190         191         192
    1   0.0483184  -0.0048511  -0.0013645  -0.0060420  -0.0253891  -0.0200132
    2   0.0064375   0.0017588   0.0291491  -0.0189293  -0.0141781  -0.0866628
    3  -0.0301916  -0.0057614  -0.0102798  -0.0249958   0.0121143   0.0636754
          193         194         195         196         197         198
    1  -0.0037936  -0.0224025   0.0069373  -0.0032944   0.0397394  -0.0045261
    2   0.0059026   0.0062069   0.0396356   0.0058938  -0.0051095  -0.0036987
    3   0.0001380   0.0251747   0.0161612  -0.0323054  -0.0372266  -0.0027924
          199         200         201         202         203         204
    1  -0.0170542   0.0027853  -0.0273327   0.0036055   0.0112533   0.0130563
    2   0.0156193  -0.0316928   0.0001803  -0.0374542   0.0070775   0.0283677
    3  -0.0278491   0.0099044   0.0147299   0.1045868   0.0017553  -0.0134542
          205         206         207         208         209         210
    1  -0.0076048   0.0267549   0.0030261  -0.0050044   0.0096505  -0.0301871
    2  -0.0004317  -0.0139916  -0.0078241   0.0023799   0.0257454  -0.0034408
    3   0.0323545  -0.0123777  -0.0540963   0.0066817  -0.0117452  -0.0091972
          211         212         213         214         215         216
    1  -0.0002122  -0.0015253  -0.0005008  -0.0195309   0.0300799  -0.0182963
    2   0.0007081  -0.0766270   0.0034970   0.0169911  -0.0063080  -0.0219339
    3   0.0338094   0.0771097  -0.0122569  -0.0188533  -0.0260279  -0.0033721
          217         218         219         220         221         222
    1  -0.0417665   0.0032735   0.0148954   0.0122502  -0.0172697   0.0768061
    2   0.0089724   0.0093613   0.0106609  -0.0116787   0.0273570  -0.0750834
    3   0.0308309  -0.0027778   0.0243936  -0.0323789   0.0126148   0.0064432
          223         224         225         226         227         228
    1  -0.0026461  -0.0252932  -0.0200548   0.0264600   0.0117059  -0.0090825
    2   0.0034235  -0.0044084   0.0110602   0.0065658  -0.0465508   0.0017592
    3  -0.0039577  -0.0326953   0.0164080  -0.0182682  -0.0251488   0.0087197
          229         230         231         232         233         234
    1  -0.0246664   0.0014053  -0.0092276   0.0705471   0.0070432   0.0224251
    2  -0.0167340  -0.0222540   0.0249578   0.0653399  -0.0008608   0.0208640
    3  -0.0157331   0.0235022   0.0193143   0.0517593   0.0061375   0.0084798
          235         236         237         238         239         240
    1  -0.0276787   0.0222440  -0.0215453   0.0057088   0.0206146   0.0336612
    2  -0.0077466  -0.0251328  -0.0351700   0.0002790   0.0014711  -0.0230677
    3   0.0092820   0.0236469  -0.0216155  -0.0008943   0.0231714  -0.0137970
          241         242         243         244         245         246
    1  -0.0077083  -0.0372546  -0.0037440   0.0243119  -0.0268569   0.0107690
    2   0.0186268   0.1046141   0.0073666  -0.0046874   0.0071390   0.0331853
    3  -0.0230606   0.0057622  -0.0015187  -0.0177893  -0.0238599  -0.0003824
          247         248         249         250         251         252
    1   0.0488225  -0.0069554  -0.0370763   0.0182498  -0.0071880  -0.0964537
    2   0.0010757  -0.0042209  -0.0052305  -0.0138885  -0.0182900   0.0463409
    3   0.0385403   0.0002620  -0.0021440  -0.0083443   0.0271029   0.0321351
          253         254         255         256         257         258
    1  -0.0002468   0.0010705   0.0160578  -0.0295169  -0.0097641   0.0094602
    2  -0.0096994   0.0011242  -0.0285255  -0.0111302   0.0441798  -0.0002880
    3   0.0018046  -0.0314772   0.0126465   0.0005534  -0.0412263   0.0045597
          259         260         261         262         263         264
    1  -0.0016625   0.0178184   0.0092285  -0.0479792  -0.0004249  -0.0018733
    2  -0.0165334  -0.0093147   0.0270003   0.0064229  -0.0013635  -0.0284379
    3   0.0296312  -0.0220390   0.0022047   0.1014441  -0.0049981  -0.0208044
          265         266         267         268         269         270
    1  -0.0035408   0.0282098  -0.0536419   0.0067533  -0.0079599  -0.0061036
    2   0.0316543   0.0044486   0.0088552   0.0074987   0.0289493  -0.0032436
    3  -0.0228627  -0.0064707   0.0014200   0.0050620  -0.0152780   0.0338935
          271         272         273         274         275         276
    1   0.0277219   0.0531873   0.0052177   0.0294349  -0.0105496   0.0097798
    2  -0.0005199  -0.0809684   0.0006251   0.0275913  -0.0020441  -0.0161940
    3  -0.0123323   0.0499361   0.0050042   0.0166760   0.0305910  -0.0315154
          277         278         279         280         281         282
    1   0.0006457  -0.0064288   0.0112100  -0.0281270  -0.0026835  -0.0355380
    2   0.0375294   0.0024728   0.0240010   0.0172545  -0.0267273  -0.1020121
    3  -0.0335556   0.0094009   0.0227562  -0.0017795   0.0146567  -0.0186706
          283         284         285         286         287         288
    1  -0.0026446   0.0191693  -0.0206826  -0.0108272   0.0199066   0.0039727
    2   0.0097348   0.0249105   0.0058709  -0.0003714  -0.0327358   0.0022067
    3  -0.0011529   0.0005600  -0.0217340   0.0283419   0.0409046  -0.0051037
          289         290         291         292         293         294
    1   0.0330455   0.0027888  -0.0184049  -0.0882846  -0.0069792  -0.0246195
    2   0.0128348  -0.0280422   0.0164462  -0.0294793   0.0037646  -0.0192136
    3   0.0081288  -0.0124889  -0.0213886  -0.0604875   0.0026980  -0.0063047
          295         296         297         298         299         300
    1  -0.0103510   0.0033905   0.0228727  -0.0000081   0.0301362  -0.0131986
    2   0.0048426   0.0213565  -0.0262074  -0.0031937   0.0081661   0.0173330
    3   0.0302880  -0.0221839  -0.0454265   0.0074521   0.0118775   0.0198256
          301         302         303         304         305         306
    1  -0.0067757   0.0491127   0.0041918  -0.0024386   0.0312347  -0.0112008
    2  -0.0276994   0.1038396   0.0022909   0.0285973   0.0028894  -0.0168610
    3  -0.0082551   0.0455081  -0.0090377  -0.0149204   0.0132203  -0.0250279
          307         308         309         310         311         312
    1   0.0068571   0.0000807   0.0288237  -0.0101650   0.0155944  -0.0973175
    2   0.0401946  -0.0048035  -0.0053239  -0.0225538  -0.0179852  -0.0280278
    3   0.0439440   0.0009093   0.0225322   0.0238996  -0.0214031  -0.0417672
  --- DONE ESP SUMMARY ---
Archival summary:
1\1\n0096.mhg0\SP\ProcedureUnspecified\6-31+G*\292958h22\ymao\FriMar1216:44:172021FriMar1216:44:172021\0\\#,ProcedureUnspecified,6-31+G*,\\0,1\S\O,1,1.49641\C,1,1.80692,2,102.52\H,3,1.09295,1,110.964,2,-77.0653,0\H,3,1.09324,1,108.644,2,161.986,0\H,3,1.09413,1,102.253,2,42.6752,0\C,1,1.80709,2,105.915,3,96.8119,0\H,7,1.09252,1,107.146,2,-36.5935,0\H,7,1.09281,1,108.324,2,-166.495,0\H,7,1.09283,1,105.798,2,84.2254,0\Gh,5,2.35368,3,143.094,1,36.428,0\Gh,11,1.09657,5,119.675,3,-3.12216,0\Gh,12,1.09684,11,107.326,5,-13.2193,0\Gh,12,1.53742,11,112.401,5,97.7339,0\Gh,14,1.09676,12,111.559,11,69.8471,0\Gh,14,1.46269,12,112.921,11,-54.08,0\Gh,16,1.01281,14,120.151,12,-88.7505,0\Gh,16,1.3792,14,127.201,12,79.1004,0\Gh,18,1.10492,16,112.847,14,-162.221,0\Gh,18,1.21714,16,119.347,14,11.4407,0\Gh,14,1.53735,12,106.541,11,-178.905,0\Gh,21,1.09675,14,106.015,12,-169.036,0\Gh,21,1.0976,14,112.566,12,74.1187,0\Gh,21,1.53722,14,113.982,12,-53.3109,0\Gh,24,1.09608,21,108.086,14,-63.5747,0\Gh,24,1.09756,21,110.284,14,178.1,0\Gh,24,1.53762,21,110.381,14,59.0394,0\Gh,27,1.09621,24,109.825,21,64.914,0\Gh,27,1.09724,24,112.512,21,179.912,0\Gh,27,1.53779,24,109.365,21,-58.4386,0\Gh,30,1.09654,27,111.544,24,172.464,0\Gh,30,1.09662,27,114.359,24,-65.9422,0\O,17,1.9159,16,158.658,14,74.5269,0\S,33,1.49697,17,141.727,16,70.8669,0\C,34,1.80653,33,99.4416,17,141.528,0\H,35,1.09315,34,107.089,33,179.059,0\H,35,1.09328,34,107.635,33,-55.5424,0\H,35,1.09333,34,109.541,33,56.2453,0\C,34,1.80703,33,102.389,17,36.7738,0\H,39,1.0924,34,115.453,33,62.1307,0\H,39,1.09322,34,109.113,33,-61.6714,0\H,39,1.09367,34,107.264,33,-174.714,0\H,17,2.27169,16,118.766,14,-142.695,0\C,43,1.09303,17,148.488,16,94.1419,0\H,44,1.09226,43,113.404,17,152.884,0\H,44,1.09293,43,114.402,17,27.8082,0\S,44,1.80723,43,108.602,17,-90.7446,0\O,47,1.49766,44,98.894,43,-38.2433,0\C,47,1.80707,44,99.4916,43,63.838,0\H,49,1.09255,47,111.181,44,-30.5089,0\H,49,1.09271,47,113.574,44,86.3025,0\H,49,1.09379,47,105.103,44,-147.465,0\H,52,2.08247,49,139.279,47,66.4943,0\C,53,1.09313,52,154.138,49,164.622,0\H,54,1.09252,53,116.28,52,101.401,0\H,54,1.09401,53,107.094,52,-135.372,0\S,54,1.80644,53,103.822,52,-16.0881,0\O,57,1.49679,54,100.3,53,36.8435,0\C,57,1.80764,54,102.79,53,-65.5891,0\H,59,1.0921,57,112.431,54,-65.9015,0\H,59,1.0937,57,101.793,54,168.652,0\H,59,1.09389,57,99.248,54,55.6402,0\H,51,2.14484,49,151.322,47,-45.8364,0\C,63,1.09292,51,109.893,49,-52.8954,0\H,64,1.09317,63,110.65,51,-119.08,0\H,64,1.09333,63,108.532,51,-7.54814,0\S,64,1.80716,63,116.814,51,115.429,0\O,67,1.49787,64,97.1897,63,-37.1027,0\C,67,1.80638,64,90.2325,63,69.0203,0\H,69,1.09304,67,100.35,64,-71.2726,0\H,69,1.09325,67,111.349,64,175.937,0\H,69,1.09344,67,115.812,64,47.9856,0\O,63,2.23936,51,78.2057,49,153.666,0\S,73,1.49627,63,107.609,51,-174.224,0\C,74,1.80684,73,106.4,63,-179.189,0\H,75,1.09249,74,107.123,73,153.627,0\H,75,1.09274,74,113.846,73,-87.2594,0\H,75,1.09285,74,107.291,73,37.3041,0\C,74,1.8074,73,108.7,63,-71.3445,0\H,79,1.09305,74,109.612,73,82.3583,0\H,79,1.09311,74,109.388,73,-49.4041,0\H,79,1.09354,74,109.499,73,-163.051,0\H,56,2.23964,54,161.534,53,-158.209,0\C,83,1.09312,56,122.401,54,-134.31,0\H,84,1.09216,83,108.166,56,97.5877,0\H,84,1.09365,83,105.189,56,-30.5922,0\S,84,1.80741,83,104.878,56,-146.335,0\O,87,1.49619,84,105.737,83,-72.233,0\C,87,1.80728,84,92.8055,83,-175.84,0\H,89,1.09319,87,111.395,84,41.6567,0\H,89,1.09321,87,96.8254,84,-71.2747,0\H,89,1.0937,87,113.133,84,172.543,0\H,61,2.24737,59,126.609,57,-76.2313,0\C,93,1.09278,61,113.912,59,-131.173,0\H,94,1.09212,93,113.149,61,-102.959,0\H,94,1.09323,93,113.411,61,22.3003,0\S,94,1.80724,93,105.854,61,140.702,0\O,97,1.49635,94,104.505,93,-172.485,0\C,97,1.80636,94,93.5537,93,-69.4118,0\H,99,1.09238,97,106.56,94,74.2703,0\H,99,1.09318,97,109.446,94,-53.3047,0\H,99,1.09383,97,108.771,94,-167.189,0\H,45,2.28444,44,132.663,43,51.4239,0\C,103,1.09337,45,112.868,44,88.2686,0\H,104,1.09258,103,118.955,45,-10.5729,0\H,104,1.09267,103,105.61,45,-134.541,0\S,104,1.8069,103,101.881,45,116.736,0\O,107,1.49676,104,99.2895,103,149.468,0\C,107,1.80756,104,97.1771,103,-110.43,0\H,109,1.09242,107,109.069,104,-38.349,0\H,109,1.09251,107,101.782,104,72.423,0\H,109,1.09321,107,110.387,104,-171.902,0\H,106,2.13386,104,116.621,103,126.848,0\C,113,1.09292,106,131.642,104,106.983,0\H,114,1.0931,113,103.71,106,54.2531,0\H,114,1.09387,113,118.697,106,-71.3555,0\S,114,1.80669,113,106.386,106,170.26,0\O,117,1.49636,114,99.7123,113,179.435,0\C,117,1.80759,114,93.3075,113,68.894,0\H,119,1.0926,117,108.192,114,56.3959,0\H,119,1.09267,117,96.527,114,176.096,0\H,119,1.09362,117,113.75,114,-65.8742,0\H,36,2.30295,35,91.8192,34,-78.1836,0\C,123,1.09255,36,140.399,35,71.8986,0\H,124,1.09275,123,105.42,36,-73.3516,0\H,124,1.09305,123,118.017,36,53.1862,0\S,124,1.80705,123,110.787,36,171.665,0\O,127,1.49701,124,100.128,123,64.6311,0\C,127,1.80715,124,97.0375,123,165.063,0\H,129,1.09248,127,108.44,124,-145.127,0\H,129,1.09288,127,110.736,124,-25.6966,0\H,129,1.09343,127,99.2311,124,98.4819,0\H,23,2.30825,21,166,14,-77.2457,0\C,133,1.09266,23,137.341,21,-109.472,0\H,134,1.09259,133,112.648,23,112.355,0\H,134,1.09307,133,112.856,23,-131.938,0\S,134,1.80746,133,112.175,23,-5.37997,0\O,137,1.49652,134,108.211,133,-173.992,0\C,137,1.80727,134,98.4347,133,-63.0868,0\H,139,1.09225,137,106.931,134,58.8544,0\H,139,1.0925,137,109.883,134,-56.8871,0\H,139,1.09325,137,105.328,134,178.332,0\H,83,2.35291,56,115.368,54,20.4271,0\C,143,1.09317,83,162.661,56,-49.1096,0\H,144,1.09264,143,106.136,83,148.646,0\H,144,1.09306,143,102.222,83,-83.499,0\S,144,1.80762,143,110.63,83,33.6534,0\O,147,1.4978,144,100.63,143,-176.465,0\C,147,1.80676,144,98.9167,143,77.9882,0\H,149,1.09269,147,113.445,144,-57.9167,0\H,149,1.09317,147,105.014,144,60.6311,0\H,149,1.09327,147,107.578,144,-178.642,0\H,42,2.35598,39,145.997,34,128.603,0\C,153,1.09306,42,151.574,39,0.630834,0\H,154,1.09225,153,101.577,42,-38.2576,0\H,154,1.09297,153,108.462,42,-159.681,0\S,154,1.80768,153,106.571,42,74.8532,0\O,157,1.49689,154,104.346,153,-49.5775,0\C,157,1.80705,154,96.8988,153,-160.593,0\H,159,1.0924,157,105.333,154,64.9645,0\H,159,1.09254,157,103.131,154,-53.5676,0\H,159,1.093,157,112.423,154,-176.466,0\H,155,2.30704,154,100.341,153,-134.117,0\C,163,1.09356,155,100.22,154,-176.958,0\H,164,1.09263,163,115.146,155,63.0694,0\H,164,1.0933,163,111.121,155,-174.064,0\S,164,1.8076,163,109.444,155,-53.4491,0\O,167,1.49652,164,101.505,163,157.413,0\C,167,1.80668,164,100.826,163,-93.9748,0\H,169,1.09293,167,110.568,164,71.607,0\H,169,1.09319,167,106.494,164,-163.328,0\H,169,1.09327,167,113.063,164,-51.3886,0\O,153,2.32822,42,63.9125,39,-177.034,0\S,173,1.49677,153,115.362,42,-58.1923,0\C,174,1.80626,173,107.8,153,-139.069,0\H,175,1.0926,174,109.49,173,-81.0878,0\H,175,1.0935,174,107.963,173,163.301,0\H,175,1.09361,174,108.899,173,53.8865,0\C,174,1.80774,173,104.159,153,-34.3467,0\H,179,1.09253,174,104.589,173,-51.7653,0\H,179,1.09295,174,111.149,173,60.2666,0\H,179,1.09385,174,107.775,173,-167.228,0\H,90,2.36883,89,98.265,87,-138.143,0\C,183,1.09321,90,117.704,89,-77.2408,0\H,184,1.09292,183,110.959,90,-112.031,0\H,184,1.09349,183,108.785,90,10.5344,0\S,184,1.80732,183,105.844,90,124.309,0\O,187,1.49703,184,102.983,183,-74.0648,0\C,187,1.80725,184,94.4937,183,-177.981,0\H,189,1.09251,187,112.911,184,71.7263,0\H,189,1.0929,187,98.7738,184,-47.0875,0\H,189,1.0931,187,112.847,184,-159.335,0\H,192,2.02459,189,155.078,187,-61.6731,0\C,193,1.09301,192,114.311,189,9.76979,0\H,194,1.09273,193,106.466,192,159.211,0\H,194,1.09296,193,109.164,192,42.8911,0\S,194,1.80658,193,112.354,192,-84.4822,0\O,197,1.49677,194,103.475,193,-137.677,0\C,197,1.80731,194,99.0618,193,-34.939,0\H,199,1.09295,197,106.774,194,64.792,0\H,199,1.09301,197,110.179,194,-177.318,0\H,199,1.09336,197,112.445,194,-53.4597,0\H,195,2.03967,194,128.225,193,-79.214,0\C,203,1.09304,195,140.158,194,-39.929,0\H,204,1.09295,203,108.695,195,120.714,0\H,204,1.09339,203,107.504,195,7.21486,0\S,204,1.80643,203,114.452,195,-116.668,0\O,207,1.49713,204,102.861,203,153.296,0\C,207,1.80704,204,98.752,203,37.6709,0\H,209,1.09262,207,106.928,204,147.806,0\H,209,1.09293,207,105.188,204,31.4495,0\H,209,1.09303,207,111.331,204,-84.548,0\H,185,2.2216,184,161.885,183,42.645,0\C,213,1.09255,185,111.089,184,-53.8377,0\H,214,1.09251,213,108.816,185,22.7397,0\H,214,1.09295,213,115.979,185,157.186,0\S,214,1.80666,213,108.989,185,-88.2981,0\O,217,1.49681,214,107.004,213,67.6372,0\C,217,1.80713,214,92.2821,213,-41.4907,0\H,219,1.09273,217,107.563,214,-167.955,0\H,219,1.0929,217,110.23,214,71.3203,0\H,219,1.09318,217,114.256,214,-46.0889,0\H,190,2.34679,189,133.7,187,78.146,0\C,223,1.0937,190,107.011,189,-124.32,0\H,224,1.0927,223,106.431,190,19.9086,0\H,224,1.09375,223,120.361,190,-108.473,0\S,224,1.80649,223,102.733,190,129.095,0\O,227,1.49704,224,98.0451,223,62.184,0\C,227,1.80695,224,95.9032,223,170.507,0\H,229,1.09243,227,111.445,224,-16.2674,0\H,229,1.09288,227,100.432,224,111.577,0\H,229,1.09323,227,102.633,224,-143.117,0\H,26,2.38482,24,133.152,21,-156.186,0\C,233,1.09362,26,163.698,24,155.851,0\H,234,1.0934,233,107.546,26,-30.0853,0\H,234,1.09345,233,112.394,26,89.6108,0\S,234,1.8064,233,108.256,26,-153.962,0\O,237,1.49674,234,105.189,233,-78.9181,0\C,237,1.80696,234,95.7491,233,178.41,0\H,239,1.09282,237,114.237,234,40.8639,0\H,239,1.09294,237,109.71,234,157.114,0\H,239,1.09304,237,99.4639,234,-83.0379,0\H,240,2.03653,239,165.13,237,90.3322,0\C,243,1.09265,240,105.826,239,168.913,0\H,244,1.09318,243,119.129,240,-129.025,0\H,244,1.0933,243,117.094,240,-3.85923,0\S,244,1.80686,243,109.956,240,114.657,0\O,247,1.49691,244,106.753,243,-51.2794,0\C,247,1.80698,244,92.5542,243,50.5214,0\H,249,1.09248,247,111.254,244,-167.872,0\H,249,1.09271,247,113.719,244,73.3472,0\H,249,1.093,247,109.639,244,-55.2538,0\H,252,1.98081,249,132.126,247,-51.2208,0\C,253,1.09284,252,129.782,249,-113.108,0\H,254,1.09281,253,116.111,252,-135.195,0\H,254,1.09329,253,109.379,252,-14.0908,0\S,254,1.80722,253,110.331,252,96.5576,0\O,257,1.49638,254,101.785,253,-168.375,0\C,257,1.80737,254,92.569,253,81.5805,0\H,259,1.09267,257,101.854,254,176.815,0\H,259,1.09272,257,102.87,254,61.8426,0\H,259,1.09403,257,113.461,254,-57.139,0\H,248,2.37572,247,116.152,244,-170.483,0\C,263,1.09362,248,136.757,247,148.322,0\H,264,1.09247,263,114.007,248,115.697,0\H,264,1.09291,263,110.544,248,-124,0\S,264,1.80737,263,108.631,248,-13.4136,0\O,267,1.49663,264,100.603,263,-170.897,0\C,267,1.80663,264,92.212,263,-63.2846,0\H,269,1.09247,267,109.279,264,-70.7488,0\H,269,1.09334,267,104.906,264,45.1033,0\H,269,1.09348,267,109.653,264,161.1,0\H,260,2.40103,259,121.1,257,-93.1606,0\C,273,1.09317,260,140.116,259,-89.1852,0\H,274,1.09303,273,107.5,260,-70.3858,0\H,274,1.09311,273,114.495,260,54.8727,0\S,274,1.80744,273,109.523,260,173.31,0\O,277,1.49657,274,105.808,273,70.3455,0\C,277,1.80715,274,97.9411,273,-178.189,0\H,279,1.09238,277,113.727,274,-53.7815,0\H,279,1.09251,277,113.244,274,-179.021,0\H,279,1.09313,277,105.91,274,58.68,0\H,221,2.40428,219,128.554,217,45.8284,0\C,283,1.09383,221,98.1738,219,109.938,0\H,284,1.09227,283,115.317,221,-41.9516,0\H,284,1.09242,283,105.644,221,76.2477,0\S,284,1.80725,283,111.89,221,-151.96,0\O,287,1.49628,284,98.9543,283,-66.7774,0\C,287,1.80632,284,94.5195,283,37.0106,0\H,289,1.09259,287,110.442,284,-65.82,0\H,289,1.09296,287,107.269,284,52.4273,0\H,289,1.093,287,108.329,284,170.612,0\H,106,2.41015,104,147.899,103,35.7635,0\C,293,1.09313,106,135.562,104,14.0636,0\H,294,1.09271,293,109.367,106,71.4607,0\H,294,1.09295,293,111.892,106,-54.11,0\S,294,1.807,293,109.165,106,-171.082,0\O,297,1.49667,294,108.929,293,-99.0821,0\C,297,1.80702,294,89.8395,293,161.529,0\H,299,1.09253,297,112.42,294,-106.26,0\H,299,1.09273,297,98.0938,294,146.483,0\H,299,1.09347,297,116.29,294,23.7682,0\H,281,2.58722,279,109.052,277,114.198,0\C,303,1.09304,281,123.183,279,175.47,0\H,304,1.09271,303,113.805,281,-31.6506,0\H,304,1.09294,303,114.254,281,87.5745,0\S,304,1.80679,303,108.966,281,-146.67,0\O,307,1.49727,304,97.0998,303,-52.805,0\C,307,1.80754,304,90.3481,303,-165.279,0\H,309,1.09268,307,103.814,304,162.285,0\H,309,1.09322,307,118.929,304,36.3713,0\H,309,1.09352,307,110.554,304,-90.6901,0\\\@

 Total job time:  73.78s(wall), 257.03s(cpu) 
 Fri Mar 12 16:44:17 2021

        *************************************************************
        *                                                           *
        *  Thank you very much for using Q-Chem.  Have a nice day.  *
        *                                                           *
        *************************************************************


