                  Welcome to Q-Chem
     A Quantum Leap Into The Future Of Chemistry


 Q-Chem 5.2 (devel), Q-Chem, Inc., Pleasanton, CA (2019)

 Yihan Shao,  Zhengting Gan,  E. Epifanovsky,  A. T. B. Gilbert,  M. Wormit,  
 J. Kussmann,  A. W. Lange,  A. Behn,  Jia Deng,  Xintian Feng,  D. Ghosh,  
 M. Goldey,  P. R. Horn,  L. D. Jacobson,  I. Kaliman,  T. Kus,  A. Landau,  
 Jie Liu,  E. I. Proynov,  R. M. Richard,  R. P. Steele,  E. J. Sundstrom,  
 H. L. Woodcock III,  P. M. Zimmerman,  D. Zuev,  B. Alam,  B. Albrecht,  
 E. Alguire,  S. A. Baeppler,  D. Barton,  Z. Benda,  Y. A. Bernard,  
 E. J. Berquist,  K. B. Bravaya,  H. Burton,  K. Carter-Fenk,  D. Casanova,  
 Chun-Min Chang,  Yunqing Chen,  A. Chien,  K. D. Closser,  M. P. Coons,  
 S. Coriani,  S. Dasgupta,  A. L. Dempwolff,  M. Diedenhofen,  Hainam Do,  
 R. G. Edgar,  Po-Tung Fang,  S. Faraji,  S. Fatehi,  Qingguo Feng,  
 J. Fosso-Tande,  J. Gayvert,  Qinghui Ge,  A. Ghysels,  G. Gidofalvi,  
 J. Gomes,  J. Gonthier,  A. Gunina,  D. Hait,  M. W. D. Hanson-Heine,  
 P. H. P. Harbach,  A. W. Hauser,  M. F. Herbst,  J. E. Herr,  
 E. G. Hohenstein,  Z. C. Holden,  Kerwin Hui,  B. C. Huynh,  T.-C. Jagau,  
 Hyunjun Ji,  B. Kaduk,  K. Khistyaev,  Jaehoon Kim,  P. Klunzinger,  K. Koh,  
 D. Kosenkov,  L. Koulias,  T. Kowalczyk,  C. M. Krauter,  A. Kunitsa,  
 Ka Un Lao,  A. Laurent,  K. V. Lawler,  Joonho Lee,  D. Lefrancois,  
 S. Lehtola,  D. S. Levine,  Yi-Pei Li,  You-Sheng Lin,  Fenglai Liu,  
 Kuan-Yu Liu,  E. Livshits,  M. Loipersberger,  A. Luenser,  P. Manohar,  
 E. Mansoor,  S. F. Manzer,  Shan-Ping Mao,  Yuezhi Mao,  N. Mardirossian,  
 A. V. Marenich,  T. Markovich,  L. A. Martinez-Martinez,  S. A. Maurer,  
 N. J. Mayhall,  S. C. McKenzie,  J.-M. Mewes,  P. Morgante,  A. F. Morrison,  
 J. W. Mullinax,  K. Nanda,  T. S. Nguyen-Beck,  R. Olivares-Amaya,  
 J. A. Parkhill,  S. K. Paul,  F. Pavosevic,  Zheng Pei,  T. M. Perrine,  
 F. Plasser,  P. Pokhilko,  S. Prager,  A. Prociuk,  E. Ramos,  B. Rana,  
 D. R. Rehn,  F. Rob,  M. Scheurer,  M. Schneider,  N. Sergueev,  
 S. M. Sharada,  S. Sharma,  D. W. Small,  T. Stauch,  C. J. Stein,  
 T. Stein,  Yu-Chuan Su,  S. P. Veccham,  Zhen Tao,  A. J. W. Thom,  
 A. Tkatchenko,  T. Tsuchimochi,  N. M. Tubman,  L. Vogt,  M. L. Vidal,  
 O. Vydrov,  M. A. Watson,  J. Wenzel,  M. de Wergifosse,  T. A. Wesolowski,  
 A. White,  J. Witte,  A. Yamada,  Jun Yang,  K. Yao,  S. Yeganeh,  
 S. R. Yost,  Zhi-Qiang You,  A. Zech,  Igor Ying Zhang,  Xing Zhang,  
 Yan Zhao,  Ying Zhu,  B. R. Brooks,  G. K. L. Chan,  C. J. Cramer,  
 M. S. Gordon,  W. J. Hehre,  A. Klamt,  M. W. Schmidt,  C. D. Sherrill,  
 D. G. Truhlar,  A. Aspuru-Guzik,  R. Baer,  A. T. Bell,  N. A. Besley,  
 Jeng-Da Chai,  A. E. DePrince, III,  R. A. DiStasio Jr.,  A. Dreuw,  
 B. D. Dunietz,  T. R. Furlani,  Chao-Ping Hsu,  Yousung Jung,  Jing Kong,  
 D. S. Lambrecht,  WanZhen Liang,  C. Ochsenfeld,  V. A. Rassolov,  
 L. V. Slipchenko,  J. E. Subotnik,  T. Van Voorhis,  J. M. Herbert,  
 A. I. Krylov,  P. M. W. Gill,  M. Head-Gordon

 Contributors to earlier versions of Q-Chem not listed above: 
 R. D. Adamson,  B. Austin,  J. Baker,  G. J. O. Beran,  K. Brandhorst,  
 S. T. Brown,  E. F. C. Byrd,  A. K. Chakraborty,  C.-L. Cheng,  
 Siu Hung Chien,  D. M. Chipman,  D. L. Crittenden,  H. Dachsel,  
 R. J. Doerksen,  A. D. Dutoi,  L. Fusti-Molnar,  W. A. Goddard III,  
 A. Golubeva-Zadorozhnaya,  S. R. Gwaltney,  G. Hawkins,  A. Heyden,  
 S. Hirata,  G. Kedziora,  F. J. Keil,  C. Kelley,  Jihan Kim,  R. A. King,  
 R. Z. Khaliullin,  P. P. Korambath,  W. Kurlancheek,  A. M. Lee,  M. S. Lee,  
 S. V. Levchenko,  Ching Yeh Lin,  D. Liotard,  R. C. Lochan,  I. Lotan,  
 P. E. Maslen,  N. Nair,  D. P. O'Neill,  D. Neuhauser,  E. Neuscamman,  
 C. M. Oana,  R. Olson,  B. Peters,  R. Peverati,  P. A. Pieniazek,  
 Y. M. Rhee,  J. Ritchie,  M. A. Rohrdanz,  E. Rosta,  N. J. Russ,  
 H. F. Schaefer III,  N. E. Schultz,  N. Shenvi,  A. C. Simmonett,  A. Sodt,  
 D. Stuck,  K. S. Thanthiriwatte,  V. Vanovschi,  Tao Wang,  A. Warshel,  
 C. F. Williams,  Q. Wu,  X. Xu,  W. Zhang

 Please cite Q-Chem as follows:
 Y. Shao et al., Mol. Phys. 113, 184-215 (2015)
 DOI: 10.1080/00268976.2014.952696

 Q-Chem 5.2.2 for Intel X86 EM64T Linux

 Parts of Q-Chem use Armadillo 9.800.1 (Horizon Scraper).
 http://arma.sourceforge.net/

 Q-Chem begins on Thu Mar 11 13:37:38 2021  

Host: n0085.mhg0
0

     Scratch files written to /local/scratch/users/ymao/r7.00_frame_0062_almo_B3LYP_dp.in20210311133735//

Checking the input file for inconsistencies... 	...done.

--------------------------------------------------------------
User input:
--------------------------------------------------------------
$molecule
0 1
--
0 1
C    24.25400   24.60800   25.74100  
C    25.66000   24.12000   26.12800  
C    26.46900   23.56600   24.94400  
C    26.42700   24.42500   23.67000  
C    25.02000   24.86300   23.22900  
C    24.33200   25.46300   24.46600  
H    27.49200   23.30300   25.24000  
H    26.18400   24.98400   26.55500  
H    23.54200   23.77400   25.69300  
H    23.87100   25.19400   26.58500  
H    27.06400   25.29400   23.87300  
H    26.92000   23.87300   22.86000  
H    25.08900   25.59700   22.41800  
H    24.34900   24.05200   22.92000  
H    24.77100   26.42200   24.76800  
H    23.26400   25.45300   24.21500  
H    26.07300   22.61200   24.57400  
N    25.71400   23.08700   27.16100  
H    25.73600   22.10200   26.92800  
C    25.87000   23.35600   28.50500  
H    26.07300   22.44800   29.10100  
O    25.64100   24.43100   29.03000  
--
0 1
C    25.95000   28.33800   27.06500  
H    26.69900   29.09700   27.30900  
H    25.45400   28.05500   27.99600  
H    26.46200   27.44700   26.69400  
S    24.85600   29.03500   25.80700  
C    24.83100   30.62900   26.65600  
H    24.08200   31.25500   26.16300  
H    24.48500   30.43400   27.67400  
H    25.78800   31.15700   26.68800  
O    23.48200   28.46500   25.97100  
C    21.23800   26.41300   33.61700  
H    20.69200   26.11200   32.71900  
H    20.73000   25.85400   34.40700  
H    21.05700   27.47900   33.77800  
S    23.00300   26.02700   33.59300  
C    22.68900   24.24700   33.58600  
H    22.07000   23.91600   34.42400  
H    22.10900   24.22600   32.66000  
H    23.61900   23.67300   33.55500  
O    23.57600   26.27400   34.95400  
C    28.04500   26.88000   29.87200  
H    27.58100   27.84000   29.63100  
H    27.30900   26.07400   29.80900  
H    28.45100   26.90300   30.88700  
S    29.26900   26.57600   28.57800  
C    29.64500   24.97800   29.33200  
H    30.11900   25.23700   30.28200  
H    28.82200   24.27800   29.49700  
H    30.34900   24.48800   28.65500  
O    30.38400   27.47200   29.01900  
C    33.83900   22.38600   32.32400  
H    34.63700   22.66400   31.63000  
H    33.68200   23.25700   32.96500  
H    34.08200   21.47900   32.88400  
S    32.24700   21.92800   31.60200  
C    32.82200   20.96700   30.18400  
H    31.95100   20.78200   29.55100  
H    33.62600   21.45300   29.62400  
H    33.33900   20.09900   30.59900  
O    31.82300   23.22400   30.98300  
C    31.65300   21.76600   23.81600  
H    32.53700   21.40100   23.28700  
H    31.93800   22.79300   24.05700  
H    31.41700   21.19100   24.71500  
S    30.22400   21.74400   22.71100  
C    31.22700   22.32600   21.32500  
H    31.65600   23.24400   21.73600  
H    31.98900   21.57300   21.10600  
H    30.57300   22.60300   20.49400  
O    29.33600   22.89300   23.07600  
C    23.16800   20.23900   34.55500  
H    22.15700   20.18700   34.96900  
H    23.84700   19.87700   35.33100  
H    23.32800   21.24800   34.16700  
S    22.97500   18.95800   33.29400  
C    24.31000   19.63500   32.28300  
H    25.18000   19.80000   32.92300  
H    24.59600   18.90600   31.52000  
H    24.04900   20.56500   31.77100  
O    21.80100   19.36000   32.45600  
C    29.43400   19.95900   28.49600  
H    29.57700   20.20600   29.55100  
H    28.47200   19.50200   28.25100  
H    30.19000   19.18500   28.33900  
S    29.62000   21.46600   27.51800  
C    29.04700   20.79100   25.94200  
H    27.97800   20.73400   26.16100  
H    29.31000   21.62500   25.28500  
H    29.59100   19.86800   25.72700  
O    31.09600   21.57200   27.29300  
C    26.50900   22.47300   19.90900  
H    26.72600   22.69000   18.86000  
H    25.63200   23.06100   20.19000  
H    27.35600   22.58900   20.59000  
S    26.08000   20.72400   20.06000  
C    27.69300   20.21900   19.42000  
H    27.84400   20.74500   18.47500  
H    28.50500   20.44700   20.11500  
H    27.72100   19.12600   19.42300  
O    25.35500   20.47500   18.77400  
C    26.47500   32.69200   29.43500  
H    25.65700   33.16200   29.98600  
H    27.37100   33.31600   29.38800  
H    26.25200   32.47500   28.38700  
S    26.90300   31.17300   30.31500  
C    28.32500   30.73100   29.29100  
H    28.66100   29.72600   29.56000  
H    28.01900   30.74800   28.24200  
H    29.14800   31.44800   29.34400  
O    25.91900   30.13300   29.87700  
C    28.96800   22.70100   32.44000  
H    29.15500   23.28800   33.34300  
H    29.32300   21.68900   32.65200  
H    29.40700   23.09800   31.52100  
S    27.19200   22.55700   32.13500  
C    26.95000   24.34200   32.00100  
H    27.62900   24.84300   31.30700  
H    25.95900   24.62200   31.63400  
H    27.04400   24.79200   32.99300  
O    26.51500   22.38500   33.45900  
C    20.81300   23.30900   23.16800  
H    20.17600   24.01100   23.71300  
H    21.72600   23.34200   23.76800  
H    20.88400   23.51400   22.09700  
S    20.22100   21.60200   23.22400  
C    21.87000   21.14700   22.64200  
H    22.54700   21.48100   23.43300  
H    21.83500   20.05900   22.53800  
H    22.01700   21.51800   21.62500  
O    19.22000   21.45400   22.12100  
C    19.48700   26.64700   23.24400  
H    20.55400   26.80900   23.41700  
H    19.31600   25.71200   22.70300  
H    19.28700   27.51800   22.61500  
S    18.79800   26.75700   24.91100  
C    19.74100   28.24900   25.30000  
H    19.48100   29.07200   24.62900  
H    19.29100   28.55200   26.24900  
H    20.80900   28.06300   25.43800  
O    19.47300   25.62500   25.62100  
C    22.22700   30.06000   23.38100  
H    22.73200   30.79700   24.01000  
H    21.62400   29.44200   24.05100  
H    22.92300   29.40200   22.85400  
S    21.10100   30.81200   22.18400  
C    20.27000   31.95200   23.31300  
H    20.84600   32.82100   23.64000  
H    19.34100   32.31300   22.86500  
H    19.76100   31.50400   24.16900  
O    20.13800   29.69000   21.94900  
C    30.58800   27.92100   23.54800  
H    30.17300   27.24200   22.79800  
H    30.13100   28.88600   23.31400  
H    31.67400   28.01900   23.47300  
S    29.88300   27.61400   25.18300  
C    29.97400   25.81000   25.12200  
H    29.47500   25.37000   25.98900  
H    29.39600   25.60500   24.21700  
H    30.97500   25.41800   24.92300  
O    28.40900   27.85300   25.08300  
C    27.63700   26.95700   20.39700  
H    28.48400   26.73500   19.74300  
H    27.70400   26.27500   21.24800  
H    26.70800   26.79100   19.84600  
S    27.59700   28.60800   21.13000  
C    26.29900   28.30400   22.35000  
H    25.86800   29.25700   22.66600  
H    25.48400   27.81400   21.81100  
H    26.50300   27.62300   23.18000  
O    26.96200   29.47900   20.09100  
C    29.46600   33.13300   24.19300  
H    28.52400   33.57600   23.85900  
H    30.15500   33.77400   24.74900  
H    30.08200   32.63800   23.43700  
S    29.05600   31.75600   25.28800  
C    28.07200   30.94700   24.00600  
H    27.19700   31.57200   23.81100  
H    28.54900   30.67900   23.06000  
H    27.69800   30.04500   24.49700  
O    28.02700   32.22400   26.26900  
C    29.48300   24.80400   17.94900  
H    28.52000   24.45500   18.33000  
H    30.22700   25.07800   18.70100  
H    29.33600   25.56300   17.17600  
S    30.25700   23.47700   16.99700  
C    28.73400   22.79100   16.30600  
H    28.41500   21.98900   16.97700  
H    27.93100   23.47800   16.02800  
H    28.93900   22.14200   15.45000  
O    30.46700   22.35500   17.96500  
C    23.41700   27.45000   30.01800  
H    22.75300   28.01500   30.67800  
H    24.26000   27.14700   30.64400  
H    23.76300   28.07500   29.19000  
S    22.45600   26.08100   29.33300  
C    21.31900   27.00500   28.27600  
H    20.39100   26.46500   28.07100  
H    21.17000   28.00400   28.69400  
H    21.90400   27.29300   27.39900  
O    21.53800   25.63500   30.42800  
C    21.99600   22.95700   19.01000  
H    21.50600   21.98800   19.13300  
H    23.03300   22.90600   18.66800  
H    22.02800   23.41000   20.00400  
S    20.89100   23.67700   17.77500  
C    19.31700   23.54100   18.65200  
H    18.58100   23.56300   17.84400  
H    19.26100   22.60100   19.20700  
H    19.31400   24.41300   19.31100  
O    20.86200   22.50200   16.84800  
C    22.06800   22.32100   28.72000  
H    21.60600   21.43600   29.16400  
H    23.09400   22.09300   28.42100  
H    22.02600   23.13200   29.45300  
S    21.15000   22.70800   27.21300  
C    19.53200   22.98200   27.96800  
H    18.95300   22.09400   28.23700  
H    19.86700   23.41800   28.91300  
H    18.91200   23.69000   27.41200  
O    20.92100   21.40600   26.51100  
C    23.33700   28.97800   19.63300  
H    24.25900   29.27600   19.12800  
H    22.52100   29.67000   19.41100  
H    23.66200   28.95500   20.67600  
S    23.03300   27.23800   19.25100  
C    21.71600   26.80300   20.40900  
H    20.98100   27.61000   20.46400  
H    21.21800   25.83900   20.28000  
H    22.20500   26.73500   21.38500  
O    24.10700   26.39000   19.85900  
C    28.41000   24.50500   35.82700  
H    27.49800   24.15300   35.33700  
H    29.25200   23.87500   35.53100  
H    28.21300   24.47300   36.90200  
S    28.78300   26.20300   35.33400  
C    27.14800   26.93100   35.58300  
H    27.03200   26.99000   36.66900  
H    27.23500   27.90900   35.10200  
H    26.36500   26.42100   35.01700  
O    28.84500   26.12900   33.84000  
C    25.95800   17.70900   27.46700  
H    25.60600   16.68100   27.58400  
H    26.07600   17.88700   26.39500  
H    26.93400   17.80500   27.95000  
S    24.86900   18.96800   28.16800  
C    23.73100   18.86300   26.76900  
H    24.19700   19.37900   25.92500  
H    23.55700   17.80700   26.54500  
H    22.90400   19.49000   27.11100  
O    25.70100   20.18200   27.89700  
C    24.80300   23.82600   16.11400  
H    24.75100   24.07900   15.05200  
H    25.51700   23.01100   16.25500  
H    23.79100   23.61800   16.47000  
S    25.31600   25.27700   17.06100  
C    24.27600   26.37000   16.06500  
H    24.39400   26.27600   14.98300  
H    23.23400   26.24500   16.37000  
H    24.42600   27.39500   16.41200  
O    26.75800   25.44300   16.69700  
$end

$rem
JOBTYPE  SP
METHOD  B3LYP
BASIS  6-31+G(D)
SYMMETRY  FALSE
SYM_IGNORE  TRUE
MEM_TOTAL  16000
MEM_STATIC  8000
MAX_SUB_FILE_NUM  16000
BASIS_LIN_DEP_THRESH  6
THRESH  14
SCF_CONVERGENCE  8
GEN_SCFMAN  TRUE
SCF_GUESS  FRAGMO
FD_MAT_VEC_PROD  FALSE
XC_GRID  000075000302
NL_GRID  1
MAX_SCF_CYCLES  200
FRGM_METHOD  STOLL
SCFMI_MODE  1
$end

$development
almo_efield  1
$end

$rem_frgm
SCF_CONVERGENCE  4
$end

--------------------------------------------------------------
 ----------------------------------------------------------------
             Standard Nuclear Orientation (Angstroms)
    I     Atom           X                Y                Z
 ----------------------------------------------------------------
    1      C      24.2540000000    24.6080000000    25.7410000000
    2      C      25.6600000000    24.1200000000    26.1280000000
    3      C      26.4690000000    23.5660000000    24.9440000000
    4      C      26.4270000000    24.4250000000    23.6700000000
    5      C      25.0200000000    24.8630000000    23.2290000000
    6      C      24.3320000000    25.4630000000    24.4660000000
    7      H      27.4920000000    23.3030000000    25.2400000000
    8      H      26.1840000000    24.9840000000    26.5550000000
    9      H      23.5420000000    23.7740000000    25.6930000000
   10      H      23.8710000000    25.1940000000    26.5850000000
   11      H      27.0640000000    25.2940000000    23.8730000000
   12      H      26.9200000000    23.8730000000    22.8600000000
   13      H      25.0890000000    25.5970000000    22.4180000000
   14      H      24.3490000000    24.0520000000    22.9200000000
   15      H      24.7710000000    26.4220000000    24.7680000000
   16      H      23.2640000000    25.4530000000    24.2150000000
   17      H      26.0730000000    22.6120000000    24.5740000000
   18      N      25.7140000000    23.0870000000    27.1610000000
   19      H      25.7360000000    22.1020000000    26.9280000000
   20      C      25.8700000000    23.3560000000    28.5050000000
   21      H      26.0730000000    22.4480000000    29.1010000000
   22      O      25.6410000000    24.4310000000    29.0300000000
   23      C      25.9500000000    28.3380000000    27.0650000000
   24      H      26.6990000000    29.0970000000    27.3090000000
   25      H      25.4540000000    28.0550000000    27.9960000000
   26      H      26.4620000000    27.4470000000    26.6940000000
   27      S      24.8560000000    29.0350000000    25.8070000000
   28      C      24.8310000000    30.6290000000    26.6560000000
   29      H      24.0820000000    31.2550000000    26.1630000000
   30      H      24.4850000000    30.4340000000    27.6740000000
   31      H      25.7880000000    31.1570000000    26.6880000000
   32      O      23.4820000000    28.4650000000    25.9710000000
   33      C      21.2380000000    26.4130000000    33.6170000000
   34      H      20.6920000000    26.1120000000    32.7190000000
   35      H      20.7300000000    25.8540000000    34.4070000000
   36      H      21.0570000000    27.4790000000    33.7780000000
   37      S      23.0030000000    26.0270000000    33.5930000000
   38      C      22.6890000000    24.2470000000    33.5860000000
   39      H      22.0700000000    23.9160000000    34.4240000000
   40      H      22.1090000000    24.2260000000    32.6600000000
   41      H      23.6190000000    23.6730000000    33.5550000000
   42      O      23.5760000000    26.2740000000    34.9540000000
   43      C      28.0450000000    26.8800000000    29.8720000000
   44      H      27.5810000000    27.8400000000    29.6310000000
   45      H      27.3090000000    26.0740000000    29.8090000000
   46      H      28.4510000000    26.9030000000    30.8870000000
   47      S      29.2690000000    26.5760000000    28.5780000000
   48      C      29.6450000000    24.9780000000    29.3320000000
   49      H      30.1190000000    25.2370000000    30.2820000000
   50      H      28.8220000000    24.2780000000    29.4970000000
   51      H      30.3490000000    24.4880000000    28.6550000000
   52      O      30.3840000000    27.4720000000    29.0190000000
   53      C      33.8390000000    22.3860000000    32.3240000000
   54      H      34.6370000000    22.6640000000    31.6300000000
   55      H      33.6820000000    23.2570000000    32.9650000000
   56      H      34.0820000000    21.4790000000    32.8840000000
   57      S      32.2470000000    21.9280000000    31.6020000000
   58      C      32.8220000000    20.9670000000    30.1840000000
   59      H      31.9510000000    20.7820000000    29.5510000000
   60      H      33.6260000000    21.4530000000    29.6240000000
   61      H      33.3390000000    20.0990000000    30.5990000000
   62      O      31.8230000000    23.2240000000    30.9830000000
   63      C      31.6530000000    21.7660000000    23.8160000000
   64      H      32.5370000000    21.4010000000    23.2870000000
   65      H      31.9380000000    22.7930000000    24.0570000000
   66      H      31.4170000000    21.1910000000    24.7150000000
   67      S      30.2240000000    21.7440000000    22.7110000000
   68      C      31.2270000000    22.3260000000    21.3250000000
   69      H      31.6560000000    23.2440000000    21.7360000000
   70      H      31.9890000000    21.5730000000    21.1060000000
   71      H      30.5730000000    22.6030000000    20.4940000000
   72      O      29.3360000000    22.8930000000    23.0760000000
   73      C      23.1680000000    20.2390000000    34.5550000000
   74      H      22.1570000000    20.1870000000    34.9690000000
   75      H      23.8470000000    19.8770000000    35.3310000000
   76      H      23.3280000000    21.2480000000    34.1670000000
   77      S      22.9750000000    18.9580000000    33.2940000000
   78      C      24.3100000000    19.6350000000    32.2830000000
   79      H      25.1800000000    19.8000000000    32.9230000000
   80      H      24.5960000000    18.9060000000    31.5200000000
   81      H      24.0490000000    20.5650000000    31.7710000000
   82      O      21.8010000000    19.3600000000    32.4560000000
   83      C      29.4340000000    19.9590000000    28.4960000000
   84      H      29.5770000000    20.2060000000    29.5510000000
   85      H      28.4720000000    19.5020000000    28.2510000000
   86      H      30.1900000000    19.1850000000    28.3390000000
   87      S      29.6200000000    21.4660000000    27.5180000000
   88      C      29.0470000000    20.7910000000    25.9420000000
   89      H      27.9780000000    20.7340000000    26.1610000000
   90      H      29.3100000000    21.6250000000    25.2850000000
   91      H      29.5910000000    19.8680000000    25.7270000000
   92      O      31.0960000000    21.5720000000    27.2930000000
   93      C      26.5090000000    22.4730000000    19.9090000000
   94      H      26.7260000000    22.6900000000    18.8600000000
   95      H      25.6320000000    23.0610000000    20.1900000000
   96      H      27.3560000000    22.5890000000    20.5900000000
   97      S      26.0800000000    20.7240000000    20.0600000000
   98      C      27.6930000000    20.2190000000    19.4200000000
   99      H      27.8440000000    20.7450000000    18.4750000000
  100      H      28.5050000000    20.4470000000    20.1150000000
  101      H      27.7210000000    19.1260000000    19.4230000000
  102      O      25.3550000000    20.4750000000    18.7740000000
  103      C      26.4750000000    32.6920000000    29.4350000000
  104      H      25.6570000000    33.1620000000    29.9860000000
  105      H      27.3710000000    33.3160000000    29.3880000000
  106      H      26.2520000000    32.4750000000    28.3870000000
  107      S      26.9030000000    31.1730000000    30.3150000000
  108      C      28.3250000000    30.7310000000    29.2910000000
  109      H      28.6610000000    29.7260000000    29.5600000000
  110      H      28.0190000000    30.7480000000    28.2420000000
  111      H      29.1480000000    31.4480000000    29.3440000000
  112      O      25.9190000000    30.1330000000    29.8770000000
  113      C      28.9680000000    22.7010000000    32.4400000000
  114      H      29.1550000000    23.2880000000    33.3430000000
  115      H      29.3230000000    21.6890000000    32.6520000000
  116      H      29.4070000000    23.0980000000    31.5210000000
  117      S      27.1920000000    22.5570000000    32.1350000000
  118      C      26.9500000000    24.3420000000    32.0010000000
  119      H      27.6290000000    24.8430000000    31.3070000000
  120      H      25.9590000000    24.6220000000    31.6340000000
  121      H      27.0440000000    24.7920000000    32.9930000000
  122      O      26.5150000000    22.3850000000    33.4590000000
  123      C      20.8130000000    23.3090000000    23.1680000000
  124      H      20.1760000000    24.0110000000    23.7130000000
  125      H      21.7260000000    23.3420000000    23.7680000000
  126      H      20.8840000000    23.5140000000    22.0970000000
  127      S      20.2210000000    21.6020000000    23.2240000000
  128      C      21.8700000000    21.1470000000    22.6420000000
  129      H      22.5470000000    21.4810000000    23.4330000000
  130      H      21.8350000000    20.0590000000    22.5380000000
  131      H      22.0170000000    21.5180000000    21.6250000000
  132      O      19.2200000000    21.4540000000    22.1210000000
  133      C      19.4870000000    26.6470000000    23.2440000000
  134      H      20.5540000000    26.8090000000    23.4170000000
  135      H      19.3160000000    25.7120000000    22.7030000000
  136      H      19.2870000000    27.5180000000    22.6150000000
  137      S      18.7980000000    26.7570000000    24.9110000000
  138      C      19.7410000000    28.2490000000    25.3000000000
  139      H      19.4810000000    29.0720000000    24.6290000000
  140      H      19.2910000000    28.5520000000    26.2490000000
  141      H      20.8090000000    28.0630000000    25.4380000000
  142      O      19.4730000000    25.6250000000    25.6210000000
  143      C      22.2270000000    30.0600000000    23.3810000000
  144      H      22.7320000000    30.7970000000    24.0100000000
  145      H      21.6240000000    29.4420000000    24.0510000000
  146      H      22.9230000000    29.4020000000    22.8540000000
  147      S      21.1010000000    30.8120000000    22.1840000000
  148      C      20.2700000000    31.9520000000    23.3130000000
  149      H      20.8460000000    32.8210000000    23.6400000000
  150      H      19.3410000000    32.3130000000    22.8650000000
  151      H      19.7610000000    31.5040000000    24.1690000000
  152      O      20.1380000000    29.6900000000    21.9490000000
  153      C      30.5880000000    27.9210000000    23.5480000000
  154      H      30.1730000000    27.2420000000    22.7980000000
  155      H      30.1310000000    28.8860000000    23.3140000000
  156      H      31.6740000000    28.0190000000    23.4730000000
  157      S      29.8830000000    27.6140000000    25.1830000000
  158      C      29.9740000000    25.8100000000    25.1220000000
  159      H      29.4750000000    25.3700000000    25.9890000000
  160      H      29.3960000000    25.6050000000    24.2170000000
  161      H      30.9750000000    25.4180000000    24.9230000000
  162      O      28.4090000000    27.8530000000    25.0830000000
  163      C      27.6370000000    26.9570000000    20.3970000000
  164      H      28.4840000000    26.7350000000    19.7430000000
  165      H      27.7040000000    26.2750000000    21.2480000000
  166      H      26.7080000000    26.7910000000    19.8460000000
  167      S      27.5970000000    28.6080000000    21.1300000000
  168      C      26.2990000000    28.3040000000    22.3500000000
  169      H      25.8680000000    29.2570000000    22.6660000000
  170      H      25.4840000000    27.8140000000    21.8110000000
  171      H      26.5030000000    27.6230000000    23.1800000000
  172      O      26.9620000000    29.4790000000    20.0910000000
  173      C      29.4660000000    33.1330000000    24.1930000000
  174      H      28.5240000000    33.5760000000    23.8590000000
  175      H      30.1550000000    33.7740000000    24.7490000000
  176      H      30.0820000000    32.6380000000    23.4370000000
  177      S      29.0560000000    31.7560000000    25.2880000000
  178      C      28.0720000000    30.9470000000    24.0060000000
  179      H      27.1970000000    31.5720000000    23.8110000000
  180      H      28.5490000000    30.6790000000    23.0600000000
  181      H      27.6980000000    30.0450000000    24.4970000000
  182      O      28.0270000000    32.2240000000    26.2690000000
  183      C      29.4830000000    24.8040000000    17.9490000000
  184      H      28.5200000000    24.4550000000    18.3300000000
  185      H      30.2270000000    25.0780000000    18.7010000000
  186      H      29.3360000000    25.5630000000    17.1760000000
  187      S      30.2570000000    23.4770000000    16.9970000000
  188      C      28.7340000000    22.7910000000    16.3060000000
  189      H      28.4150000000    21.9890000000    16.9770000000
  190      H      27.9310000000    23.4780000000    16.0280000000
  191      H      28.9390000000    22.1420000000    15.4500000000
  192      O      30.4670000000    22.3550000000    17.9650000000
  193      C      23.4170000000    27.4500000000    30.0180000000
  194      H      22.7530000000    28.0150000000    30.6780000000
  195      H      24.2600000000    27.1470000000    30.6440000000
  196      H      23.7630000000    28.0750000000    29.1900000000
  197      S      22.4560000000    26.0810000000    29.3330000000
  198      C      21.3190000000    27.0050000000    28.2760000000
  199      H      20.3910000000    26.4650000000    28.0710000000
  200      H      21.1700000000    28.0040000000    28.6940000000
  201      H      21.9040000000    27.2930000000    27.3990000000
  202      O      21.5380000000    25.6350000000    30.4280000000
  203      C      21.9960000000    22.9570000000    19.0100000000
  204      H      21.5060000000    21.9880000000    19.1330000000
  205      H      23.0330000000    22.9060000000    18.6680000000
  206      H      22.0280000000    23.4100000000    20.0040000000
  207      S      20.8910000000    23.6770000000    17.7750000000
  208      C      19.3170000000    23.5410000000    18.6520000000
  209      H      18.5810000000    23.5630000000    17.8440000000
  210      H      19.2610000000    22.6010000000    19.2070000000
  211      H      19.3140000000    24.4130000000    19.3110000000
  212      O      20.8620000000    22.5020000000    16.8480000000
  213      C      22.0680000000    22.3210000000    28.7200000000
  214      H      21.6060000000    21.4360000000    29.1640000000
  215      H      23.0940000000    22.0930000000    28.4210000000
  216      H      22.0260000000    23.1320000000    29.4530000000
  217      S      21.1500000000    22.7080000000    27.2130000000
  218      C      19.5320000000    22.9820000000    27.9680000000
  219      H      18.9530000000    22.0940000000    28.2370000000
  220      H      19.8670000000    23.4180000000    28.9130000000
  221      H      18.9120000000    23.6900000000    27.4120000000
  222      O      20.9210000000    21.4060000000    26.5110000000
  223      C      23.3370000000    28.9780000000    19.6330000000
  224      H      24.2590000000    29.2760000000    19.1280000000
  225      H      22.5210000000    29.6700000000    19.4110000000
  226      H      23.6620000000    28.9550000000    20.6760000000
  227      S      23.0330000000    27.2380000000    19.2510000000
  228      C      21.7160000000    26.8030000000    20.4090000000
  229      H      20.9810000000    27.6100000000    20.4640000000
  230      H      21.2180000000    25.8390000000    20.2800000000
  231      H      22.2050000000    26.7350000000    21.3850000000
  232      O      24.1070000000    26.3900000000    19.8590000000
  233      C      28.4100000000    24.5050000000    35.8270000000
  234      H      27.4980000000    24.1530000000    35.3370000000
  235      H      29.2520000000    23.8750000000    35.5310000000
  236      H      28.2130000000    24.4730000000    36.9020000000
  237      S      28.7830000000    26.2030000000    35.3340000000
  238      C      27.1480000000    26.9310000000    35.5830000000
  239      H      27.0320000000    26.9900000000    36.6690000000
  240      H      27.2350000000    27.9090000000    35.1020000000
  241      H      26.3650000000    26.4210000000    35.0170000000
  242      O      28.8450000000    26.1290000000    33.8400000000
  243      C      25.9580000000    17.7090000000    27.4670000000
  244      H      25.6060000000    16.6810000000    27.5840000000
  245      H      26.0760000000    17.8870000000    26.3950000000
  246      H      26.9340000000    17.8050000000    27.9500000000
  247      S      24.8690000000    18.9680000000    28.1680000000
  248      C      23.7310000000    18.8630000000    26.7690000000
  249      H      24.1970000000    19.3790000000    25.9250000000
  250      H      23.5570000000    17.8070000000    26.5450000000
  251      H      22.9040000000    19.4900000000    27.1110000000
  252      O      25.7010000000    20.1820000000    27.8970000000
  253      C      24.8030000000    23.8260000000    16.1140000000
  254      H      24.7510000000    24.0790000000    15.0520000000
  255      H      25.5170000000    23.0110000000    16.2550000000
  256      H      23.7910000000    23.6180000000    16.4700000000
  257      S      25.3160000000    25.2770000000    17.0610000000
  258      C      24.2760000000    26.3700000000    16.0650000000
  259      H      24.3940000000    26.2760000000    14.9830000000
  260      H      23.2340000000    26.2450000000    16.3700000000
  261      H      24.4260000000    27.3950000000    16.4120000000
  262      O      26.7580000000    25.4430000000    16.6970000000
 ----------------------------------------------------------------
 Nuclear Repulsion Energy =       39163.97902575 hartrees
 There are      539 alpha and      539 beta electrons
 Requested basis set is 6-31+G(d)
 There are 863 shells and 2405 basis functions

 Total QAlloc Memory Limit  16000 MB
 Mega-Array Size      7821 MB
 MEM_STATIC part      8000 MB
 A cutoff of  1.0D-14 yielded 145522 shell pairs
 There are   1256635 function pairs
 Smallest overlap matrix eigenvalue = 8.92E-07
 Linear dependence detected in AO basis
 Tighter screening thresholds may be required for diffuse basis sets
 Use S2THRESH > 14 and THRESH = 14 in case of SCF convergence issues
 Number of orthogonalized atomic orbitals = 2404
 Maximum deviation from orthogonality = 2.031E-10

 Scale SEOQF with 1.000000e-03/1.000000e-03/1.000000e-03

 Standard Electronic Orientation quadrupole field applied
 Nucleus-field energy     =    -0.0000000490 hartrees
Attempting to make child job directory: /local/scratch/users/ymao/r7.00_frame_0062_almo_B3LYP_dp.in20210311133735//Frg1/
Attempting to make child job directory: /local/scratch/users/ymao/r7.00_frame_0062_almo_B3LYP_dp.in20210311133735//Frg2/
Creating input file /local/scratch/users/ymao/r7.00_frame_0062_almo_B3LYP_dp.in20210311133735/Frg1.input
using default PutDataFrgm: nothing
calling putenv with: QCSCRATCH=/local/scratch/users/ymao/r7.00_frame_0062_almo_B3LYP_dp.in20210311133735/ 
Spawning Job For Fragment 0
Done Job For Fragment 0
calling putenv with: QCSCRATCH=/local/scratch/users/ymao 
calling putenv with: QCTHREADS=8 
Creating input file /local/scratch/users/ymao/r7.00_frame_0062_almo_B3LYP_dp.in20210311133735/Frg2.input
using default PutDataFrgm: nothing
calling putenv with: QCSCRATCH=/local/scratch/users/ymao/r7.00_frame_0062_almo_B3LYP_dp.in20210311133735/ 
Spawning Job For Fragment 1
Done Job For Fragment 1
calling putenv with: QCSCRATCH=/local/scratch/users/ymao 
calling putenv with: QCTHREADS=8 
 Time for running child jobs:  CPU 0.56 s  wall 13448.78 s

 -----------------------------------------------------------------------
  General SCF calculation program by
  Eric Jon Sundstrom, Paul Horn, Yuezhi Mao, Dmitri Zuev, Alec White,
  David Stuck, Shaama M.S., Shane Yost, Joonho Lee, David Small,
  Daniel Levine, Susi Lehtola, Hugh Burton, Evgeny Epifanovsky,
  Bang C. Huynh
 -----------------------------------------------------------------------
Performing Restricted Closed Shell SCFMI
Doing General SCFMI
 Exchange:     0.2000 Hartree-Fock + 0.0800 Slater + 0.7200 B88
 Correlation:  0.1900 VWN1RPA + 0.8100 LYP
 Using Euler-Maclaurin-Lebedev (75,302) quadrature formula
performing fock build before subrot guess so that all methods have access
Printing subrot_rss_gen Method Specification:
Occupied Subspace Method is 0
Virtual Subspace Method is 0
Energy prior to optimization (guess energy) = -13681.145352778491
Begin Timing: Total SCF Calculation
begin iterations for algorithm: DIIS         
the SCF tolerance is set to 1.00e-08
    1  -13681.1453527785      3.97e-05     00000 
    2  -13681.1457923267      5.74e-05     00000 
    3  -13681.1520885253      1.63e-05     00000 
    4  -13681.1525971662      5.86e-06     00000 
    5  -13681.1526803197      2.75e-06     00000 
    6  -13681.1526960212      1.64e-06     00000 
    7  -13681.1527004992      1.09e-06     00000 
    8  -13681.1527027890      4.97e-07     00000 
    9  -13681.1527031956      3.06e-07     00000 
   10  -13681.1527033231      2.12e-07     00000 
   11  -13681.1527033860      1.31e-07     00000 
   12  -13681.1527034141      7.09e-08     00000 
   13  -13681.1527034232      3.60e-08     00000 
   14  -13681.1527034255      2.19e-08     00000 
   15  -13681.1527034263      1.46e-08     00000 
   16  -13681.1527034263      6.80e-09     00000 Convergence criterion met
write pseudocanon occs and virts to disk
write pseudocanon orbital energies to disk
Timing for Total SCF: 34963.00s (wall), 277421.18s (cpu)
SCFMI Energy  -13681.1527034263
<S^2>            0.00000
 Total energy in the final basis set =   -13681.1527034263
    ==================================================
        The end of Object-Oriented SCFman: SCFMI      
    ==================================================
 
 --------------------------------------------------------------
 
                    Orbital Energies (a.u.)
 --------------------------------------------------------------
 
 Alpha MOs
 -- Occupied --
-89.0251 -89.0217 -89.0138 -89.0116 -89.0105 -89.0097 -89.0077 -89.0042
-89.0022 -89.0010 -88.9993 -88.9969 -88.9968 -88.9963 -88.9924 -88.9916
-88.9880 -88.9855 -88.9838 -88.9805 -88.9795 -88.9780 -88.9764 -88.9747
-19.1404 -19.1396 -19.1369 -19.1342 -19.1302 -19.1259 -19.1257 -19.1235
-19.1216 -19.1190 -19.1188 -19.1156 -19.1090 -19.1083 -19.1067 -19.1017
-19.1007 -19.0998 -19.0995 -19.0987 -19.0977 -19.0959 -19.0955 -19.0931
-19.0913 -14.3565 -10.2826 -10.2380 -10.2375 -10.2350 -10.2314 -10.2304
-10.2302 -10.2294 -10.2284 -10.2284 -10.2241 -10.2241 -10.2236 -10.2235
-10.2222 -10.2203 -10.2193 -10.2193 -10.2171 -10.2168 -10.2132 -10.2129
-10.2124 -10.2112 -10.2112 -10.2109 -10.2099 -10.2093 -10.2081 -10.2081
-10.2071 -10.2034 -10.2031 -10.2027 -10.2018 -10.1990 -10.1988 -10.1987
-10.1987 -10.1981 -10.1977 -10.1974 -10.1947 -10.1925 -10.1885 -10.1884
-10.1884 -10.1867 -10.1839 -10.1833 -10.1806 -10.1801 -10.1773 -10.1772
-10.1768  -8.0708  -8.0683  -8.0597  -8.0575  -8.0567  -8.0563  -8.0532
 -8.0506  -8.0477  -8.0463  -8.0447  -8.0436  -8.0433  -8.0421  -8.0387
 -8.0381  -8.0346  -8.0314  -8.0306  -8.0265  -8.0256  -8.0241  -8.0218
 -8.0207  -6.0352  -6.0340  -6.0326  -6.0311  -6.0281  -6.0257  -6.0241
 -6.0227  -6.0219  -6.0210  -6.0208  -6.0207  -6.0198  -6.0191  -6.0176
 -6.0172  -6.0164  -6.0148  -6.0147  -6.0140  -6.0138  -6.0137  -6.0120
 -6.0109  -6.0107  -6.0104  -6.0095  -6.0093  -6.0080  -6.0078  -6.0077
 -6.0073  -6.0066  -6.0066  -6.0062  -6.0052  -6.0051  -6.0037  -6.0030
 -6.0022  -6.0022  -6.0017  -6.0014  -6.0012  -6.0011  -5.9993  -5.9986
 -5.9976  -5.9960  -5.9958  -5.9957  -5.9949  -5.9944  -5.9937  -5.9922
 -5.9911  -5.9897  -5.9896  -5.9891  -5.9886  -5.9885  -5.9880  -5.9872
 -5.9862  -5.9851  -5.9848  -5.9836  -5.9835  -5.9835  -5.9814  -5.9793
 -5.9781  -1.0519  -1.0484  -1.0426  -1.0399  -1.0386  -1.0381  -1.0366
 -1.0340  -1.0288  -1.0262  -1.0253  -1.0226  -1.0222  -1.0216  -1.0178
 -1.0173  -1.0127  -1.0103  -1.0093  -1.0080  -1.0078  -1.0044  -1.0040
 -1.0029  -0.9976  -0.9207  -0.8228  -0.8211  -0.8203  -0.8184  -0.8180
 -0.8137  -0.8102  -0.8080  -0.8045  -0.8033  -0.8022  -0.8001  -0.7982
 -0.7957  -0.7941  -0.7917  -0.7913  -0.7883  -0.7871  -0.7828  -0.7817
 -0.7807  -0.7788  -0.7786  -0.7778  -0.7497  -0.7456  -0.7433  -0.7426
 -0.7425  -0.7409  -0.7389  -0.7362  -0.7349  -0.7299  -0.7253  -0.7251
 -0.7237  -0.7228  -0.7217  -0.7195  -0.7177  -0.7149  -0.7130  -0.7127
 -0.7080  -0.7036  -0.7032  -0.7023  -0.6968  -0.6950  -0.6406  -0.6366
 -0.6329  -0.6262  -0.6247  -0.6227  -0.6223  -0.6206  -0.6155  -0.6152
 -0.6145  -0.6132  -0.6125  -0.6112  -0.6099  -0.6049  -0.6029  -0.6022
 -0.6005  -0.5988  -0.5935  -0.5933  -0.5916  -0.5888  -0.5884  -0.5879
 -0.5805  -0.5565  -0.5245  -0.5010  -0.4985  -0.4982  -0.4976  -0.4911
 -0.4905  -0.4897  -0.4892  -0.4890  -0.4863  -0.4854  -0.4846  -0.4841
 -0.4837  -0.4829  -0.4824  -0.4811  -0.4809  -0.4800  -0.4796  -0.4792
 -0.4783  -0.4771  -0.4768  -0.4761  -0.4750  -0.4735  -0.4729  -0.4723
 -0.4718  -0.4714  -0.4709  -0.4699  -0.4695  -0.4682  -0.4671  -0.4666
 -0.4656  -0.4648  -0.4647  -0.4645  -0.4628  -0.4625  -0.4620  -0.4608
 -0.4607  -0.4595  -0.4590  -0.4585  -0.4576  -0.4575  -0.4563  -0.4561
 -0.4555  -0.4554  -0.4544  -0.4538  -0.4535  -0.4526  -0.4514  -0.4510
 -0.4502  -0.4500  -0.4496  -0.4480  -0.4457  -0.4456  -0.4452  -0.4439
 -0.4437  -0.4432  -0.4425  -0.4415  -0.4414  -0.4408  -0.4395  -0.4389
 -0.4387  -0.4361  -0.4351  -0.4341  -0.4336  -0.4334  -0.4330  -0.4314
 -0.4309  -0.4283  -0.4280  -0.4278  -0.4248  -0.4237  -0.4232  -0.4218
 -0.4207  -0.4195  -0.4190  -0.4186  -0.4183  -0.4176  -0.4169  -0.4162
 -0.4154  -0.4149  -0.4140  -0.4131  -0.4129  -0.4124  -0.4115  -0.4101
 -0.4092  -0.4082  -0.4071  -0.4066  -0.4065  -0.4061  -0.4052  -0.4035
 -0.4028  -0.4024  -0.4015  -0.4004  -0.3997  -0.3993  -0.3990  -0.3985
 -0.3976  -0.3958  -0.3957  -0.3946  -0.3944  -0.3935  -0.3925  -0.3919
 -0.3904  -0.3891  -0.3884  -0.3881  -0.3880  -0.3878  -0.3870  -0.3866
 -0.3848  -0.3843  -0.3839  -0.3817  -0.3810  -0.3801  -0.3792  -0.3788
 -0.3778  -0.3753  -0.3748  -0.3736  -0.3716  -0.3709  -0.3692  -0.3682
 -0.3659  -0.3652  -0.3635  -0.3632  -0.3619  -0.3611  -0.3586  -0.3582
 -0.3576  -0.3533  -0.3530  -0.3529  -0.3519  -0.3501  -0.3498  -0.3482
 -0.3453  -0.3439  -0.3421  -0.3413  -0.3381  -0.3364  -0.3206  -0.3118
 -0.3021  -0.3013  -0.2982  -0.2963  -0.2927  -0.2923  -0.2895  -0.2826
 -0.2809  -0.2797  -0.2791  -0.2782  -0.2716  -0.2700  -0.2686  -0.2657
 -0.2649  -0.2607  -0.2604  -0.2597  -0.2596  -0.2585  -0.2581  -0.2579
 -0.2574  -0.2566  -0.2563  -0.2536  -0.2523  -0.2515  -0.2505  -0.2503
 -0.2495  -0.2467  -0.2458  -0.2433  -0.2410  -0.2396  -0.2374  -0.2361
 -0.2353  -0.2332  -0.2320  -0.2296  -0.2294  -0.2251  -0.2235  -0.2215
 -0.2205  -0.2159  -0.2143
 -- Virtual --
 -0.0286  -0.0238  -0.0225  -0.0199  -0.0171  -0.0159  -0.0151  -0.0133
 -0.0129  -0.0105  -0.0100  -0.0088  -0.0075  -0.0063  -0.0051  -0.0049
 -0.0042  -0.0029  -0.0013  -0.0011  -0.0009   0.0003   0.0013   0.0022
  0.0030   0.0037   0.0047   0.0055   0.0064   0.0073   0.0074   0.0082
  0.0098   0.0109   0.0110   0.0116   0.0123   0.0128   0.0131   0.0144
  0.0147   0.0150   0.0164   0.0170   0.0172   0.0176   0.0188   0.0191
  0.0202   0.0207   0.0209   0.0219   0.0228   0.0233   0.0241   0.0243
  0.0253   0.0266   0.0272   0.0282   0.0292   0.0298   0.0307   0.0315
  0.0322   0.0327   0.0334   0.0342   0.0351   0.0358   0.0362   0.0364
  0.0372   0.0380   0.0381   0.0395   0.0402   0.0406   0.0412   0.0419
  0.0420   0.0436   0.0439   0.0452   0.0461   0.0462   0.0479   0.0485
  0.0488   0.0496   0.0501   0.0509   0.0512   0.0518   0.0519   0.0531
  0.0535   0.0541   0.0552   0.0558   0.0567   0.0570   0.0576   0.0581
  0.0592   0.0596   0.0609   0.0612   0.0627   0.0629   0.0639   0.0640
  0.0644   0.0648   0.0659   0.0672   0.0678   0.0687   0.0689   0.0700
  0.0705   0.0713   0.0726   0.0737   0.0742   0.0745   0.0751   0.0757
  0.0771   0.0774   0.0784   0.0788   0.0794   0.0800   0.0802   0.0811
  0.0814   0.0822   0.0826   0.0839   0.0843   0.0856   0.0857   0.0862
  0.0870   0.0878   0.0887   0.0897   0.0904   0.0910   0.0913   0.0927
  0.0928   0.0937   0.0948   0.0959   0.0962   0.0965   0.0967   0.0972
  0.0979   0.0987   0.0997   0.1007   0.1010   0.1017   0.1021   0.1032
  0.1042   0.1043   0.1050   0.1051   0.1064   0.1072   0.1082   0.1084
  0.1098   0.1106   0.1115   0.1116   0.1125   0.1134   0.1141   0.1146
  0.1150   0.1159   0.1161   0.1170   0.1176   0.1177   0.1182   0.1191
  0.1200   0.1203   0.1217   0.1221   0.1229   0.1235   0.1240   0.1244
  0.1256   0.1260   0.1262   0.1274   0.1279   0.1282   0.1289   0.1293
  0.1305   0.1307   0.1316   0.1321   0.1328   0.1333   0.1343   0.1348
  0.1354   0.1363   0.1363   0.1370   0.1386   0.1389   0.1396   0.1404
  0.1411   0.1412   0.1424   0.1428   0.1436   0.1440   0.1447   0.1452
  0.1459   0.1473   0.1481   0.1484   0.1486   0.1497   0.1504   0.1511
  0.1516   0.1528   0.1533   0.1539   0.1542   0.1547   0.1552   0.1559
  0.1569   0.1578   0.1587   0.1592   0.1597   0.1603   0.1606   0.1613
  0.1618   0.1620   0.1631   0.1635   0.1643   0.1650   0.1654   0.1656
  0.1667   0.1676   0.1679   0.1690   0.1697   0.1705   0.1710   0.1717
  0.1722   0.1727   0.1733   0.1746   0.1749   0.1754   0.1770   0.1773
  0.1781   0.1787   0.1795   0.1801   0.1805   0.1812   0.1821   0.1824
  0.1830   0.1835   0.1839   0.1847   0.1848   0.1857   0.1860   0.1871
  0.1873   0.1878   0.1894   0.1900   0.1905   0.1912   0.1921   0.1929
  0.1938   0.1938   0.1946   0.1958   0.1961   0.1963   0.1968   0.1979
  0.1985   0.1995   0.2002   0.2009   0.2014   0.2022   0.2026   0.2028
  0.2032   0.2042   0.2046   0.2058   0.2063   0.2067   0.2080   0.2086
  0.2090   0.2097   0.2102   0.2107   0.2113   0.2116   0.2120   0.2138
  0.2139   0.2148   0.2153   0.2161   0.2171   0.2180   0.2184   0.2189
  0.2198   0.2209   0.2213   0.2220   0.2230   0.2233   0.2239   0.2245
  0.2258   0.2267   0.2273   0.2281   0.2286   0.2291   0.2301   0.2308
  0.2317   0.2322   0.2328   0.2336   0.2344   0.2347   0.2362   0.2369
  0.2379   0.2383   0.2385   0.2394   0.2408   0.2418   0.2422   0.2427
  0.2438   0.2444   0.2454   0.2458   0.2472   0.2475   0.2489   0.2494
  0.2496   0.2506   0.2513   0.2519   0.2534   0.2541   0.2547   0.2556
  0.2560   0.2566   0.2571   0.2586   0.2593   0.2596   0.2602   0.2611
  0.2618   0.2621   0.2632   0.2646   0.2653   0.2656   0.2662   0.2674
  0.2677   0.2684   0.2692   0.2698   0.2709   0.2719   0.2727   0.2734
  0.2753   0.2758   0.2761   0.2774   0.2782   0.2789   0.2794   0.2801
  0.2814   0.2822   0.2835   0.2845   0.2854   0.2862   0.2874   0.2876
  0.2890   0.2900   0.2903   0.2914   0.2923   0.2927   0.2933   0.2949
  0.2952   0.2962   0.2980   0.2989   0.3002   0.3016   0.3024   0.3030
  0.3034   0.3038   0.3050   0.3060   0.3069   0.3077   0.3091   0.3100
  0.3105   0.3110   0.3114   0.3125   0.3137   0.3146   0.3147   0.3154
  0.3170   0.3179   0.3184   0.3198   0.3200   0.3210   0.3211   0.3227
  0.3231   0.3238   0.3255   0.3261   0.3275   0.3285   0.3298   0.3304
  0.3308   0.3317   0.3329   0.3337   0.3353   0.3359   0.3373   0.3377
  0.3391   0.3396   0.3404   0.3408   0.3418   0.3419   0.3431   0.3447
  0.3457   0.3460   0.3471   0.3488   0.3492   0.3502   0.3508   0.3529
  0.3531   0.3536   0.3543   0.3556   0.3562   0.3579   0.3584   0.3598
  0.3607   0.3622   0.3635   0.3641   0.3648   0.3659   0.3663   0.3673
  0.3679   0.3696   0.3701   0.3704   0.3719   0.3729   0.3739   0.3747
  0.3749   0.3764   0.3782   0.3785   0.3790   0.3800   0.3809   0.3817
  0.3840   0.3849   0.3854   0.3867   0.3872   0.3879   0.3887   0.3897
  0.3919   0.3925   0.3935   0.3943   0.3953   0.3957   0.3965   0.3975
  0.3979   0.3987   0.4000   0.4010   0.4014   0.4020   0.4031   0.4044
  0.4051   0.4064   0.4072   0.4094   0.4102   0.4110   0.4117   0.4140
  0.4144   0.4154   0.4162   0.4168   0.4171   0.4189   0.4203   0.4209
  0.4219   0.4229   0.4259   0.4272   0.4283   0.4289   0.4299   0.4314
  0.4316   0.4328   0.4337   0.4349   0.4360   0.4373   0.4381   0.4392
  0.4393   0.4415   0.4421   0.4429   0.4452   0.4470   0.4494   0.4503
  0.4515   0.4522   0.4539   0.4562   0.4566   0.4590   0.4594   0.4602
  0.4624   0.4635   0.4656   0.4671   0.4677   0.4691   0.4704   0.4722
  0.4741   0.4758   0.4778   0.4803   0.4814   0.4831   0.4832   0.4864
  0.4866   0.4872   0.4895   0.4905   0.4920   0.4927   0.4959   0.4975
  0.4981   0.5010   0.5029   0.5041   0.5043   0.5056   0.5066   0.5074
  0.5118   0.5120   0.5140   0.5156   0.5179   0.5205   0.5219   0.5237
  0.5249   0.5273   0.5289   0.5299   0.5322   0.5334   0.5349   0.5376
  0.5379   0.5403   0.5418   0.5431   0.5450   0.5468   0.5474   0.5510
  0.5518   0.5532   0.5569   0.5571   0.5591   0.5600   0.5616   0.5637
  0.5642   0.5679   0.5699   0.5710   0.5713   0.5733   0.5742   0.5753
  0.5768   0.5780   0.5792   0.5818   0.5834   0.5848   0.5854   0.5861
  0.5885   0.5896   0.5903   0.5927   0.5936   0.5962   0.5968   0.5972
  0.5985   0.6007   0.6012   0.6029   0.6033   0.6041   0.6046   0.6070
  0.6095   0.6106   0.6130   0.6138   0.6160   0.6166   0.6188   0.6195
  0.6216   0.6221   0.6234   0.6250   0.6263   0.6289   0.6297   0.6306
  0.6325   0.6350   0.6362   0.6372   0.6382   0.6411   0.6422   0.6427
  0.6430   0.6455   0.6470   0.6484   0.6494   0.6507   0.6519   0.6533
  0.6547   0.6556   0.6566   0.6577   0.6589   0.6599   0.6608   0.6628
  0.6635   0.6644   0.6653   0.6667   0.6676   0.6689   0.6701   0.6719
  0.6724   0.6730   0.6749   0.6761   0.6773   0.6793   0.6801   0.6821
  0.6834   0.6846   0.6855   0.6859   0.6879   0.6885   0.6895   0.6897
  0.6922   0.6945   0.6960   0.6968   0.6988   0.7005   0.7017   0.7033
  0.7045   0.7056   0.7068   0.7080   0.7094   0.7101   0.7116   0.7134
  0.7145   0.7158   0.7161   0.7176   0.7186   0.7205   0.7211   0.7225
  0.7246   0.7251   0.7271   0.7289   0.7302   0.7310   0.7318   0.7331
  0.7348   0.7365   0.7381   0.7382   0.7408   0.7420   0.7439   0.7460
  0.7471   0.7494   0.7500   0.7519   0.7536   0.7547   0.7571   0.7592
  0.7610   0.7634   0.7640   0.7665   0.7670   0.7695   0.7712   0.7730
  0.7740   0.7762   0.7786   0.7803   0.7815   0.7820   0.7842   0.7845
  0.7861   0.7894   0.7910   0.7920   0.7938   0.7967   0.7980   0.7990
  0.8006   0.8023   0.8035   0.8060   0.8075   0.8082   0.8096   0.8122
  0.8135   0.8142   0.8159   0.8180   0.8215   0.8221   0.8232   0.8254
  0.8258   0.8268   0.8288   0.8295   0.8317   0.8328   0.8338   0.8355
  0.8376   0.8379   0.8397   0.8416   0.8424   0.8442   0.8452   0.8485
  0.8494   0.8505   0.8518   0.8535   0.8548   0.8558   0.8562   0.8579
  0.8609   0.8612   0.8625   0.8635   0.8657   0.8667   0.8693   0.8700
  0.8716   0.8743   0.8760   0.8773   0.8778   0.8793   0.8801   0.8831
  0.8836   0.8860   0.8878   0.8883   0.8896   0.8913   0.8939   0.8951
  0.8959   0.8964   0.8990   0.8993   0.9003   0.9012   0.9031   0.9038
  0.9055   0.9067   0.9074   0.9100   0.9103   0.9108   0.9113   0.9128
  0.9165   0.9168   0.9179   0.9182   0.9201   0.9215   0.9223   0.9241
  0.9246   0.9266   0.9291   0.9298   0.9325   0.9331   0.9341   0.9346
  0.9359   0.9365   0.9378   0.9399   0.9414   0.9423   0.9429   0.9436
  0.9447   0.9464   0.9469   0.9493   0.9507   0.9516   0.9557   0.9564
  0.9571   0.9591   0.9593   0.9611   0.9616   0.9629   0.9638   0.9653
  0.9663   0.9668   0.9681   0.9702   0.9719   0.9730   0.9735   0.9742
  0.9772   0.9780   0.9785   0.9799   0.9809   0.9824   0.9833   0.9841
  0.9853   0.9865   0.9867   0.9888   0.9900   0.9918   0.9924   0.9937
  0.9950   0.9965   0.9969   0.9982   0.9997   1.0011   1.0024   1.0034
  1.0053   1.0056   1.0075   1.0095   1.0104   1.0107   1.0128   1.0147
  1.0154   1.0163   1.0185   1.0189   1.0201   1.0214   1.0218   1.0244
  1.0259   1.0271   1.0274   1.0289   1.0303   1.0308   1.0323   1.0327
  1.0351   1.0371   1.0376   1.0383   1.0391   1.0425   1.0444   1.0449
  1.0467   1.0481   1.0492   1.0504   1.0515   1.0532   1.0540   1.0550
  1.0565   1.0581   1.0605   1.0621   1.0626   1.0638   1.0651   1.0662
  1.0668   1.0686   1.0704   1.0717   1.0724   1.0728   1.0737   1.0765
  1.0782   1.0788   1.0800   1.0817   1.0822   1.0842   1.0858   1.0872
  1.0892   1.0905   1.0920   1.0928   1.0956   1.0964   1.0975   1.0999
  1.1016   1.1025   1.1035   1.1050   1.1070   1.1085   1.1094   1.1110
  1.1126   1.1130   1.1164   1.1172   1.1190   1.1196   1.1218   1.1230
  1.1251   1.1259   1.1279   1.1296   1.1301   1.1332   1.1333   1.1352
  1.1360   1.1377   1.1395   1.1408   1.1429   1.1440   1.1445   1.1463
  1.1470   1.1478   1.1502   1.1524   1.1532   1.1552   1.1563   1.1570
  1.1572   1.1604   1.1618   1.1648   1.1668   1.1680   1.1711   1.1721
  1.1752   1.1760   1.1766   1.1788   1.1796   1.1822   1.1833   1.1853
  1.1872   1.1888   1.1911   1.1927   1.1933   1.1946   1.1969   1.1992
  1.2005   1.2034   1.2050   1.2066   1.2070   1.2096   1.2129   1.2141
  1.2143   1.2170   1.2192   1.2230   1.2238   1.2263   1.2280   1.2290
  1.2310   1.2336   1.2359   1.2384   1.2388   1.2424   1.2432   1.2457
  1.2473   1.2490   1.2517   1.2534   1.2566   1.2584   1.2616   1.2619
  1.2646   1.2669   1.2689   1.2711   1.2741   1.2763   1.2791   1.2795
  1.2824   1.2845   1.2855   1.2874   1.2889   1.2900   1.2950   1.2984
  1.3036   1.3064   1.3095   1.3119   1.3135   1.3154   1.3164   1.3198
  1.3222   1.3250   1.3268   1.3295   1.3309   1.3353   1.3368   1.3384
  1.3403   1.3412   1.3438   1.3474   1.3492   1.3512   1.3539   1.3558
  1.3562   1.3579   1.3588   1.3615   1.3621   1.3657   1.3668   1.3682
  1.3696   1.3712   1.3732   1.3745   1.3750   1.3776   1.3792   1.3813
  1.3821   1.3838   1.3861   1.3873   1.3877   1.3910   1.3919   1.3939
  1.3954   1.3979   1.3986   1.3994   1.4017   1.4035   1.4050   1.4067
  1.4087   1.4104   1.4132   1.4138   1.4153   1.4168   1.4182   1.4215
  1.4219   1.4235   1.4252   1.4270   1.4274   1.4299   1.4305   1.4320
  1.4332   1.4346   1.4371   1.4401   1.4427   1.4443   1.4447   1.4462
  1.4490   1.4502   1.4524   1.4548   1.4569   1.4580   1.4588   1.4650
  1.4663   1.4676   1.4679   1.4721   1.4735   1.4748   1.4778   1.4785
  1.4800   1.4816   1.4834   1.4861   1.4874   1.4919   1.4936   1.4943
  1.4970   1.4986   1.5001   1.5032   1.5063   1.5089   1.5105   1.5128
  1.5136   1.5170   1.5198   1.5220   1.5244   1.5269   1.5281   1.5293
  1.5316   1.5325   1.5369   1.5377   1.5425   1.5453   1.5485   1.5532
  1.5555   1.5584   1.5637   1.5643   1.5663   1.5725   1.5768   1.5795
  1.5816   1.5878   1.5897   1.5942   1.5944   1.5985   1.6039   1.6138
  1.6175   1.6232   1.6269   1.6298   1.6364   1.6410   1.6444   1.6536
  1.6539   1.6559   1.6595   1.6624   1.6665   1.6670   1.6680   1.6708
  1.6714   1.6722   1.6761   1.6766   1.6798   1.6808   1.6812   1.6825
  1.6848   1.6850   1.6873   1.6885   1.6892   1.6915   1.6922   1.6925
  1.6942   1.6950   1.6972   1.6978   1.6995   1.7021   1.7035   1.7055
  1.7058   1.7069   1.7086   1.7109   1.7116   1.7122   1.7146   1.7152
  1.7176   1.7176   1.7190   1.7204   1.7215   1.7238   1.7244   1.7256
  1.7281   1.7301   1.7306   1.7324   1.7331   1.7339   1.7345   1.7351
  1.7369   1.7393   1.7401   1.7402   1.7441   1.7450   1.7464   1.7472
  1.7505   1.7525   1.7537   1.7541   1.7559   1.7571   1.7584   1.7597
  1.7602   1.7616   1.7642   1.7652   1.7661   1.7695   1.7700   1.7715
  1.7722   1.7738   1.7744   1.7757   1.7800   1.7821   1.7840   1.7846
  1.7870   1.7879   1.7908   1.7947   1.7959   1.7982   1.8027   1.8040
  1.8064   1.8103   1.8125   1.8135   1.8162   1.8185   1.8197   1.8220
  1.8235   1.8259   1.8289   1.8347   1.8380   1.8435   1.8451   1.8500
  1.8523   1.8541   1.8555   1.8628   1.8689   1.8703   1.8714   1.8721
  1.8747   1.8764   1.8768   1.8789   1.8800   1.8824   1.8851   1.8852
  1.8872   1.8890   1.8893   1.8903   1.8917   1.8921   1.8930   1.8954
  1.8965   1.8979   1.9001   1.9002   1.9009   1.9028   1.9039   1.9051
  1.9060   1.9073   1.9086   1.9093   1.9117   1.9132   1.9142   1.9167
  1.9186   1.9188   1.9204   1.9218   1.9249   1.9257   1.9262   1.9282
  1.9303   1.9319   1.9342   1.9366   1.9394   1.9410   1.9424   1.9429
  1.9445   1.9456   1.9501   1.9505   1.9528   1.9567   1.9575   1.9628
  1.9687   1.9717   1.9798   1.9836   1.9908   2.0000   2.0032   2.0221
  2.0232   2.0299   2.0416   2.0498   2.0507   2.0514   2.0529   2.0535
  2.0553   2.0587   2.0627   2.0663   2.0667   2.0689   2.0697   2.0722
  2.0746   2.0767   2.0787   2.0790   2.0796   2.0803   2.0811   2.0817
  2.0841   2.0849   2.0863   2.0868   2.0896   2.0910   2.0923   2.0931
  2.0934   2.0943   2.0961   2.0979   2.0991   2.0998   2.1026   2.1034
  2.1052   2.1092   2.1105   2.1114   2.1201   2.1223   2.1232   2.1272
  2.1280   2.1335   2.1342   2.1451   2.1531   2.1541   2.1595   2.1639
  2.1655   2.1717   2.1764   2.1779   2.1788   2.1824   2.1836   2.1877
  2.1900   2.1914   2.1935   2.1971   2.1975   2.1988   2.2037   2.2051
  2.2056   2.2072   2.2095   2.2122   2.2132   2.2151   2.2156   2.2201
  2.2255   2.2289   2.2317   2.2331   2.2340   2.2346   2.2352   2.2368
  2.2380   2.2402   2.2412   2.2413   2.2421   2.2425   2.2443   2.2456
  2.2462   2.2465   2.2474   2.2482   2.2487   2.2498   2.2510   2.2526
  2.2536   2.2540   2.2561   2.2571   2.2577   2.2588   2.2597   2.2612
  2.2617   2.2621   2.2627   2.2635   2.2637   2.2640   2.2656   2.2666
  2.2675   2.2682   2.2703   2.2708   2.2722   2.2736   2.2746   2.2754
  2.2760   2.2768   2.2774   2.2782   2.2804   2.2812   2.2832   2.2839
  2.2855   2.2870   2.2873   2.2884   2.2895   2.2907   2.2930   2.2940
  2.2954   2.2976   2.2984   2.2995   2.3019   2.3022   2.3042   2.3048
  2.3085   2.3086   2.3110   2.3117   2.3119   2.3143   2.3162   2.3164
  2.3172   2.3181   2.3189   2.3204   2.3213   2.3232   2.3235   2.3263
  2.3267   2.3273   2.3302   2.3323   2.3325   2.3337   2.3362   2.3368
  2.3371   2.3386   2.3397   2.3400   2.3424   2.3430   2.3443   2.3463
  2.3481   2.3487   2.3504   2.3520   2.3541   2.3557   2.3577   2.3593
  2.3612   2.3627   2.3681   2.3722   2.3771   2.3794   2.3914   2.3933
  2.3967   2.3992   2.4051   2.4092   2.4165   2.4245   2.4260   2.4579
  2.4632   2.4917   2.5113   2.5428   2.5984   2.6661   2.7396   2.7469
  2.7667   2.7911   2.8139   2.8268   2.8296   2.8378   2.8394   2.8418
  2.8438   2.8451   2.8469   2.8475   2.8500   2.8514   2.8526   2.8534
  2.8540   2.8563   2.8572   2.8612   2.8685   2.8692   2.8703   2.8752
  2.8808   2.8831   2.8878   2.8940   2.9068   2.9562   3.0782   3.2383
  3.9538   3.9580   3.9605   3.9610   3.9636   3.9676   3.9724   3.9739
  3.9781   3.9842   3.9901   3.9922   3.9938   3.9963   3.9969   3.9979
  4.0000   4.0061   4.0069   4.0172   4.0200   4.0249   4.0345   4.0518
  4.2068   4.2154   4.2233   4.2271   4.2288   4.2404   4.2409   4.2479
  4.2506   4.2539   4.2557   4.2564   4.2586   4.2633   4.2684   4.2712
  4.2715   4.2780   4.2790   4.2819   4.2841   4.2844   4.2858   4.2883
  4.2922   4.2947   4.2950   4.2994   4.2999   4.3054   4.3068   4.3098
  4.3126   4.3151   4.3188   4.3210   4.3245   4.3258   4.3286   4.3312
  4.3344   4.3369   4.3403   4.3419   4.3470   4.3503   4.3510   4.3551
  4.3577   4.3592   4.3601   4.3629   4.3638   4.3696   4.3728   4.3784
  4.3805   4.3866   4.3922   4.3951   4.4041   4.4064   4.4209   4.4318
  4.4344   4.4421   4.4529   4.4623   4.4714   4.4846   4.4946   4.5000
  4.5112   4.5245   4.5534   4.5681   4.6529   4.6994   4.7216   4.7684
  4.8827
 --------------------------------------------------------------
 
          Ground-State Mulliken Net Atomic Charges

     Atom                 Charge (a.u.)
  ----------------------------------------
      1 C                    -0.384419
      2 C                     0.022543
      3 C                    -0.488197
      4 C                    -0.611619
      5 C                    -0.366110
      6 C                    -0.398468
      7 H                     0.219952
      8 H                     0.213358
      9 H                     0.204601
     10 H                     0.244695
     11 H                     0.203467
     12 H                     0.226227
     13 H                     0.227718
     14 H                     0.186525
     15 H                     0.191889
     16 H                     0.197849
     17 H                     0.193876
     18 N                    -0.469754
     19 H                     0.457229
     20 C                     0.249367
     21 H                     0.182561
     22 O                    -0.503285
     23 C                    -1.183346
     24 H                     0.277342
     25 H                     0.288094
     26 H                     0.288662
     27 S                     0.962957
     28 C                    -0.968219
     29 H                     0.222950
     30 H                     0.309170
     31 H                     0.290208
     32 O                    -0.591586
     33 C                    -0.923806
     34 H                     0.298873
     35 H                     0.239703
     36 H                     0.240198
     37 S                     0.965208
     38 C                    -0.837430
     39 H                     0.242884
     40 H                     0.260132
     41 H                     0.259174
     42 O                    -0.706755
     43 C                    -1.193407
     44 H                     0.252099
     45 H                     0.282224
     46 H                     0.308901
     47 S                     1.161105
     48 C                    -1.085483
     49 H                     0.321034
     50 H                     0.233309
     51 H                     0.257964
     52 O                    -0.662746
     53 C                    -0.887413
     54 H                     0.251824
     55 H                     0.265361
     56 H                     0.222752
     57 S                     0.881762
     58 C                    -0.682951
     59 H                     0.262376
     60 H                     0.261292
     61 H                     0.220270
     62 O                    -0.721812
     63 C                    -0.802217
     64 H                     0.234463
     65 H                     0.265845
     66 H                     0.278805
     67 S                     0.688734
     68 C                    -0.739669
     69 H                     0.239954
     70 H                     0.240010
     71 H                     0.294958
     72 O                    -0.619739
     73 C                    -0.836690
     74 H                     0.242121
     75 H                     0.237898
     76 H                     0.268382
     77 S                     0.893836
     78 C                    -0.861388
     79 H                     0.252641
     80 H                     0.225457
     81 H                     0.278525
     82 O                    -0.710003
     83 C                    -1.056928
     84 H                     0.254233
     85 H                     0.241525
     86 H                     0.270454
     87 S                     1.168328
     88 C                    -1.107080
     89 H                     0.260726
     90 H                     0.250945
     91 H                     0.252044
     92 O                    -0.692031
     93 C                    -0.950877
     94 H                     0.251045
     95 H                     0.272672
     96 H                     0.244849
     97 S                     0.997619
     98 C                    -0.824255
     99 H                     0.249430
    100 H                     0.227717
    101 H                     0.242341
    102 O                    -0.734648
    103 C                    -0.831439
    104 H                     0.240422
    105 H                     0.247187
    106 H                     0.267193
    107 S                     0.926317
    108 C                    -0.894005
    109 H                     0.284695
    110 H                     0.279201
    111 H                     0.240013
    112 O                    -0.713595
    113 C                    -0.757354
    114 H                     0.260458
    115 H                     0.229958
    116 H                     0.275634
    117 S                     0.767696
    118 C                    -0.865488
    119 H                     0.210400
    120 H                     0.278668
    121 H                     0.290618
    122 O                    -0.710438
    123 C                    -0.856728
    124 H                     0.278183
    125 H                     0.224268
    126 H                     0.219109
    127 S                     0.800414
    128 C                    -0.722956
    129 H                     0.224367
    130 H                     0.242617
    131 H                     0.237354
    132 O                    -0.666918
    133 C                    -0.767270
    134 H                     0.263243
    135 H                     0.250647
    136 H                     0.304792
    137 S                     0.759866
    138 C                    -0.859936
    139 H                     0.248005
    140 H                     0.246111
    141 H                     0.299495
    142 O                    -0.714770
    143 C                    -0.784364
    144 H                     0.233472
    145 H                     0.275928
    146 H                     0.248443
    147 S                     0.900209
    148 C                    -0.938974
    149 H                     0.243561
    150 H                     0.265864
    151 H                     0.254642
    152 O                    -0.726415
    153 C                    -0.739874
    154 H                     0.251512
    155 H                     0.252830
    156 H                     0.249651
    157 S                     0.552682
    158 C                    -0.468473
    159 H                     0.252015
    160 H                     0.269767
    161 H                     0.242847
    162 O                    -0.659774
    163 C                    -0.608247
    164 H                     0.250719
    165 H                     0.238898
    166 H                     0.316774
    167 S                     0.531991
    168 C                    -0.861169
    169 H                     0.258244
    170 H                     0.282652
    171 H                     0.301458
    172 O                    -0.661484
    173 C                    -0.822853
    174 H                     0.251095
    175 H                     0.248941
    176 H                     0.231086
    177 S                     1.087341
    178 C                    -1.157604
    179 H                     0.257323
    180 H                     0.249167
    181 H                     0.326077
    182 O                    -0.716024
    183 C                    -0.797511
    184 H                     0.282518
    185 H                     0.231625
    186 H                     0.279223
    187 S                     0.881567
    188 C                    -0.961780
    189 H                     0.261692
    190 H                     0.279070
    191 H                     0.245701
    192 O                    -0.768178
    193 C                    -1.149167
    194 H                     0.264523
    195 H                     0.280594
    196 H                     0.243622
    197 S                     1.261143
    198 C                    -0.868643
    199 H                     0.277778
    200 H                     0.243488
    201 H                     0.294515
    202 O                    -0.772353
    203 C                    -0.787291
    204 H                     0.259674
    205 H                     0.262415
    206 H                     0.216640
    207 S                     0.888424
    208 C                    -0.872263
    209 H                     0.257577
    210 H                     0.287468
    211 H                     0.210473
    212 O                    -0.736135
    213 C                    -0.963137
    214 H                     0.271952
    215 H                     0.257742
    216 H                     0.275512
    217 S                     0.883808
    218 C                    -0.831118
    219 H                     0.265388
    220 H                     0.237188
    221 H                     0.283982
    222 O                    -0.715216
    223 C                    -0.845065
    224 H                     0.308936
    225 H                     0.253377
    226 H                     0.234020
    227 S                     0.606385
    228 C                    -0.785936
    229 H                     0.282157
    230 H                     0.244592
    231 H                     0.275067
    232 O                    -0.627450
    233 C                    -0.792507
    234 H                     0.299571
    235 H                     0.235084
    236 H                     0.227629
    237 S                     0.790956
    238 C                    -0.766253
    239 H                     0.217528
    240 H                     0.251270
    241 H                     0.297449
    242 O                    -0.739577
    243 C                    -0.864452
    244 H                     0.248427
    245 H                     0.258943
    246 H                     0.239564
    247 S                     0.870257
    248 C                    -0.770583
    249 H                     0.263246
    250 H                     0.237733
    251 H                     0.299869
    252 O                    -0.785079
    253 C                    -0.832205
    254 H                     0.241362
    255 H                     0.257429
    256 H                     0.251015
    257 S                     1.021231
    258 C                    -0.919431
    259 H                     0.244085
    260 H                     0.270798
    261 H                     0.256681
    262 O                    -0.707509
  ----------------------------------------
  Sum of atomic charges =     0.000000

 -----------------------------------------------------------------
                    Cartesian Multipole Moments
 -----------------------------------------------------------------
    Charge (ESU x 10^10)
                 0.0000
    Dipole Moment (Debye)
         X      12.9427      Y       6.4858      Z       0.7416
       Tot      14.4959
    Quadrupole Moments (Debye-Ang)
        XX    -189.5635     XY     371.0109     YY    -418.8449
        XZ     361.0598     YZ      90.1454     ZZ    -902.5646
    Octopole Moments (Debye-Ang^2)
       XXX  -39360.8770    XXY   -6175.7082    XYY   -8225.0289
       YYY  -43238.9373    XXZ   -3723.1949    XYZ    7762.3492
       YYZ  -14740.9288    XZZ  -13548.6046    YZZ  -22945.7267
       ZZZ  -70558.9901
    Hexadecapole Moments (Debye-Ang^3)
      XXXX ************   XXXY ************   XXYY -681717.5730
      XYYY ************   YYYY ************   XXXZ -972171.9603
      XXYZ -196599.0707   XYYZ -311056.7497   YYYZ ************
      XXZZ -691254.1091   XYZZ -432253.1561   YYZZ ************
      XZZZ ************   YZZZ ************   ZZZZ ************
 -----------------------------------------------------------------
Archival summary:
[...]
    3   0.0149402  -0.0251963  -0.0093961  -0.0634004   0.0028344   0.0311645
           85          86          87          88          89          90
    1  -0.0358660   0.0281445  -0.0343396  -0.0053225  -0.0434415  -0.0086042
    2  -0.0073286  -0.0150589   0.0388449   0.0021339  -0.0098578   0.0187359
    3   0.0042956  -0.0195745   0.0147012  -0.0039821  -0.0140771  -0.0297837
           91          92          93          94          95          96
    1   0.0094908   0.1078872   0.0009140   0.0086591  -0.0201961   0.0252888
    2  -0.0268134   0.0097166   0.0060215   0.0034599   0.0228366   0.0219235
    3  -0.0091996  -0.0165770   0.0004812  -0.0275487   0.0128310   0.0205768
           97          98          99         100         101         102
    1  -0.0104052   0.0085184   0.0040914   0.0289229  -0.0038348  -0.0537571
    2  -0.0134764  -0.0010688   0.0027590   0.0149334  -0.0311255  -0.0206008
    3   0.0436162  -0.0008709  -0.0270021   0.0182095  -0.0169864  -0.0946455
          103         104         105         106         107         108
    1  -0.0009545  -0.0241725   0.0235793  -0.0114941   0.0158923   0.0080981
    2   0.0050845   0.0184078   0.0258885  -0.0063089   0.0116169  -0.0030373
    3  -0.0071081   0.0096825   0.0013737  -0.0276166   0.0531702  -0.0088484
          109         110         111         112         113         114
    1   0.0160307  -0.0091334   0.0281968  -0.0714029   0.0082923   0.0055760
    2  -0.0235623   0.0015141   0.0188991  -0.0754312   0.0011670   0.0248135
    3   0.0080565  -0.0309816   0.0059531  -0.0292619   0.0022887   0.0174013
          115         116         117         118         119         120
    1   0.0157414   0.0291722  -0.0082529   0.0036641   0.0300156  -0.0295153
    2  -0.0303521   0.0128043  -0.0280086   0.0119261   0.0100374  -0.0047102
    3   0.0035582  -0.0178630  -0.0448788   0.0071230  -0.0058754  -0.0014612
          121         122         123         124         125         126
    1   0.0147100  -0.0508282  -0.0009926  -0.0236646   0.0337413   0.0077334
    2   0.0083206  -0.0137522   0.0075391   0.0158473   0.0083090   0.0140633
    3   0.0295849   0.0968957   0.0031176   0.0127739   0.0099581  -0.0272161
          127         128         129         130         131         132
    1  -0.0075336   0.0029534   0.0290405   0.0093218   0.0113015  -0.0769546
    2  -0.0199827  -0.0046492   0.0027010  -0.0330921   0.0156998  -0.0138067
    3   0.0597304  -0.0033344   0.0157515   0.0005533  -0.0259887  -0.0760341
          133         134         135         136         137         138
    1   0.0066161   0.0353348  -0.0093294  -0.0168564  -0.0563854   0.0045678
    2   0.0024801  -0.0105754  -0.0256114   0.0269096   0.0102417   0.0053889
    3  -0.0096821   0.0022896  -0.0090558  -0.0186286  -0.0004452   0.0030282
          139         140         141         142         143         144
    1  -0.0031433  -0.0032097   0.0301939   0.0477334   0.0023223   0.0200274
    2   0.0184110   0.0122050  -0.0086061  -0.0844381  -0.0072238   0.0196941
    3  -0.0281615   0.0337855   0.0023971   0.0515189   0.0094210   0.0160857
          145         146         147         148         149         150
    1  -0.0122245   0.0217967   0.0300054  -0.0074385   0.0203220  -0.0205250
    2  -0.0181288  -0.0174069   0.0269011   0.0052215   0.0241724   0.0169447
    3   0.0161434  -0.0104864  -0.0414816   0.0067611   0.0074457  -0.0311494
          151         152         153         154         155         156
    1   0.0014270  -0.0703490  -0.0016754  -0.0091445  -0.0076874   0.0318266
    2  -0.0261468  -0.0820090   0.0015867  -0.0230455   0.0290678  -0.0009546
    3   0.0328702  -0.0198341  -0.0090328  -0.0217195  -0.0145800   0.0028030
          157         158         159         160         161         162
    1   0.0377896  -0.0040286  -0.0118517  -0.0238604   0.0301247  -0.1070065
    2   0.0225512  -0.0103862  -0.0132580  -0.0218867  -0.0131262   0.0164798
    3   0.0460846  -0.0048783   0.0211303  -0.0225878   0.0017043  -0.0039711
          163         164         165         166         167         168
    1  -0.0059679   0.0238359  -0.0027429  -0.0302802   0.0518199  -0.0109377
    2  -0.0100458   0.0035359  -0.0310809  -0.0057151   0.0123021  -0.0061806
    3  -0.0050669  -0.0202939   0.0217032  -0.0135612   0.0246799   0.0041047
          169         170         171         172         173         174
    1  -0.0043858  -0.0255004   0.0184181  -0.0433664   0.0018256  -0.0205535
    2   0.0271619  -0.0194913  -0.0133301   0.0647021   0.0046257   0.0202073
    3   0.0143146  -0.0210147   0.0294920  -0.0774806  -0.0015220  -0.0131127
          175         176         177         178         179         180
    1   0.0124424   0.0142714   0.0483722  -0.0092239  -0.0249619   0.0173099
    2   0.0294031  -0.0038524  -0.0300292  -0.0076996   0.0204684  -0.0066282
    3   0.0129796  -0.0345342   0.0102588  -0.0030447  -0.0060805  -0.0259722
          181         182         183         184         185         186
    1  -0.0083743  -0.0724539  -0.0067146  -0.0262357   0.0157109  -0.0154739
    2  -0.0331147   0.0343588   0.0039173  -0.0026488   0.0129650   0.0335932
    3   0.0059856   0.0732465   0.0010314   0.0127925   0.0248285  -0.0105683
          187         188         189         190         191         192
    1   0.0336927  -0.0121663  -0.0073489  -0.0212650   0.0141852   0.0158036
    2   0.0186375  -0.0044688  -0.0098450   0.0268616  -0.0098248  -0.0843317
    3  -0.0337252  -0.0030417   0.0327791  -0.0026167  -0.0337425   0.0684655
          193         194         195         196         197         198
    1   0.0000814  -0.0223872   0.0212070   0.0099088   0.0277535  -0.0038425
    2   0.0131750   0.0205674  -0.0093320   0.0266711  -0.0360137   0.0070602
    3   0.0046077   0.0176081   0.0151966  -0.0187027  -0.0346853  -0.0094018
          199         200         201         202         203         204
    1  -0.0217290  -0.0178302   0.0116686  -0.0714317   0.0031632   0.0012913
    2  -0.0186537   0.0260937  -0.0016191  -0.0328950  -0.0078043  -0.0369371
    3  -0.0091080   0.0217958  -0.0396772   0.0784621   0.0073191   0.0001815
          205         206         207         208         209         210
    1   0.0251385  -0.0002227   0.0104509  -0.0043332  -0.0269315  -0.0054222
    2  -0.0103415   0.0201238   0.0494112  -0.0040523   0.0018191  -0.0272711
    3  -0.0152375   0.0294692  -0.0151406   0.0042118  -0.0168089   0.0178140
          211         212         213         214         215         216
    1  -0.0180701  -0.0016078   0.0015444  -0.0116386   0.0343677   0.0013202
    2   0.0238373  -0.0871365  -0.0049336  -0.0301536  -0.0081373   0.0224311
    3   0.0233943  -0.0689934   0.0069907   0.0136474  -0.0066607   0.0198066
          217         218         219         220         221         222
    1   0.0180952  -0.0085549  -0.0075832  -0.0114244  -0.0119923  -0.0198220
    2   0.0463661   0.0028091  -0.0344181   0.0224712   0.0211652  -0.0947596
    3  -0.0273537   0.0054531  -0.0032628   0.0334235  -0.0207879  -0.0536976
          223         224         225         226         227         228
    1   0.0066143   0.0280629  -0.0254310   0.0056382  -0.0179341  -0.0063763
    2   0.0076314   0.0089059   0.0178157   0.0091428  -0.0093147   0.0026729
    3   0.0052696  -0.0183724  -0.0044321   0.0331135  -0.0576022   0.0106289
          229         230         231         232         233         234
    1  -0.0273309  -0.0082553   0.0175525   0.0775106  -0.0061172  -0.0235053
    2   0.0222863  -0.0263979  -0.0021073  -0.0662490  -0.0078347  -0.0141558
    3   0.0060286  -0.0154590   0.0272433   0.0431289   0.0004959  -0.0182672
          235         236         237         238         239         240
    1   0.0237789  -0.0009404   0.0361238  -0.0077165  -0.0208266  -0.0011935
    2  -0.0199483  -0.0070244   0.0237862   0.0018852   0.0085331   0.0331840
    3  -0.0031689   0.0343800   0.0321704  -0.0008548   0.0305455  -0.0061060
          241         242         243         244         245         246
    1  -0.0270737   0.0073924   0.0060191  -0.0114521   0.0059559   0.0267247
    2  -0.0193763  -0.0035284  -0.0033513  -0.0300439   0.0119307   0.0026643
    3  -0.0060701  -0.1088064  -0.0040631   0.0068057  -0.0301146   0.0129201
          247         248         249         250         251         252
    1  -0.0244438  -0.0052961   0.0165722  -0.0192582  -0.0386109   0.0619902
    2  -0.0133845   0.0074480   0.0174506  -0.0250438   0.0099790   0.1003120
    3   0.0441376  -0.0060420  -0.0235905  -0.0096613  -0.0076994  -0.0214926
          253         254         255         256         257         258
    1  -0.0030668   0.0006854   0.0125907  -0.0289053  -0.0219092  -0.0045226
    2  -0.0060431   0.0029779  -0.0273124  -0.0230944  -0.0056207   0.0062716
    3  -0.0045041  -0.0313817   0.0084120   0.0034796   0.0578641  -0.0038927
          259         260         261         262
    1   0.0075221  -0.0333331   0.0151573   0.1055997
    2  -0.0013871  -0.0133894   0.0325694   0.0121200
    3  -0.0303091   0.0037517   0.0019620  -0.0225547
  --- DONE ESP SUMMARY ---
Archival summary:
1\1\n0085.mhg0\SP\ProcedureUnspecified\6-31+G*\242448h22\ymao\FriMar1204:28:572021FriMar1204:28:572021\0\\#,ProcedureUnspecified,6-31+G*,\\0,1\S\O,1,1.49655\C,1,1.80617,2,105.778\H,3,1.09273,1,106.547,2,54.3069,0\H,3,1.09346,1,115.327,2,176.207,0\H,3,1.09358,1,107.623,2,-61.0665,0\C,1,1.80699,2,109.429,3,97.089,0\H,7,1.09218,1,114.736,2,-29.1223,0\H,7,1.09255,1,111.216,2,92.3778,0\H,7,1.0939,1,107.589,2,-148.677,0\H,8,2.07015,7,149.329,1,-9.73329,0\C,11,1.09358,8,133.6,7,158.638,0\H,12,1.09286,11,110.371,8,36.9616,0\H,12,1.09349,11,110.721,8,153.305,0\S,12,1.80746,11,108.31,8,-89.3131,0\O,15,1.49689,12,105.933,11,-155.688,0\C,15,1.8066,12,99.7279,11,-50.9698,0\H,17,1.09284,15,105.51,12,76.2791,0\H,17,1.09307,15,113.04,12,-156.302,0\H,17,1.09313,15,109.237,12,-28.1757,0\H,5,2.19978,3,119.77,1,-149.567,0\C,21,1.09322,5,154.47,3,67.0933,0\H,22,1.09253,21,114.591,5,-106.887,0\H,22,1.09289,21,103.848,5,129.441,0\S,22,1.80692,21,110.385,5,14.0604,0\O,25,1.49723,22,106.606,21,-43.4684,0\C,25,1.80721,22,96.663,21,59.5642,0\H,27,1.09281,25,113.868,22,64.117,0\H,27,1.09285,25,108.648,22,-51.6454,0\H,27,1.09329,25,109.101,22,-171.166,0\H,30,2.1745,27,130.744,25,54.9888,0\C,31,1.09315,30,123.922,27,176.85,0\H,32,1.0933,31,110.425,30,-177.946,0\H,32,1.09343,31,110.108,30,62.1345,0\S,32,1.80694,31,106.105,30,-62.4528,0\O,35,1.49684,32,101.122,31,77.8723,0\C,35,1.80651,32,89.4794,31,-177.382,0\H,37,1.09272,35,105.793,32,174.645,0\H,37,1.09282,35,104.091,32,-67.8044,0\H,37,1.09296,35,118.218,32,54.9405,0\H,33,1.96514,32,107.954,31,-139.681,0\C,41,1.09256,33,132.087,32,136.631,0\H,42,1.09324,41,103.455,33,4.11249,0\H,42,1.09334,41,109.522,33,-108.663,0\S,42,1.80631,41,114.646,33,128.283,0\O,45,1.49696,42,96.8094,41,159.643,0\C,45,1.80774,42,93.751,41,51.289,0\H,47,1.09311,45,106.358,42,-66.2322,0\H,47,1.09314,45,110.5,42,59.8561,0\H,47,1.09321,45,106.141,42,174.748,0\H,49,2.26745,47,160.64,45,70.2454,0\C,51,1.09247,49,112.196,47,-98.4737,0\H,52,1.09337,51,112.854,49,157.234,0\H,52,1.0935,51,109.619,49,38.951,0\S,52,1.80704,51,107.991,49,-81.6519,0\O,55,1.49712,52,103.554,51,64.1471,0\C,55,1.80699,52,98.8708,51,168.065,0\H,57,1.09249,55,112.894,52,-56.2836,0\H,57,1.09335,55,103.165,52,-168.232,0\H,57,1.09377,55,104.745,52,72.8761,0\H,18,2.37433,17,120.092,15,164.99,0\C,61,1.09282,18,127.604,17,4.96651,0\H,62,1.09312,61,109.869,18,30.0925,0\H,62,1.09324,61,115.98,18,146.435,0\S,62,1.80738,61,113.364,18,-82.7868,0\O,65,1.49705,62,106.671,61,32.3404,0\C,65,1.80713,62,92.858,61,-71.8074,0\H,67,1.09283,65,114.371,62,-59.6892,0\H,67,1.09301,65,102.543,62,46.0535,0\H,67,1.09369,65,116.662,62,167.499,0\H,61,2.11888,18,125.051,17,150.22,0\C,71,1.0929,61,168.972,18,34.89,0\H,72,1.09263,71,106.47,61,-77.9347,0\H,72,1.09321,71,107.845,61,43.5049,0\S,72,1.80726,71,107.312,61,160.962,0\O,75,1.49716,72,101.121,71,-37.8361,0\C,75,1.80688,72,97.7716,71,70.2094,0\H,77,1.09203,75,116.444,72,-58.7905,0\H,77,1.09264,75,116.509,72,73.2124,0\H,77,1.09273,75,110.076,72,-163.497,0\H,70,2.1571,67,112.346,65,-60.8579,0\C,81,1.09343,70,120.341,67,-129.924,0\H,82,1.09275,81,113.949,70,-4.78983,0\H,82,1.093,81,101.165,70,123.59,0\S,82,1.80761,81,113.581,70,-122.632,0\O,85,1.49683,82,106.832,81,85.1177,0\C,85,1.80692,82,85.9248,81,-164.823,0\H,87,1.09249,85,109.702,82,-66.8202,0\H,87,1.09342,85,104.781,82,62.1406,0\H,87,1.09352,85,104.594,82,-178.637,0\H,74,2.34299,72,139.797,71,130.859,0\C,91,1.0927,74,142.136,72,-29.4956,0\H,92,1.09266,91,101.298,74,144.346,0\H,92,1.0927,91,115.427,74,23.9846,0\S,92,1.80719,91,103.387,74,-103.989,0\O,95,1.49741,92,109.802,91,-40.9561,0\C,95,1.80684,92,102.647,91,61.6525,0\H,97,1.09268,95,117.965,92,169.878,0\H,97,1.09293,95,110.162,92,41.6981,0\H,97,1.09376,95,105.129,92,-73.9065,0\H,83,2.38751,82,151.904,81,153.734,0\C,101,1.09283,83,143.264,82,111.85,0\H,102,1.09279,101,106.16,83,-29.9187,0\H,102,1.09313,101,106.029,83,-152.423,0\S,102,1.80683,101,118.322,83,80.0033,0\O,105,1.49693,102,97.0271,101,-162.053,0\C,105,1.80696,102,99.8453,101,-57.5113,0\H,107,1.09301,105,103.59,102,82.0357,0\H,107,1.09305,105,110.842,102,-38.6374,0\H,107,1.09318,105,103.075,102,-157.44,0\H,91,2.43101,74,83.796,72,164.088,0\C,111,1.09309,91,125.354,74,-72.3235,0\H,112,1.09262,111,103.856,91,26.5148,0\H,112,1.09283,111,103.553,91,145.24,0\S,112,1.8071,111,106.144,91,-88.7777,0\O,115,1.49713,112,105.173,111,59.5069,0\C,115,1.80685,112,97.8203,111,-48.4676,0\H,117,1.09262,115,104.817,112,-49.5341,0\H,117,1.09279,115,108.937,112,68.7306,0\H,117,1.09289,115,116.457,112,-167.488,0\Gh,111,2.33229,91,116.15,74,85.7348,0\Gh,121,1.09601,111,147.123,91,-119.843,0\Gh,122,1.09702,121,108.976,111,153.631,0\Gh,122,1.53737,121,111.235,111,39.5819,0\Gh,124,1.09709,122,112.555,121,-50.6473,0\Gh,124,1.09714,122,104.359,121,77.742,0\Gh,124,1.53712,122,118.231,121,-175.043,0\Gh,127,1.09655,124,111.033,122,172.032,0\Gh,127,1.09764,124,114.789,122,-72.5567,0\Gh,127,1.53777,124,109.808,122,53.6919,0\Gh,130,1.097,127,106.544,124,74.8333,0\Gh,130,1.46188,127,115.839,124,-168.444,0\Gh,132,1.01242,130,121.713,127,93.1137,0\Gh,132,1.3795,130,123.699,127,-93.4362,0\Gh,134,1.10494,132,112.709,130,-169.421,0\Gh,134,1.21807,132,124.803,130,19.8207,0\Gh,130,1.53729,127,113.684,124,-45.749,0\Gh,137,1.09696,130,111.675,127,175.411,0\Gh,137,1.09719,130,112.528,127,-69.7459,0\Gh,137,1.53711,130,114.998,127,45.6055,0\Gh,140,1.09642,137,105.878,130,74.1495,0\Gh,140,1.0972,137,108.569,130,-172.492,0\O,133,2.15095,132,139.855,130,-175.357,0\S,143,1.49648,133,144.564,132,107.545,0\C,144,1.80621,143,99.2054,133,122.463,0\H,145,1.09288,144,114.83,143,176.669,0\H,145,1.09307,144,109.403,143,-62.9878,0\H,145,1.0932,144,107.794,143,55.1947,0\C,144,1.80645,143,104.901,133,27.6603,0\H,149,1.09271,144,101.598,143,-87.5946,0\H,149,1.09343,144,108.363,143,145.277,0\H,149,1.0935,144,107.569,143,24.6818,0\H,148,2.30995,145,135.768,144,-55.0821,0\C,153,1.09285,148,157.297,145,-165.513,0\H,154,1.09292,153,115.22,148,-87.6784,0\H,154,1.09328,153,106.288,148,24.4886,0\S,154,1.80614,153,108.552,148,150.185,0\O,157,1.49681,154,104.007,153,-148.816,0\C,157,1.80769,154,97.3472,153,-44.4406,0\H,159,1.09269,157,98.9082,154,73.8462,0\H,159,1.09274,157,109.216,154,-51.0257,0\H,159,1.09379,157,99.3662,154,-170.592,0\H,162,2.22547,159,103.462,157,87.4989,0\C,163,1.09294,162,108.211,159,161.174,0\H,164,1.09272,163,111.677,162,82.9545,0\H,164,1.09294,163,113.396,162,-162.349,0\S,164,1.80653,163,109.021,162,-39.6231,0\O,167,1.49732,164,108.1,163,88.3351,0\C,167,1.80713,164,91.4997,163,-164.709,0\H,169,1.09316,167,109.426,164,-169.322,0\H,169,1.09344,167,108.579,164,63.1012,0\H,169,1.09347,167,101.528,164,-55.4354,0\H,141,2.37766,140,134.45,137,67.2788,0\C,173,1.09322,141,131.518,140,-105.727,0\H,174,1.09284,173,109.867,141,29.8126,0\H,174,1.09328,173,105.436,141,153.937,0\S,174,1.80732,173,100.865,141,-86.9687,0\O,177,1.4966,174,101.931,173,52.49,0\C,177,1.80679,174,96.8582,173,-56.8307,0\H,179,1.09299,177,117.712,174,-88.8019,0\H,179,1.09308,177,100.404,174,153.44,0\H,179,1.09351,177,111.535,174,43.7021,0\H,178,2.37777,177,117.271,174,-163.122,0\C,183,1.09296,178,140.282,177,21.7223,0\H,184,1.09283,183,109.624,178,48.1474,0\H,184,1.09283,183,106.151,178,166.431,0\S,184,1.80728,183,103.713,178,-80.0455,0\O,187,1.49674,184,103.331,183,-69.8069,0\C,187,1.80645,184,91.9948,183,-179.207,0\H,189,1.09304,187,106.365,184,-176.144,0\H,189,1.09324,187,107.368,184,57.3309,0\H,189,1.09363,187,101.645,184,-66.3075,0\H,104,2.43161,102,124.393,101,-132.49,0\C,193,1.09277,104,129.71,102,164.155,0\H,194,1.09266,193,114.907,104,54.9789,0\H,194,1.09296,193,108.454,104,177.493,0\S,194,1.80704,193,104.183,104,-65.7236,0\O,197,1.49647,194,103.601,193,172.907,0\C,197,1.80783,194,91.9158,193,-75.2696,0\H,199,1.09247,197,115.563,194,-50.6317,0\H,199,1.09249,197,108.256,194,-177.638,0\H,199,1.09289,197,109.001,194,76.0919,0\H,198,2.38426,197,116.801,194,-26.6789,0\C,203,1.09273,198,143.929,197,-113.794,0\H,204,1.09325,203,113.762,198,86.0773,0\H,204,1.0936,203,108.163,198,-168.903,0\S,204,1.80765,203,118.542,198,-40.7691,0\O,207,1.49667,204,94.6436,203,143.11,0\C,207,1.80729,204,96.8447,203,36.7054,0\H,209,1.09276,207,104.775,204,159.88,0\H,209,1.09285,207,109.059,204,34.9437,0\H,209,1.09326,207,101.238,204,-81.5365,0\H,205,2.02918,204,170.042,203,-78.923,0\C,213,1.09202,205,166.667,204,-32.708,0\H,214,1.09286,213,110.31,205,-18.3762,0\H,214,1.09336,213,118.708,205,-133.907,0\S,214,1.80732,213,107.173,205,104.175,0\O,217,1.49714,214,94.6773,213,49.349,0\C,217,1.80716,214,91.6602,213,-52.6145,0\H,219,1.09263,217,107.987,214,176.398,0\H,219,1.09297,217,108.631,214,60.1921,0\H,219,1.09299,217,103.569,214,-62.5363,0\H,155,2.44288,154,100.395,153,170.321,0\C,223,1.0925,155,144.558,154,-166.62,0\H,224,1.09222,223,117.578,155,78.2633,0\H,224,1.09371,223,111.386,155,-165.216,0\S,224,1.8069,223,106.921,155,-40.6397,0\O,227,1.49752,224,103.061,223,-65.6363,0\C,227,1.80707,224,99.6712,223,-169.691,0\H,229,1.09278,227,108.047,224,159.497,0\H,229,1.0933,227,100.964,224,-81.5665,0\H,229,1.09349,227,116.986,224,40.1636,0\H,16,2.48836,15,145.577,12,6.76828,0\C,233,1.09322,16,129.736,15,-43.6092,0\H,234,1.093,233,102.754,16,-141.174,0\H,234,1.09318,233,107.865,16,104.456,0\S,234,1.80687,233,114.717,16,-20.8993,0\O,237,1.49722,234,109.058,233,-170.464,0\C,237,1.8075,234,92.3346,233,-65.3795,0\H,239,1.09285,237,96.5692,234,59.2359,0\H,239,1.09315,237,113.178,234,-55.9224,0\H,239,1.09331,237,111.676,234,179.092,0\H,242,2.51791,239,113.605,237,164.281,0\C,243,1.09281,242,172.961,239,-65.1008,0\H,244,1.09282,243,117.839,242,-66.2414,0\H,244,1.09372,243,108.278,242,55.0629,0\S,244,1.80785,243,114.974,242,162.929,0\O,247,1.49737,244,106.489,243,-58.6958,0\C,247,1.80629,244,92.6324,243,42.053,0\H,249,1.09258,247,108.497,244,49.5061,0\H,249,1.09324,247,113.861,244,-72.8624,0\H,249,1.09335,247,109.513,244,166.603,0\H,66,2.69567,65,139.823,62,123.26,0\C,253,1.09307,66,133.224,65,-170.379,0\H,254,1.09332,253,110.803,66,88.4032,0\H,254,1.09368,253,110.532,66,-154.557,0\S,254,1.80638,253,113.185,66,-21.1167,0\O,257,1.49681,254,101.007,253,-100.401,0\C,257,1.80653,254,97.9896,253,151.053,0\H,259,1.09261,257,107.316,254,60.3919,0\H,259,1.09273,257,107.071,254,178.259,0\H,259,1.09397,257,112.372,254,-58.4038,0\\\@

 Total job time:  55.21s(wall), 196.35s(cpu) 
 Fri Mar 12 04:28:57 2021

        *************************************************************
        *                                                           *
        *  Thank you very much for using Q-Chem.  Have a nice day.  *
        *                                                           *
        *************************************************************


