                  Welcome to Q-Chem
     A Quantum Leap Into The Future Of Chemistry


 Q-Chem 5.2 (devel), Q-Chem, Inc., Pleasanton, CA (2019)

 Yihan Shao,  Zhengting Gan,  E. Epifanovsky,  A. T. B. Gilbert,  M. Wormit,  
 J. Kussmann,  A. W. Lange,  A. Behn,  Jia Deng,  Xintian Feng,  D. Ghosh,  
 M. Goldey,  P. R. Horn,  L. D. Jacobson,  I. Kaliman,  T. Kus,  A. Landau,  
 Jie Liu,  E. I. Proynov,  R. M. Richard,  R. P. Steele,  E. J. Sundstrom,  
 H. L. Woodcock III,  P. M. Zimmerman,  D. Zuev,  B. Alam,  B. Albrecht,  
 E. Alguire,  S. A. Baeppler,  D. Barton,  Z. Benda,  Y. A. Bernard,  
 E. J. Berquist,  K. B. Bravaya,  H. Burton,  K. Carter-Fenk,  D. Casanova,  
 Chun-Min Chang,  Yunqing Chen,  A. Chien,  K. D. Closser,  M. P. Coons,  
 S. Coriani,  S. Dasgupta,  A. L. Dempwolff,  M. Diedenhofen,  Hainam Do,  
 R. G. Edgar,  Po-Tung Fang,  S. Faraji,  S. Fatehi,  Qingguo Feng,  
 J. Fosso-Tande,  J. Gayvert,  Qinghui Ge,  A. Ghysels,  G. Gidofalvi,  
 J. Gomes,  J. Gonthier,  A. Gunina,  D. Hait,  M. W. D. Hanson-Heine,  
 P. H. P. Harbach,  A. W. Hauser,  M. F. Herbst,  J. E. Herr,  
 E. G. Hohenstein,  Z. C. Holden,  Kerwin Hui,  B. C. Huynh,  T.-C. Jagau,  
 Hyunjun Ji,  B. Kaduk,  K. Khistyaev,  Jaehoon Kim,  P. Klunzinger,  K. Koh,  
 D. Kosenkov,  L. Koulias,  T. Kowalczyk,  C. M. Krauter,  A. Kunitsa,  
 Ka Un Lao,  A. Laurent,  K. V. Lawler,  Joonho Lee,  D. Lefrancois,  
 S. Lehtola,  D. S. Levine,  Yi-Pei Li,  You-Sheng Lin,  Fenglai Liu,  
 Kuan-Yu Liu,  E. Livshits,  M. Loipersberger,  A. Luenser,  P. Manohar,  
 E. Mansoor,  S. F. Manzer,  Shan-Ping Mao,  Yuezhi Mao,  N. Mardirossian,  
 A. V. Marenich,  T. Markovich,  L. A. Martinez-Martinez,  S. A. Maurer,  
 N. J. Mayhall,  S. C. McKenzie,  J.-M. Mewes,  P. Morgante,  A. F. Morrison,  
 J. W. Mullinax,  K. Nanda,  T. S. Nguyen-Beck,  R. Olivares-Amaya,  
 J. A. Parkhill,  S. K. Paul,  F. Pavosevic,  Zheng Pei,  T. M. Perrine,  
 F. Plasser,  P. Pokhilko,  S. Prager,  A. Prociuk,  E. Ramos,  B. Rana,  
 D. R. Rehn,  F. Rob,  M. Scheurer,  M. Schneider,  N. Sergueev,  
 S. M. Sharada,  S. Sharma,  D. W. Small,  T. Stauch,  C. J. Stein,  
 T. Stein,  Yu-Chuan Su,  S. P. Veccham,  Zhen Tao,  A. J. W. Thom,  
 A. Tkatchenko,  T. Tsuchimochi,  N. M. Tubman,  L. Vogt,  M. L. Vidal,  
 O. Vydrov,  M. A. Watson,  J. Wenzel,  M. de Wergifosse,  T. A. Wesolowski,  
 A. White,  J. Witte,  A. Yamada,  Jun Yang,  K. Yao,  S. Yeganeh,  
 S. R. Yost,  Zhi-Qiang You,  A. Zech,  Igor Ying Zhang,  Xing Zhang,  
 Yan Zhao,  Ying Zhu,  B. R. Brooks,  G. K. L. Chan,  C. J. Cramer,  
 M. S. Gordon,  W. J. Hehre,  A. Klamt,  M. W. Schmidt,  C. D. Sherrill,  
 D. G. Truhlar,  A. Aspuru-Guzik,  R. Baer,  A. T. Bell,  N. A. Besley,  
 Jeng-Da Chai,  A. E. DePrince, III,  R. A. DiStasio Jr.,  A. Dreuw,  
 B. D. Dunietz,  T. R. Furlani,  Chao-Ping Hsu,  Yousung Jung,  Jing Kong,  
 D. S. Lambrecht,  WanZhen Liang,  C. Ochsenfeld,  V. A. Rassolov,  
 L. V. Slipchenko,  J. E. Subotnik,  T. Van Voorhis,  J. M. Herbert,  
 A. I. Krylov,  P. M. W. Gill,  M. Head-Gordon

 Contributors to earlier versions of Q-Chem not listed above: 
 R. D. Adamson,  B. Austin,  J. Baker,  G. J. O. Beran,  K. Brandhorst,  
 S. T. Brown,  E. F. C. Byrd,  A. K. Chakraborty,  C.-L. Cheng,  
 Siu Hung Chien,  D. M. Chipman,  D. L. Crittenden,  H. Dachsel,  
 R. J. Doerksen,  A. D. Dutoi,  L. Fusti-Molnar,  W. A. Goddard III,  
 A. Golubeva-Zadorozhnaya,  S. R. Gwaltney,  G. Hawkins,  A. Heyden,  
 S. Hirata,  G. Kedziora,  F. J. Keil,  C. Kelley,  Jihan Kim,  R. A. King,  
 R. Z. Khaliullin,  P. P. Korambath,  W. Kurlancheek,  A. M. Lee,  M. S. Lee,  
 S. V. Levchenko,  Ching Yeh Lin,  D. Liotard,  R. C. Lochan,  I. Lotan,  
 P. E. Maslen,  N. Nair,  D. P. O'Neill,  D. Neuhauser,  E. Neuscamman,  
 C. M. Oana,  R. Olson,  B. Peters,  R. Peverati,  P. A. Pieniazek,  
 Y. M. Rhee,  J. Ritchie,  M. A. Rohrdanz,  E. Rosta,  N. J. Russ,  
 H. F. Schaefer III,  N. E. Schultz,  N. Shenvi,  A. C. Simmonett,  A. Sodt,  
 D. Stuck,  K. S. Thanthiriwatte,  V. Vanovschi,  Tao Wang,  A. Warshel,  
 C. F. Williams,  Q. Wu,  X. Xu,  W. Zhang

 Please cite Q-Chem as follows:
 Y. Shao et al., Mol. Phys. 113, 184-215 (2015)
 DOI: 10.1080/00268976.2014.952696

 Q-Chem 5.2.2 for Intel X86 EM64T Linux

 Parts of Q-Chem use Armadillo 9.800.1 (Horizon Scraper).
 http://arma.sourceforge.net/

 Q-Chem begins on Thu Mar 11 13:37:36 2021  

Host: n0081.mhg0
0

     Scratch files written to /local/scratch/users/ymao/r7.00_frame_0071_almo_B3LYP_dp.in20210311133734//

Checking the input file for inconsistencies... 	...done.

--------------------------------------------------------------
User input:
--------------------------------------------------------------
$molecule
0 1
--
0 1
C    27.11700   24.85400   26.27800  
C    26.78700   26.30000   26.68300  
C    25.27600   26.56000   26.57300  
C    24.46200   25.42700   27.21900  
C    24.78300   24.01700   26.69700  
C    26.28000   23.71500   26.88100  
H    25.00400   27.43900   27.17000  
H    27.04000   26.27500   27.75000  
H    27.07100   24.74900   25.18700  
H    28.18200   24.71300   26.50000  
H    24.72500   25.37400   28.28200  
H    23.38300   25.62600   27.23300  
H    24.14100   23.40900   27.34500  
H    24.50400   23.91100   25.64100  
H    26.54100   23.63400   27.94300  
H    26.46300   22.72100   26.45500  
H    24.95800   26.60200   25.52400  
N    27.54700   27.24500   25.86600  
H    27.51600   27.11500   24.86200  
C    27.94100   28.50900   26.24800  
H    28.59400   28.94600   25.47100  
O    27.66100   28.99100   27.33200  
--
0 1
C    24.85200   30.59900   25.84700  
H    23.94500   30.24500   26.34500  
H    25.27200   29.81000   25.21800  
H    25.60700   30.92800   26.56500  
S    24.43200   31.96000   24.73500  
C    23.26900   31.01800   23.72100  
H    22.73400   31.56600   22.94200  
H    23.86800   30.18500   23.34500  
H    22.48700   30.77700   24.44600  
O    25.58900   32.10500   23.79600  
C    31.63900   29.40800   29.12800  
H    32.04100   28.97600   28.20800  
H    30.81500   28.87700   29.61000  
H    31.31300   30.43500   28.94200  
S    32.95600   29.52200   30.36000  
C    32.94400   27.75400   30.73100  
H    31.93000   27.35200   30.65200  
H    33.51500   27.20300   29.97900  
H    33.35000   27.54000   31.72300  
O    32.19800   30.21600   31.44900  
C    24.47400   28.84500   32.28500  
H    24.36200   28.78600   33.37000  
H    25.19300   29.65000   32.11200  
H    23.53000   28.99200   31.75400  
S    25.13600   27.32300   31.57100  
C    25.43500   27.99900   29.92300  
H    26.22700   28.71300   30.16600  
H    25.88400   27.19900   29.32800  
H    24.51200   28.45100   29.55200  
O    23.92200   26.44800   31.50700  
C    19.97800   26.64000   31.43500  
H    20.84900   26.40000   30.82000  
H    19.21500   25.86300   31.33500  
H    19.56700   27.57100   31.03800  
S    20.63600   26.93800   33.09100  
C    20.82800   25.18700   33.49300  
H    21.36400   24.55300   32.78200  
H    21.38600   25.02600   34.41900  
H    19.81200   24.84400   33.70800  
O    19.41300   27.29300   33.87700  
C    31.53400   17.05700   25.25700  
H    31.80100   16.01300   25.07800  
H    32.23000   17.85800   24.99500  
H    31.35900   17.13900   26.33300  
S    29.90000   17.31800   24.53000  
C    30.67500   17.77600   22.96400  
H    31.31000   16.97000   22.58700  
H    30.00500   18.11200   22.16800  
H    31.33300   18.61500   23.20600  
O    29.49400   18.63700   25.11200  
C    29.55400   21.50900   27.83500  
H    29.19100   20.91900   26.99000  
H    28.72800   22.16700   28.11700  
H    30.42000   22.10700   27.54100  
S    30.10400   20.46200   29.20200  
C    30.79100   19.15800   28.15700  
H    29.97400   18.47100   27.92400  
H    31.22600   19.63200   27.27400  
H    31.54600   18.67200   28.78100  
O    28.78600   19.88100   29.61100  
C    24.87000   23.13500   30.40700  
H    23.91400   23.01200   29.89000  
H    25.31000   24.11800   30.22500  
H    25.49600   22.28900   30.11100  
S    24.55300   23.05800   32.18400  
C    26.16400   23.68400   32.71100  
H    26.17300   24.73900   32.42400  
H    26.20200   23.54600   33.79500  
H    26.93300   23.09000   32.21100  
O    24.48700   21.59200   32.48100  
C    19.78700   22.88700   27.26400  
H    19.21500   22.76200   28.18700  
H    19.15400   23.01600   26.38200  
H    20.50500   22.07800   27.10500  
S    20.77600   24.38800   27.45100  
C    21.33400   24.01800   29.13000  
H    21.65500   22.97500   29.17000  
H    22.27600   24.56600   29.21300  
H    20.55200   24.19800   29.87200  
O    19.96400   25.64500   27.48900  
C    34.29200   24.07600   27.07500  
H    34.28600   24.09700   25.98200  
H    35.18100   24.50200   27.54700  
H    34.17600   23.04200   27.40700  
S    32.76600   24.88900   27.60000  
C    32.74900   24.06500   29.20700  
H    33.62400   24.28000   29.82600  
H    31.88500   24.33200   29.82100  
H    32.67800   23.02200   28.88800  
O    31.72700   24.14300   26.82200  
C    30.40300   25.48000   23.75100  
H    30.25400   26.51900   23.44400  
H    29.50000   25.22400   24.31100  
H    31.28000   25.33700   24.38800  
S    30.58700   24.47000   22.26400  
C    32.24900   24.93200   21.72400  
H    32.97700   24.77100   22.52400  
H    32.56000   24.31500   20.87700  
H    32.35600   25.99700   21.50100  
O    29.63400   25.16600   21.34300  
C    20.39400   27.64200   21.74100  
H    21.29000   27.17100   21.32800  
H    19.73200   26.85200   22.10600  
H    19.88600   28.30200   21.03400  
S    20.98500   28.62900   23.13400  
C    21.29400   27.31600   24.33700  
H    21.96000   26.57300   23.89100  
H    21.76600   27.77900   25.20700  
H    20.32700   26.91600   24.65400  
O    19.78400   29.49200   23.36400  
C    29.58100   32.12300   26.10400  
H    29.50000   32.21600   25.01800  
H    28.90400   31.40600   26.57500  
H    29.48000   33.03500   26.69700  
S    31.23800   31.47700   26.42600  
C    32.10900   32.63300   25.34500  
H    32.08300   33.65000   25.74600  
H    33.13200   32.37800   25.05700  
H    31.52400   32.66100   24.42200  
O    31.44500   30.12700   25.81300  
C    29.89400   29.22600   22.16000  
H    29.52400   29.97400   22.86600  
H    30.52400   28.61600   22.81300  
H    30.48600   29.62400   21.33200  
S    28.50000   28.18300   21.67400  
C    27.28600   29.46400   21.28900  
H    27.34500   30.24800   22.04900  
H    27.45000   29.74300   20.24500  
H    26.31900   28.98600   21.46400  
O    27.99200   27.69900   22.99600  
C    20.29300   19.41600   25.42200  
H    21.09500   20.15800   25.39200  
H    19.52000   19.66200   26.15500  
H    20.73000   18.43700   25.63600  
S    19.68400   19.55300   23.72700  
C    18.62700   18.11000   23.98300  
H    19.05200   17.21500   24.44300  
H    17.79500   18.51900   24.56200  
H    18.33000   17.69500   23.01700  
O    20.85000   19.13000   22.88900  
C    26.72500   33.51400   28.31300  
H    26.90500   32.80900   27.49800  
H    27.35800   34.38500   28.12500  
H    26.93800   33.14100   29.31800  
S    24.96700   33.90400   28.46100  
C    24.47100   32.27700   29.07100  
H    25.05900   31.56200   28.49000  
H    24.72000   32.15900   30.12800  
H    23.40800   32.07400   28.91400  
O    24.34300   33.86000   27.10100  
C    20.43100   22.87200   21.47100  
H    20.56600   21.81200   21.70400  
H    19.48600   23.04900   20.95200  
H    21.27700   23.17900   20.85200  
S    20.41600   23.64000   23.10600  
C    21.94000   22.92400   23.76100  
H    22.70900   23.09500   23.00300  
H    22.14500   23.34500   24.74900  
H    21.77800   21.84700   23.85400  
O    19.21800   22.98200   23.71700  
C    26.06800   18.95800   31.07900  
H    27.00100   18.57900   30.65400  
H    25.23700   18.33800   30.73200  
H    25.78100   19.91000   30.62500  
S    26.15300   18.95600   32.88400  
C    27.65400   19.96100   32.92200  
H    27.80400   20.00700   34.00400  
H    28.47100   19.56800   32.31100  
H    27.43700   20.92700   32.45900  
O    26.67200   17.62800   33.33900  
C    20.90400   29.23500   28.83500  
H    21.74100   29.61400   29.42700  
H    20.00600   28.90500   29.36300  
H    21.26000   28.43200   28.18400  
S    20.43400   30.44500   27.57700  
C    19.28600   29.38100   26.67500  
H    18.43200   29.27200   27.34800  
H    19.00100   29.98900   25.81300  
H    19.79800   28.49300   26.29500  
O    21.62200   30.59700   26.68000  
C    30.57600   32.50400   20.43700  
H    31.31600   33.30000   20.32200  
H    30.60200   32.21900   21.49200  
H    30.78200   31.64500   19.79400  
S    28.98900   33.28200   20.05800  
C    28.18400   33.41600   21.67000  
H    27.65100   34.36900   21.62300  
H    27.50800   32.56500   21.78800  
H    28.89400   33.58400   22.48300  
O    28.25600   32.12900   19.44600  
C    34.16300   27.57600   25.11500  
H    34.16000   26.52500   25.41600  
H    33.17200   28.03200   25.18300  
H    34.68100   27.77900   24.17500  
S    35.12600   28.36600   26.42400  
C    36.49300   27.22500   26.11800  
H    37.08000   27.55100   25.25600  
H    37.22100   27.20200   26.93300  
H    36.10000   26.22200   25.93600  
O    34.37800   27.84400   27.61100  
C    24.08300   20.29700   24.99900  
H    23.48400   21.09000   24.54400  
H    23.58200   19.45900   25.49200  
H    24.98400   20.52100   25.57600  
S    24.70900   19.48600   23.51100  
C    26.16400   18.67700   24.21300  
H    25.81800   18.18800   25.12700  
H    26.49900   18.00700   23.41700  
H    26.92000   19.43500   24.43400  
O    25.32800   20.56800   22.68200  
C    22.25700   18.38600   28.29300  
H    22.21200   17.80600   29.21800  
H    21.27800   18.71700   27.93700  
H    22.89800   17.86500   27.57800  
S    23.07700   19.84400   28.97800  
C    22.07700   20.05900   30.46700  
H    22.44700   19.38500   31.24400  
H    22.34800   21.04600   30.84900  
H    20.99400   19.96400   30.34800  
O    22.69200   21.00500   28.11500  
C    26.10300   24.02600   22.09800  
H    26.78400   23.44600   21.47000  
H    26.63000   24.23900   23.03100  
H    25.23800   23.43000   22.40000  
S    25.40800   25.48700   21.29200  
C    24.88500   26.28500   22.82700  
H    24.15100   27.06300   22.60500  
H    24.48200   25.60200   23.57900  
H    25.71900   26.86100   23.23600  
O    24.06600   25.03000   20.81100  
C    28.82000   21.19100   21.87100  
H    28.40800   22.06000   22.39000  
H    28.05600   20.62000   21.33800  
H    29.32200   20.57600   22.62200  
S    30.15700   21.63400   20.73900  
C    29.20700   22.36900   19.38900  
H    29.47300   21.95800   18.41200  
H    28.12800   22.31900   19.55200  
H    29.56000   23.40300   19.42700  
O    30.51800   20.25200   20.29200  
C    27.29300   17.47200   27.72400  
H    27.51100   18.06600   26.83300  
H    26.71400   18.05400   28.44600  
H    28.20400   17.17700   28.25100  
S    26.18900   16.10300   27.30700  
C    27.09600   15.60200   25.82700  
H    27.49400   16.39400   25.18700  
H    27.95700   14.98800   26.10200  
H    26.44500   14.95500   25.23400  
O    24.94500   16.74500   26.77800  
C    29.03900   31.01600   30.63400  
H    30.04900   30.68400   30.88900  
H    28.48900   30.18500   30.18400  
H    28.97600   31.87800   29.96500  
S    28.23200   31.62300   32.13200  
C    28.81100   30.19200   33.07100  
H    29.60600   29.55500   32.67300  
H    28.97800   30.51200   34.10300  
H    27.97700   29.48600   33.07900  
O    26.77800   31.48400   31.80400  
C    28.79200   27.06000   31.10100  
H    28.32800   27.78400   30.42600  
H    28.27700   26.92500   32.05600  
H    29.79100   27.44400   31.32100  
S    28.96500   25.43700   30.32700  
C    29.53600   26.25100   28.81800  
H    29.34200   25.62300   27.94400  
H    29.07900   27.23100   28.66000  
H    30.61700   26.41000   28.82500  
O    27.54100   25.09900   30.01200  
$end

$rem
JOBTYPE  SP
METHOD  B3LYP
BASIS  6-31+G(D)
SYMMETRY  FALSE
SYM_IGNORE  TRUE
MEM_TOTAL  16000
MEM_STATIC  8000
MAX_SUB_FILE_NUM  16000
BASIS_LIN_DEP_THRESH  6
THRESH  14
SCF_CONVERGENCE  8
GEN_SCFMAN  TRUE
SCF_GUESS  FRAGMO
FD_MAT_VEC_PROD  FALSE
XC_GRID  000075000302
NL_GRID  1
MAX_SCF_CYCLES  200
FRGM_METHOD  STOLL
SCFMI_MODE  1
$end

$development
almo_efield  1
$end

$rem_frgm
SCF_CONVERGENCE  4
$end

--------------------------------------------------------------
 ----------------------------------------------------------------
             Standard Nuclear Orientation (Angstroms)
    I     Atom           X                Y                Z
 ----------------------------------------------------------------
    1      C      27.1170000000    24.8540000000    26.2780000000
    2      C      26.7870000000    26.3000000000    26.6830000000
    3      C      25.2760000000    26.5600000000    26.5730000000
    4      C      24.4620000000    25.4270000000    27.2190000000
    5      C      24.7830000000    24.0170000000    26.6970000000
    6      C      26.2800000000    23.7150000000    26.8810000000
    7      H      25.0040000000    27.4390000000    27.1700000000
    8      H      27.0400000000    26.2750000000    27.7500000000
    9      H      27.0710000000    24.7490000000    25.1870000000
   10      H      28.1820000000    24.7130000000    26.5000000000
   11      H      24.7250000000    25.3740000000    28.2820000000
   12      H      23.3830000000    25.6260000000    27.2330000000
   13      H      24.1410000000    23.4090000000    27.3450000000
   14      H      24.5040000000    23.9110000000    25.6410000000
   15      H      26.5410000000    23.6340000000    27.9430000000
   16      H      26.4630000000    22.7210000000    26.4550000000
   17      H      24.9580000000    26.6020000000    25.5240000000
   18      N      27.5470000000    27.2450000000    25.8660000000
   19      H      27.5160000000    27.1150000000    24.8620000000
   20      C      27.9410000000    28.5090000000    26.2480000000
   21      H      28.5940000000    28.9460000000    25.4710000000
   22      O      27.6610000000    28.9910000000    27.3320000000
   23      C      24.8520000000    30.5990000000    25.8470000000
   24      H      23.9450000000    30.2450000000    26.3450000000
   25      H      25.2720000000    29.8100000000    25.2180000000
   26      H      25.6070000000    30.9280000000    26.5650000000
   27      S      24.4320000000    31.9600000000    24.7350000000
   28      C      23.2690000000    31.0180000000    23.7210000000
   29      H      22.7340000000    31.5660000000    22.9420000000
   30      H      23.8680000000    30.1850000000    23.3450000000
   31      H      22.4870000000    30.7770000000    24.4460000000
   32      O      25.5890000000    32.1050000000    23.7960000000
   33      C      31.6390000000    29.4080000000    29.1280000000
   34      H      32.0410000000    28.9760000000    28.2080000000
   35      H      30.8150000000    28.8770000000    29.6100000000
   36      H      31.3130000000    30.4350000000    28.9420000000
   37      S      32.9560000000    29.5220000000    30.3600000000
   38      C      32.9440000000    27.7540000000    30.7310000000
   39      H      31.9300000000    27.3520000000    30.6520000000
   40      H      33.5150000000    27.2030000000    29.9790000000
   41      H      33.3500000000    27.5400000000    31.7230000000
   42      O      32.1980000000    30.2160000000    31.4490000000
   43      C      24.4740000000    28.8450000000    32.2850000000
   44      H      24.3620000000    28.7860000000    33.3700000000
   45      H      25.1930000000    29.6500000000    32.1120000000
   46      H      23.5300000000    28.9920000000    31.7540000000
   47      S      25.1360000000    27.3230000000    31.5710000000
   48      C      25.4350000000    27.9990000000    29.9230000000
   49      H      26.2270000000    28.7130000000    30.1660000000
   50      H      25.8840000000    27.1990000000    29.3280000000
   51      H      24.5120000000    28.4510000000    29.5520000000
   52      O      23.9220000000    26.4480000000    31.5070000000
   53      C      19.9780000000    26.6400000000    31.4350000000
   54      H      20.8490000000    26.4000000000    30.8200000000
   55      H      19.2150000000    25.8630000000    31.3350000000
   56      H      19.5670000000    27.5710000000    31.0380000000
   57      S      20.6360000000    26.9380000000    33.0910000000
   58      C      20.8280000000    25.1870000000    33.4930000000
   59      H      21.3640000000    24.5530000000    32.7820000000
   60      H      21.3860000000    25.0260000000    34.4190000000
   61      H      19.8120000000    24.8440000000    33.7080000000
   62      O      19.4130000000    27.2930000000    33.8770000000
   63      C      31.5340000000    17.0570000000    25.2570000000
   64      H      31.8010000000    16.0130000000    25.0780000000
   65      H      32.2300000000    17.8580000000    24.9950000000
   66      H      31.3590000000    17.1390000000    26.3330000000
   67      S      29.9000000000    17.3180000000    24.5300000000
   68      C      30.6750000000    17.7760000000    22.9640000000
   69      H      31.3100000000    16.9700000000    22.5870000000
   70      H      30.0050000000    18.1120000000    22.1680000000
   71      H      31.3330000000    18.6150000000    23.2060000000
   72      O      29.4940000000    18.6370000000    25.1120000000
   73      C      29.5540000000    21.5090000000    27.8350000000
   74      H      29.1910000000    20.9190000000    26.9900000000
   75      H      28.7280000000    22.1670000000    28.1170000000
   76      H      30.4200000000    22.1070000000    27.5410000000
   77      S      30.1040000000    20.4620000000    29.2020000000
   78      C      30.7910000000    19.1580000000    28.1570000000
   79      H      29.9740000000    18.4710000000    27.9240000000
   80      H      31.2260000000    19.6320000000    27.2740000000
   81      H      31.5460000000    18.6720000000    28.7810000000
   82      O      28.7860000000    19.8810000000    29.6110000000
   83      C      24.8700000000    23.1350000000    30.4070000000
   84      H      23.9140000000    23.0120000000    29.8900000000
   85      H      25.3100000000    24.1180000000    30.2250000000
   86      H      25.4960000000    22.2890000000    30.1110000000
   87      S      24.5530000000    23.0580000000    32.1840000000
   88      C      26.1640000000    23.6840000000    32.7110000000
   89      H      26.1730000000    24.7390000000    32.4240000000
   90      H      26.2020000000    23.5460000000    33.7950000000
   91      H      26.9330000000    23.0900000000    32.2110000000
   92      O      24.4870000000    21.5920000000    32.4810000000
   93      C      19.7870000000    22.8870000000    27.2640000000
   94      H      19.2150000000    22.7620000000    28.1870000000
   95      H      19.1540000000    23.0160000000    26.3820000000
   96      H      20.5050000000    22.0780000000    27.1050000000
   97      S      20.7760000000    24.3880000000    27.4510000000
   98      C      21.3340000000    24.0180000000    29.1300000000
   99      H      21.6550000000    22.9750000000    29.1700000000
  100      H      22.2760000000    24.5660000000    29.2130000000
  101      H      20.5520000000    24.1980000000    29.8720000000
  102      O      19.9640000000    25.6450000000    27.4890000000
  103      C      34.2920000000    24.0760000000    27.0750000000
  104      H      34.2860000000    24.0970000000    25.9820000000
  105      H      35.1810000000    24.5020000000    27.5470000000
  106      H      34.1760000000    23.0420000000    27.4070000000
  107      S      32.7660000000    24.8890000000    27.6000000000
  108      C      32.7490000000    24.0650000000    29.2070000000
  109      H      33.6240000000    24.2800000000    29.8260000000
  110      H      31.8850000000    24.3320000000    29.8210000000
  111      H      32.6780000000    23.0220000000    28.8880000000
  112      O      31.7270000000    24.1430000000    26.8220000000
  113      C      30.4030000000    25.4800000000    23.7510000000
  114      H      30.2540000000    26.5190000000    23.4440000000
  115      H      29.5000000000    25.2240000000    24.3110000000
  116      H      31.2800000000    25.3370000000    24.3880000000
  117      S      30.5870000000    24.4700000000    22.2640000000
  118      C      32.2490000000    24.9320000000    21.7240000000
  119      H      32.9770000000    24.7710000000    22.5240000000
  120      H      32.5600000000    24.3150000000    20.8770000000
  121      H      32.3560000000    25.9970000000    21.5010000000
  122      O      29.6340000000    25.1660000000    21.3430000000
  123      C      20.3940000000    27.6420000000    21.7410000000
  124      H      21.2900000000    27.1710000000    21.3280000000
  125      H      19.7320000000    26.8520000000    22.1060000000
  126      H      19.8860000000    28.3020000000    21.0340000000
  127      S      20.9850000000    28.6290000000    23.1340000000
  128      C      21.2940000000    27.3160000000    24.3370000000
  129      H      21.9600000000    26.5730000000    23.8910000000
  130      H      21.7660000000    27.7790000000    25.2070000000
  131      H      20.3270000000    26.9160000000    24.6540000000
  132      O      19.7840000000    29.4920000000    23.3640000000
  133      C      29.5810000000    32.1230000000    26.1040000000
  134      H      29.5000000000    32.2160000000    25.0180000000
  135      H      28.9040000000    31.4060000000    26.5750000000
  136      H      29.4800000000    33.0350000000    26.6970000000
  137      S      31.2380000000    31.4770000000    26.4260000000
  138      C      32.1090000000    32.6330000000    25.3450000000
  139      H      32.0830000000    33.6500000000    25.7460000000
  140      H      33.1320000000    32.3780000000    25.0570000000
  141      H      31.5240000000    32.6610000000    24.4220000000
  142      O      31.4450000000    30.1270000000    25.8130000000
  143      C      29.8940000000    29.2260000000    22.1600000000
  144      H      29.5240000000    29.9740000000    22.8660000000
  145      H      30.5240000000    28.6160000000    22.8130000000
  146      H      30.4860000000    29.6240000000    21.3320000000
  147      S      28.5000000000    28.1830000000    21.6740000000
  148      C      27.2860000000    29.4640000000    21.2890000000
  149      H      27.3450000000    30.2480000000    22.0490000000
  150      H      27.4500000000    29.7430000000    20.2450000000
  151      H      26.3190000000    28.9860000000    21.4640000000
  152      O      27.9920000000    27.6990000000    22.9960000000
  153      C      20.2930000000    19.4160000000    25.4220000000
  154      H      21.0950000000    20.1580000000    25.3920000000
  155      H      19.5200000000    19.6620000000    26.1550000000
  156      H      20.7300000000    18.4370000000    25.6360000000
  157      S      19.6840000000    19.5530000000    23.7270000000
  158      C      18.6270000000    18.1100000000    23.9830000000
  159      H      19.0520000000    17.2150000000    24.4430000000
  160      H      17.7950000000    18.5190000000    24.5620000000
  161      H      18.3300000000    17.6950000000    23.0170000000
  162      O      20.8500000000    19.1300000000    22.8890000000
  163      C      26.7250000000    33.5140000000    28.3130000000
  164      H      26.9050000000    32.8090000000    27.4980000000
  165      H      27.3580000000    34.3850000000    28.1250000000
  166      H      26.9380000000    33.1410000000    29.3180000000
  167      S      24.9670000000    33.9040000000    28.4610000000
  168      C      24.4710000000    32.2770000000    29.0710000000
  169      H      25.0590000000    31.5620000000    28.4900000000
  170      H      24.7200000000    32.1590000000    30.1280000000
  171      H      23.4080000000    32.0740000000    28.9140000000
  172      O      24.3430000000    33.8600000000    27.1010000000
  173      C      20.4310000000    22.8720000000    21.4710000000
  174      H      20.5660000000    21.8120000000    21.7040000000
  175      H      19.4860000000    23.0490000000    20.9520000000
  176      H      21.2770000000    23.1790000000    20.8520000000
  177      S      20.4160000000    23.6400000000    23.1060000000
  178      C      21.9400000000    22.9240000000    23.7610000000
  179      H      22.7090000000    23.0950000000    23.0030000000
  180      H      22.1450000000    23.3450000000    24.7490000000
  181      H      21.7780000000    21.8470000000    23.8540000000
  182      O      19.2180000000    22.9820000000    23.7170000000
  183      C      26.0680000000    18.9580000000    31.0790000000
  184      H      27.0010000000    18.5790000000    30.6540000000
  185      H      25.2370000000    18.3380000000    30.7320000000
  186      H      25.7810000000    19.9100000000    30.6250000000
  187      S      26.1530000000    18.9560000000    32.8840000000
  188      C      27.6540000000    19.9610000000    32.9220000000
  189      H      27.8040000000    20.0070000000    34.0040000000
  190      H      28.4710000000    19.5680000000    32.3110000000
  191      H      27.4370000000    20.9270000000    32.4590000000
  192      O      26.6720000000    17.6280000000    33.3390000000
  193      C      20.9040000000    29.2350000000    28.8350000000
  194      H      21.7410000000    29.6140000000    29.4270000000
  195      H      20.0060000000    28.9050000000    29.3630000000
  196      H      21.2600000000    28.4320000000    28.1840000000
  197      S      20.4340000000    30.4450000000    27.5770000000
  198      C      19.2860000000    29.3810000000    26.6750000000
  199      H      18.4320000000    29.2720000000    27.3480000000
  200      H      19.0010000000    29.9890000000    25.8130000000
  201      H      19.7980000000    28.4930000000    26.2950000000
  202      O      21.6220000000    30.5970000000    26.6800000000
  203      C      30.5760000000    32.5040000000    20.4370000000
  204      H      31.3160000000    33.3000000000    20.3220000000
  205      H      30.6020000000    32.2190000000    21.4920000000
  206      H      30.7820000000    31.6450000000    19.7940000000
  207      S      28.9890000000    33.2820000000    20.0580000000
  208      C      28.1840000000    33.4160000000    21.6700000000
  209      H      27.6510000000    34.3690000000    21.6230000000
  210      H      27.5080000000    32.5650000000    21.7880000000
  211      H      28.8940000000    33.5840000000    22.4830000000
  212      O      28.2560000000    32.1290000000    19.4460000000
  213      C      34.1630000000    27.5760000000    25.1150000000
  214      H      34.1600000000    26.5250000000    25.4160000000
  215      H      33.1720000000    28.0320000000    25.1830000000
  216      H      34.6810000000    27.7790000000    24.1750000000
  217      S      35.1260000000    28.3660000000    26.4240000000
  218      C      36.4930000000    27.2250000000    26.1180000000
  219      H      37.0800000000    27.5510000000    25.2560000000
  220      H      37.2210000000    27.2020000000    26.9330000000
  221      H      36.1000000000    26.2220000000    25.9360000000
  222      O      34.3780000000    27.8440000000    27.6110000000
  223      C      24.0830000000    20.2970000000    24.9990000000
  224      H      23.4840000000    21.0900000000    24.5440000000
  225      H      23.5820000000    19.4590000000    25.4920000000
  226      H      24.9840000000    20.5210000000    25.5760000000
  227      S      24.7090000000    19.4860000000    23.5110000000
  228      C      26.1640000000    18.6770000000    24.2130000000
  229      H      25.8180000000    18.1880000000    25.1270000000
  230      H      26.4990000000    18.0070000000    23.4170000000
  231      H      26.9200000000    19.4350000000    24.4340000000
  232      O      25.3280000000    20.5680000000    22.6820000000
  233      C      22.2570000000    18.3860000000    28.2930000000
  234      H      22.2120000000    17.8060000000    29.2180000000
  235      H      21.2780000000    18.7170000000    27.9370000000
  236      H      22.8980000000    17.8650000000    27.5780000000
  237      S      23.0770000000    19.8440000000    28.9780000000
  238      C      22.0770000000    20.0590000000    30.4670000000
  239      H      22.4470000000    19.3850000000    31.2440000000
  240      H      22.3480000000    21.0460000000    30.8490000000
  241      H      20.9940000000    19.9640000000    30.3480000000
  242      O      22.6920000000    21.0050000000    28.1150000000
  243      C      26.1030000000    24.0260000000    22.0980000000
  244      H      26.7840000000    23.4460000000    21.4700000000
  245      H      26.6300000000    24.2390000000    23.0310000000
  246      H      25.2380000000    23.4300000000    22.4000000000
  247      S      25.4080000000    25.4870000000    21.2920000000
  248      C      24.8850000000    26.2850000000    22.8270000000
  249      H      24.1510000000    27.0630000000    22.6050000000
  250      H      24.4820000000    25.6020000000    23.5790000000
  251      H      25.7190000000    26.8610000000    23.2360000000
  252      O      24.0660000000    25.0300000000    20.8110000000
  253      C      28.8200000000    21.1910000000    21.8710000000
  254      H      28.4080000000    22.0600000000    22.3900000000
  255      H      28.0560000000    20.6200000000    21.3380000000
  256      H      29.3220000000    20.5760000000    22.6220000000
  257      S      30.1570000000    21.6340000000    20.7390000000
  258      C      29.2070000000    22.3690000000    19.3890000000
  259      H      29.4730000000    21.9580000000    18.4120000000
  260      H      28.1280000000    22.3190000000    19.5520000000
  261      H      29.5600000000    23.4030000000    19.4270000000
  262      O      30.5180000000    20.2520000000    20.2920000000
  263      C      27.2930000000    17.4720000000    27.7240000000
  264      H      27.5110000000    18.0660000000    26.8330000000
  265      H      26.7140000000    18.0540000000    28.4460000000
  266      H      28.2040000000    17.1770000000    28.2510000000
  267      S      26.1890000000    16.1030000000    27.3070000000
  268      C      27.0960000000    15.6020000000    25.8270000000
  269      H      27.4940000000    16.3940000000    25.1870000000
  270      H      27.9570000000    14.9880000000    26.1020000000
  271      H      26.4450000000    14.9550000000    25.2340000000
  272      O      24.9450000000    16.7450000000    26.7780000000
  273      C      29.0390000000    31.0160000000    30.6340000000
  274      H      30.0490000000    30.6840000000    30.8890000000
  275      H      28.4890000000    30.1850000000    30.1840000000
  276      H      28.9760000000    31.8780000000    29.9650000000
  277      S      28.2320000000    31.6230000000    32.1320000000
  278      C      28.8110000000    30.1920000000    33.0710000000
  279      H      29.6060000000    29.5550000000    32.6730000000
  280      H      28.9780000000    30.5120000000    34.1030000000
  281      H      27.9770000000    29.4860000000    33.0790000000
  282      O      26.7780000000    31.4840000000    31.8040000000
  283      C      28.7920000000    27.0600000000    31.1010000000
  284      H      28.3280000000    27.7840000000    30.4260000000
  285      H      28.2770000000    26.9250000000    32.0560000000
  286      H      29.7910000000    27.4440000000    31.3210000000
  287      S      28.9650000000    25.4370000000    30.3270000000
  288      C      29.5360000000    26.2510000000    28.8180000000
  289      H      29.3420000000    25.6230000000    27.9440000000
  290      H      29.0790000000    27.2310000000    28.6600000000
  291      H      30.6170000000    26.4100000000    28.8250000000
  292      O      27.5410000000    25.0990000000    30.0120000000
 ----------------------------------------------------------------
 Nuclear Repulsion Energy =       47470.45623817 hartrees
 There are      602 alpha and      602 beta electrons
 Requested basis set is 6-31+G(d)
 There are 962 shells and 2681 basis functions

 Total QAlloc Memory Limit  16000 MB
 Mega-Array Size      7821 MB
 MEM_STATIC part      8000 MB
 A cutoff of  1.0D-14 yielded 175387 shell pairs
 There are   1510033 function pairs
 Smallest overlap matrix eigenvalue = 4.68E-07
 Linear dependence detected in AO basis
 Tighter screening thresholds may be required for diffuse basis sets
 Use S2THRESH > 14 and THRESH = 14 in case of SCF convergence issues
 Number of orthogonalized atomic orbitals = 2679
 Maximum deviation from orthogonality = 2.093E-10

 Scale SEOQF with 1.000000e-03/1.000000e-03/1.000000e-03

 Standard Electronic Orientation quadrupole field applied
 Nucleus-field energy     =    -0.0000000537 hartrees
Attempting to make child job directory: /local/scratch/users/ymao/r7.00_frame_0071_almo_B3LYP_dp.in20210311133734//Frg1/
Attempting to make child job directory: /local/scratch/users/ymao/r7.00_frame_0071_almo_B3LYP_dp.in20210311133734//Frg2/
Creating input file /local/scratch/users/ymao/r7.00_frame_0071_almo_B3LYP_dp.in20210311133734/Frg1.input
using default PutDataFrgm: nothing
calling putenv with: QCSCRATCH=/local/scratch/users/ymao/r7.00_frame_0071_almo_B3LYP_dp.in20210311133734/ 
Spawning Job For Fragment 0
Done Job For Fragment 0
calling putenv with: QCSCRATCH=/local/scratch/users/ymao 
calling putenv with: QCTHREADS=8 
Creating input file /local/scratch/users/ymao/r7.00_frame_0071_almo_B3LYP_dp.in20210311133734/Frg2.input
using default PutDataFrgm: nothing
calling putenv with: QCSCRATCH=/local/scratch/users/ymao/r7.00_frame_0071_almo_B3LYP_dp.in20210311133734/ 
Spawning Job For Fragment 1
Done Job For Fragment 1
calling putenv with: QCSCRATCH=/local/scratch/users/ymao 
calling putenv with: QCTHREADS=8 
 Time for running child jobs:  CPU 1.14 s  wall 23905.60 s

 -----------------------------------------------------------------------
  General SCF calculation program by
  Eric Jon Sundstrom, Paul Horn, Yuezhi Mao, Dmitri Zuev, Alec White,
  David Stuck, Shaama M.S., Shane Yost, Joonho Lee, David Small,
  Daniel Levine, Susi Lehtola, Hugh Burton, Evgeny Epifanovsky,
  Bang C. Huynh
 -----------------------------------------------------------------------
Performing Restricted Closed Shell SCFMI
Doing General SCFMI
 Exchange:     0.2000 Hartree-Fock + 0.0800 Slater + 0.7200 B88
 Correlation:  0.1900 VWN1RPA + 0.8100 LYP
 Using Euler-Maclaurin-Lebedev (75,302) quadrature formula
performing fock build before subrot guess so that all methods have access
Printing subrot_rss_gen Method Specification:
Occupied Subspace Method is 0
Virtual Subspace Method is 0
Energy prior to optimization (guess energy) = -15340.738692566680
Begin Timing: Total SCF Calculation
begin iterations for algorithm: DIIS         
the SCF tolerance is set to 1.00e-08
    1  -15340.7386925667      4.19e-05     00000 
    2  -15340.7404068585      5.86e-05     00000 
    3  -15340.7490596941      1.81e-05     00000 
    4  -15340.7498123500      7.03e-06     00000 
    5  -15340.7499664720      2.62e-06     00000 
    6  -15340.7499850350      1.84e-06     00000 
    7  -15340.7499938164      1.10e-06     00000 
    8  -15340.7499970969      6.00e-07     00000 
    9  -15340.7499980630      3.31e-07     00000 
   10  -15340.7499982781      2.45e-07     00000 
   11  -15340.7499983897      1.63e-07     00000 
   12  -15340.7499984545      7.97e-08     00000 
   13  -15340.7499984698      5.16e-08     00000 
   14  -15340.7499984759      3.34e-08     00000 
   15  -15340.7499984784      2.16e-08     00000 
   16  -15340.7499984792      1.01e-08     00000 
   17  -15340.7499984796      5.56e-09     00000 Convergence criterion met
write pseudocanon occs and virts to disk
write pseudocanon orbital energies to disk
Timing for Total SCF: 55011.00s (wall), 428859.34s (cpu)
SCFMI Energy  -15340.7499984796
<S^2>            0.00000
 Total energy in the final basis set =   -15340.7499984796
    ==================================================
        The end of Object-Oriented SCFman: SCFMI      
    ==================================================
 
 --------------------------------------------------------------
 
                    Orbital Energies (a.u.)
 --------------------------------------------------------------
 
 Alpha MOs
 -- Occupied --
-89.0407 -89.0371 -89.0364 -89.0283 -89.0275 -89.0173 -89.0138 -89.0136
-89.0110 -89.0099 -89.0011 -89.0008 -89.0004 -89.0002 -88.9906 -88.9902
-88.9898 -88.9878 -88.9850 -88.9834 -88.9831 -88.9822 -88.9800 -88.9735
-88.9723 -88.9667 -88.9551 -19.1557 -19.1546 -19.1526 -19.1449 -19.1434
-19.1424 -19.1369 -19.1322 -19.1288 -19.1234 -19.1208 -19.1199 -19.1188
-19.1177 -19.1113 -19.1109 -19.1078 -19.1061 -19.1032 -19.1020 -19.1005
-19.0975 -19.0957 -19.0947 -19.0936 -19.0901 -19.0851 -19.0783 -14.3662
-10.2991 -10.2601 -10.2587 -10.2572 -10.2539 -10.2507 -10.2483 -10.2473
-10.2454 -10.2388 -10.2376 -10.2360 -10.2345 -10.2323 -10.2297 -10.2289
-10.2276 -10.2272 -10.2270 -10.2245 -10.2221 -10.2212 -10.2189 -10.2187
-10.2174 -10.2172 -10.2168 -10.2157 -10.2156 -10.2123 -10.2108 -10.2107
-10.2092 -10.2082 -10.2076 -10.2060 -10.2050 -10.2049 -10.2043 -10.2036
-10.2031 -10.2022 -10.2010 -10.1996 -10.1994 -10.1988 -10.1984 -10.1962
-10.1957 -10.1953 -10.1949 -10.1934 -10.1927 -10.1882 -10.1871 -10.1852
-10.1834 -10.1832 -10.1802 -10.1799 -10.1733  -8.0868  -8.0831  -8.0815
 -8.0744  -8.0738  -8.0632  -8.0600  -8.0599  -8.0568  -8.0558  -8.0481
 -8.0469  -8.0464  -8.0464  -8.0366  -8.0365  -8.0354  -8.0337  -8.0312
 -8.0292  -8.0291  -8.0278  -8.0265  -8.0204  -8.0188  -8.0124  -8.0012
 -6.0511  -6.0496  -6.0473  -6.0461  -6.0458  -6.0444  -6.0444  -6.0404
 -6.0394  -6.0390  -6.0380  -6.0375  -6.0366  -6.0316  -6.0315  -6.0275
 -6.0262  -6.0243  -6.0241  -6.0230  -6.0229  -6.0212  -6.0206  -6.0202
 -6.0201  -6.0189  -6.0175  -6.0175  -6.0140  -6.0132  -6.0123  -6.0115
 -6.0113  -6.0109  -6.0109  -6.0100  -6.0094  -6.0093  -6.0052  -6.0041
 -6.0039  -6.0034  -6.0009  -6.0008  -5.9997  -5.9996  -5.9996  -5.9986
 -5.9980  -5.9969  -5.9957  -5.9943  -5.9940  -5.9939  -5.9937  -5.9935
 -5.9930  -5.9924  -5.9923  -5.9920  -5.9911  -5.9910  -5.9910  -5.9895
 -5.9883  -5.9864  -5.9863  -5.9854  -5.9847  -5.9837  -5.9835  -5.9832
 -5.9821  -5.9774  -5.9766  -5.9757  -5.9755  -5.9697  -5.9657  -5.9641
 -5.9582  -1.0661  -1.0648  -1.0571  -1.0561  -1.0551  -1.0526  -1.0425
 -1.0422  -1.0364  -1.0351  -1.0345  -1.0323  -1.0278  -1.0258  -1.0220
 -1.0165  -1.0137  -1.0132  -1.0120  -1.0102  -1.0095  -1.0090  -1.0065
 -1.0031  -1.0012  -0.9998  -0.9916  -0.9861  -0.9309  -0.8462  -0.8435
 -0.8381  -0.8349  -0.8312  -0.8288  -0.8187  -0.8179  -0.8110  -0.8088
 -0.8083  -0.8070  -0.8052  -0.8008  -0.7990  -0.7982  -0.7944  -0.7937
 -0.7927  -0.7889  -0.7887  -0.7870  -0.7867  -0.7834  -0.7822  -0.7770
 -0.7698  -0.7684  -0.7637  -0.7627  -0.7595  -0.7530  -0.7497  -0.7490
 -0.7452  -0.7451  -0.7420  -0.7399  -0.7372  -0.7364  -0.7343  -0.7311
 -0.7310  -0.7276  -0.7204  -0.7199  -0.7187  -0.7183  -0.7172  -0.7143
 -0.7141  -0.7129  -0.7127  -0.7092  -0.7076  -0.6972  -0.6899  -0.6550
 -0.6532  -0.6505  -0.6429  -0.6415  -0.6403  -0.6348  -0.6271  -0.6266
 -0.6263  -0.6215  -0.6208  -0.6181  -0.6125  -0.6114  -0.6085  -0.6058
 -0.6055  -0.6031  -0.6006  -0.5975  -0.5973  -0.5969  -0.5929  -0.5920
 -0.5905  -0.5861  -0.5844  -0.5825  -0.5714  -0.5665  -0.5352  -0.5329
 -0.5249  -0.5201  -0.5170  -0.5115  -0.5110  -0.5088  -0.5055  -0.5007
 -0.4980  -0.4966  -0.4959  -0.4936  -0.4917  -0.4911  -0.4906  -0.4904
 -0.4894  -0.4887  -0.4870  -0.4866  -0.4853  -0.4850  -0.4843  -0.4838
 -0.4827  -0.4820  -0.4810  -0.4794  -0.4790  -0.4788  -0.4776  -0.4768
 -0.4763  -0.4750  -0.4739  -0.4725  -0.4723  -0.4722  -0.4717  -0.4707
 -0.4700  -0.4687  -0.4685  -0.4682  -0.4676  -0.4673  -0.4671  -0.4664
 -0.4658  -0.4654  -0.4644  -0.4642  -0.4635  -0.4629  -0.4626  -0.4624
 -0.4615  -0.4601  -0.4598  -0.4592  -0.4589  -0.4584  -0.4576  -0.4566
 -0.4550  -0.4544  -0.4540  -0.4537  -0.4534  -0.4530  -0.4516  -0.4510
 -0.4507  -0.4498  -0.4494  -0.4493  -0.4482  -0.4476  -0.4471  -0.4469
 -0.4465  -0.4462  -0.4458  -0.4455  -0.4451  -0.4449  -0.4430  -0.4427
 -0.4424  -0.4410  -0.4405  -0.4400  -0.4392  -0.4385  -0.4380  -0.4376
 -0.4375  -0.4369  -0.4359  -0.4351  -0.4348  -0.4321  -0.4317  -0.4313
 -0.4310  -0.4309  -0.4285  -0.4273  -0.4265  -0.4262  -0.4242  -0.4241
 -0.4232  -0.4221  -0.4213  -0.4208  -0.4190  -0.4188  -0.4176  -0.4170
 -0.4156  -0.4149  -0.4147  -0.4136  -0.4132  -0.4122  -0.4113  -0.4099
 -0.4097  -0.4094  -0.4082  -0.4077  -0.4072  -0.4066  -0.4051  -0.4042
 -0.4036  -0.4007  -0.4003  -0.4002  -0.3999  -0.3991  -0.3989  -0.3980
 -0.3976  -0.3972  -0.3965  -0.3961  -0.3953  -0.3948  -0.3939  -0.3932
 -0.3927  -0.3926  -0.3923  -0.3919  -0.3903  -0.3899  -0.3894  -0.3892
 -0.3865  -0.3854  -0.3850  -0.3847  -0.3842  -0.3835  -0.3817  -0.3806
 -0.3796  -0.3774  -0.3752  -0.3751  -0.3746  -0.3735  -0.3728  -0.3727
 -0.3716  -0.3702  -0.3677  -0.3671  -0.3665  -0.3627  -0.3601  -0.3592
 -0.3572  -0.3569  -0.3543  -0.3540  -0.3524  -0.3493  -0.3482  -0.3457
 -0.3444  -0.3436  -0.3422  -0.3411  -0.3375  -0.3315  -0.3249  -0.3230
 -0.3185  -0.3172  -0.3151  -0.3140  -0.3073  -0.3026  -0.3005  -0.2962
 -0.2912  -0.2906  -0.2905  -0.2866  -0.2847  -0.2817  -0.2810  -0.2803
 -0.2778  -0.2761  -0.2751  -0.2737  -0.2709  -0.2693  -0.2682  -0.2680
 -0.2677  -0.2650  -0.2643  -0.2631  -0.2623  -0.2613  -0.2579  -0.2573
 -0.2571  -0.2568  -0.2539  -0.2532  -0.2520  -0.2509  -0.2496  -0.2468
 -0.2438  -0.2436  -0.2406  -0.2391  -0.2374  -0.2351  -0.2283  -0.2275
 -0.2256  -0.2251  -0.2245  -0.2234  -0.2201  -0.2198  -0.2156  -0.2100
 -0.2075  -0.1947
 -- Virtual --
 -0.0492  -0.0447  -0.0398  -0.0379  -0.0358  -0.0350  -0.0278  -0.0265
 -0.0251  -0.0230  -0.0220  -0.0209  -0.0193  -0.0174  -0.0166  -0.0165
 -0.0149  -0.0129  -0.0121  -0.0103  -0.0102  -0.0090  -0.0083  -0.0077
 -0.0064  -0.0055  -0.0032  -0.0027  -0.0015  -0.0008   0.0002   0.0014
  0.0019   0.0027   0.0040   0.0042   0.0055   0.0064   0.0068   0.0072
  0.0078   0.0080   0.0093   0.0100   0.0114   0.0122   0.0129   0.0139
  0.0142   0.0149   0.0152   0.0164   0.0166   0.0180   0.0186   0.0193
  0.0199   0.0204   0.0213   0.0217   0.0221   0.0236   0.0237   0.0245
  0.0247   0.0254   0.0260   0.0268   0.0274   0.0284   0.0286   0.0292
  0.0301   0.0307   0.0310   0.0317   0.0324   0.0328   0.0336   0.0340
  0.0344   0.0351   0.0361   0.0365   0.0376   0.0379   0.0385   0.0390
  0.0396   0.0410   0.0415   0.0421   0.0429   0.0434   0.0439   0.0448
  0.0449   0.0462   0.0465   0.0467   0.0472   0.0477   0.0485   0.0488
  0.0504   0.0506   0.0508   0.0516   0.0522   0.0531   0.0536   0.0545
  0.0547   0.0555   0.0561   0.0563   0.0571   0.0575   0.0587   0.0593
  0.0599   0.0604   0.0619   0.0622   0.0628   0.0632   0.0642   0.0646
  0.0653   0.0659   0.0662   0.0664   0.0667   0.0674   0.0689   0.0699
  0.0703   0.0706   0.0709   0.0722   0.0731   0.0738   0.0741   0.0744
  0.0745   0.0759   0.0763   0.0767   0.0776   0.0786   0.0788   0.0793
  0.0802   0.0808   0.0811   0.0817   0.0828   0.0834   0.0839   0.0843
  0.0844   0.0860   0.0863   0.0869   0.0875   0.0881   0.0886   0.0886
  0.0894   0.0900   0.0906   0.0908   0.0921   0.0926   0.0933   0.0936
  0.0949   0.0956   0.0958   0.0961   0.0964   0.0968   0.0979   0.0986
  0.0989   0.1000   0.1011   0.1015   0.1017   0.1026   0.1027   0.1038
  0.1044   0.1049   0.1051   0.1066   0.1069   0.1075   0.1079   0.1083
  0.1091   0.1099   0.1106   0.1111   0.1116   0.1123   0.1124   0.1137
  0.1145   0.1148   0.1155   0.1163   0.1166   0.1176   0.1181   0.1184
  0.1189   0.1194   0.1201   0.1209   0.1214   0.1217   0.1219   0.1224
  0.1233   0.1242   0.1249   0.1255   0.1259   0.1265   0.1274   0.1278
  0.1284   0.1292   0.1295   0.1295   0.1308   0.1313   0.1315   0.1319
  0.1328   0.1336   0.1340   0.1346   0.1357   0.1358   0.1363   0.1372
  0.1378   0.1385   0.1391   0.1399   0.1402   0.1410   0.1412   0.1423
  0.1429   0.1433   0.1435   0.1444   0.1447   0.1455   0.1460   0.1469
  0.1472   0.1475   0.1480   0.1484   0.1504   0.1506   0.1510   0.1516
  0.1520   0.1531   0.1532   0.1541   0.1545   0.1554   0.1559   0.1562
  0.1570   0.1574   0.1580   0.1589   0.1589   0.1597   0.1607   0.1613
  0.1615   0.1621   0.1633   0.1638   0.1647   0.1655   0.1658   0.1666
  0.1666   0.1676   0.1686   0.1688   0.1693   0.1698   0.1700   0.1706
  0.1713   0.1719   0.1723   0.1734   0.1738   0.1743   0.1744   0.1752
  0.1756   0.1763   0.1766   0.1771   0.1775   0.1787   0.1789   0.1799
  0.1804   0.1805   0.1816   0.1823   0.1827   0.1829   0.1849   0.1851
  0.1854   0.1862   0.1867   0.1873   0.1879   0.1885   0.1891   0.1902
  0.1907   0.1910   0.1916   0.1923   0.1928   0.1936   0.1940   0.1947
  0.1952   0.1956   0.1959   0.1968   0.1972   0.1976   0.1984   0.1988
  0.1995   0.2000   0.2011   0.2016   0.2020   0.2024   0.2031   0.2045
  0.2046   0.2049   0.2058   0.2062   0.2072   0.2078   0.2084   0.2085
  0.2095   0.2098   0.2109   0.2118   0.2122   0.2127   0.2133   0.2134
  0.2143   0.2145   0.2150   0.2156   0.2160   0.2166   0.2169   0.2183
  0.2192   0.2195   0.2204   0.2206   0.2215   0.2230   0.2236   0.2244
  0.2248   0.2255   0.2263   0.2271   0.2277   0.2285   0.2287   0.2295
  0.2304   0.2310   0.2310   0.2321   0.2328   0.2333   0.2335   0.2342
  0.2349   0.2352   0.2361   0.2368   0.2373   0.2382   0.2385   0.2394
  0.2397   0.2402   0.2408   0.2414   0.2430   0.2433   0.2434   0.2440
  0.2449   0.2458   0.2465   0.2466   0.2476   0.2484   0.2494   0.2498
  0.2502   0.2510   0.2518   0.2522   0.2527   0.2538   0.2547   0.2555
  0.2562   0.2565   0.2573   0.2579   0.2584   0.2600   0.2604   0.2613
  0.2619   0.2622   0.2631   0.2634   0.2645   0.2647   0.2661   0.2664
  0.2669   0.2672   0.2677   0.2682   0.2694   0.2705   0.2711   0.2716
  0.2719   0.2726   0.2728   0.2735   0.2737   0.2743   0.2749   0.2754
  0.2763   0.2770   0.2782   0.2796   0.2806   0.2818   0.2826   0.2837
  0.2843   0.2847   0.2856   0.2864   0.2867   0.2871   0.2886   0.2900
  0.2909   0.2913   0.2914   0.2924   0.2942   0.2950   0.2951   0.2957
  0.2962   0.2967   0.2985   0.2986   0.2997   0.3006   0.3008   0.3022
  0.3031   0.3042   0.3047   0.3053   0.3067   0.3083   0.3084   0.3087
  0.3095   0.3108   0.3114   0.3121   0.3130   0.3139   0.3145   0.3157
  0.3169   0.3175   0.3183   0.3191   0.3196   0.3205   0.3218   0.3221
  0.3238   0.3252   0.3257   0.3260   0.3264   0.3279   0.3285   0.3294
  0.3299   0.3304   0.3316   0.3321   0.3337   0.3351   0.3361   0.3371
  0.3377   0.3383   0.3388   0.3394   0.3401   0.3416   0.3421   0.3433
  0.3437   0.3439   0.3450   0.3456   0.3475   0.3486   0.3492   0.3498
  0.3500   0.3509   0.3513   0.3528   0.3541   0.3547   0.3557   0.3560
  0.3581   0.3586   0.3588   0.3601   0.3607   0.3616   0.3617   0.3636
  0.3638   0.3644   0.3654   0.3664   0.3673   0.3678   0.3685   0.3689
  0.3696   0.3701   0.3705   0.3720   0.3734   0.3737   0.3742   0.3748
  0.3757   0.3767   0.3778   0.3779   0.3788   0.3796   0.3808   0.3810
  0.3825   0.3839   0.3844   0.3861   0.3864   0.3873   0.3883   0.3891
  0.3911   0.3914   0.3927   0.3929   0.3934   0.3940   0.3957   0.3966
  0.3974   0.3986   0.3992   0.3998   0.4002   0.4020   0.4035   0.4040
  0.4047   0.4056   0.4066   0.4070   0.4081   0.4092   0.4103   0.4106
  0.4124   0.4127   0.4133   0.4154   0.4162   0.4169   0.4189   0.4193
  0.4210   0.4213   0.4224   0.4227   0.4239   0.4254   0.4256   0.4274
  0.4276   0.4283   0.4301   0.4317   0.4326   0.4335   0.4346   0.4362
  0.4375   0.4390   0.4406   0.4412   0.4424   0.4430   0.4449   0.4455
  0.4464   0.4483   0.4489   0.4491   0.4497   0.4530   0.4537   0.4543
  0.4565   0.4572   0.4595   0.4598   0.4608   0.4619   0.4625   0.4649
  0.4657   0.4679   0.4687   0.4700   0.4707   0.4734   0.4745   0.4747
  0.4754   0.4758   0.4763   0.4785   0.4791   0.4805   0.4816   0.4837
  0.4868   0.4875   0.4896   0.4904   0.4915   0.4924   0.4939   0.4950
  0.4960   0.4977   0.4992   0.5001   0.5018   0.5028   0.5042   0.5057
  0.5082   0.5089   0.5111   0.5120   0.5133   0.5147   0.5177   0.5189
  0.5203   0.5216   0.5237   0.5242   0.5266   0.5277   0.5281   0.5296
  0.5304   0.5315   0.5343   0.5356   0.5370   0.5376   0.5398   0.5411
  0.5417   0.5442   0.5458   0.5465   0.5470   0.5488   0.5500   0.5515
  0.5524   0.5536   0.5566   0.5588   0.5604   0.5612   0.5624   0.5655
  0.5673   0.5678   0.5692   0.5717   0.5728   0.5743   0.5765   0.5766
  0.5783   0.5794   0.5807   0.5819   0.5830   0.5845   0.5856   0.5890
  0.5900   0.5912   0.5919   0.5938   0.5952   0.5962   0.5985   0.5999
  0.6009   0.6022   0.6035   0.6043   0.6053   0.6068   0.6087   0.6094
  0.6099   0.6115   0.6125   0.6143   0.6153   0.6159   0.6167   0.6185
  0.6201   0.6208   0.6226   0.6228   0.6238   0.6252   0.6266   0.6271
  0.6286   0.6301   0.6306   0.6316   0.6337   0.6348   0.6361   0.6368
  0.6386   0.6394   0.6408   0.6415   0.6426   0.6429   0.6436   0.6449
  0.6461   0.6473   0.6497   0.6503   0.6516   0.6527   0.6534   0.6547
  0.6552   0.6559   0.6578   0.6582   0.6593   0.6598   0.6615   0.6629
  0.6639   0.6643   0.6655   0.6667   0.6679   0.6685   0.6709   0.6718
  0.6723   0.6734   0.6745   0.6752   0.6763   0.6773   0.6782   0.6789
  0.6800   0.6821   0.6825   0.6845   0.6864   0.6874   0.6882   0.6900
  0.6918   0.6925   0.6942   0.6960   0.6972   0.6976   0.6984   0.6996
  0.7014   0.7022   0.7030   0.7037   0.7051   0.7080   0.7088   0.7102
  0.7111   0.7133   0.7144   0.7159   0.7163   0.7186   0.7200   0.7206
  0.7217   0.7230   0.7245   0.7257   0.7264   0.7294   0.7308   0.7313
  0.7335   0.7339   0.7356   0.7369   0.7373   0.7391   0.7408   0.7431
  0.7444   0.7459   0.7468   0.7492   0.7498   0.7502   0.7513   0.7542
  0.7555   0.7561   0.7578   0.7593   0.7597   0.7617   0.7623   0.7636
  0.7649   0.7667   0.7686   0.7687   0.7694   0.7709   0.7740   0.7754
  0.7784   0.7789   0.7800   0.7809   0.7825   0.7831   0.7852   0.7864
  0.7876   0.7891   0.7909   0.7909   0.7920   0.7931   0.7944   0.7979
  0.7986   0.7992   0.8017   0.8022   0.8040   0.8046   0.8067   0.8079
  0.8088   0.8118   0.8124   0.8152   0.8153   0.8176   0.8190   0.8203
  0.8229   0.8235   0.8239   0.8247   0.8262   0.8268   0.8284   0.8298
  0.8314   0.8325   0.8333   0.8351   0.8365   0.8371   0.8379   0.8390
  0.8400   0.8422   0.8450   0.8453   0.8461   0.8481   0.8492   0.8519
  0.8532   0.8542   0.8560   0.8563   0.8565   0.8578   0.8598   0.8614
  0.8633   0.8636   0.8648   0.8664   0.8676   0.8690   0.8717   0.8725
  0.8736   0.8746   0.8751   0.8764   0.8779   0.8799   0.8828   0.8830
  0.8837   0.8852   0.8855   0.8873   0.8874   0.8891   0.8896   0.8911
  0.8928   0.8949   0.8951   0.8968   0.8970   0.8991   0.9000   0.9014
  0.9019   0.9020   0.9050   0.9057   0.9071   0.9076   0.9084   0.9104
  0.9107   0.9115   0.9137   0.9145   0.9154   0.9169   0.9183   0.9199
  0.9201   0.9207   0.9219   0.9243   0.9254   0.9263   0.9270   0.9279
  0.9293   0.9310   0.9325   0.9334   0.9338   0.9350   0.9366   0.9372
  0.9382   0.9388   0.9407   0.9408   0.9418   0.9428   0.9451   0.9453
  0.9457   0.9468   0.9477   0.9495   0.9510   0.9519   0.9551   0.9557
  0.9559   0.9574   0.9588   0.9597   0.9626   0.9628   0.9653   0.9656
  0.9662   0.9670   0.9679   0.9682   0.9692   0.9713   0.9721   0.9730
  0.9751   0.9760   0.9775   0.9785   0.9791   0.9807   0.9813   0.9835
  0.9845   0.9857   0.9867   0.9878   0.9892   0.9905   0.9910   0.9920
  0.9939   0.9943   0.9957   0.9971   0.9987   0.9997   0.9999   1.0015
  1.0025   1.0037   1.0051   1.0058   1.0066   1.0078   1.0102   1.0114
  1.0133   1.0140   1.0150   1.0155   1.0168   1.0185   1.0191   1.0195
  1.0213   1.0225   1.0233   1.0239   1.0258   1.0274   1.0279   1.0293
  1.0302   1.0312   1.0318   1.0351   1.0362   1.0367   1.0382   1.0390
  1.0407   1.0417   1.0434   1.0452   1.0455   1.0466   1.0483   1.0508
  1.0521   1.0526   1.0536   1.0557   1.0570   1.0580   1.0587   1.0605
  1.0616   1.0619   1.0648   1.0659   1.0667   1.0672   1.0682   1.0701
  1.0710   1.0729   1.0735   1.0753   1.0774   1.0787   1.0791   1.0800
  1.0805   1.0806   1.0815   1.0849   1.0866   1.0867   1.0880   1.0901
  1.0906   1.0919   1.0939   1.0952   1.0962   1.0983   1.1001   1.1024
  1.1035   1.1045   1.1054   1.1057   1.1074   1.1089   1.1101   1.1115
  1.1129   1.1147   1.1161   1.1168   1.1184   1.1185   1.1203   1.1224
  1.1235   1.1252   1.1255   1.1268   1.1293   1.1300   1.1326   1.1336
  1.1349   1.1355   1.1359   1.1371   1.1376   1.1406   1.1419   1.1430
  1.1432   1.1438   1.1461   1.1471   1.1486   1.1506   1.1522   1.1529
  1.1543   1.1558   1.1581   1.1587   1.1599   1.1606   1.1616   1.1631
  1.1638   1.1658   1.1676   1.1689   1.1692   1.1703   1.1710   1.1713
  1.1717   1.1752   1.1772   1.1789   1.1790   1.1804   1.1828   1.1830
  1.1859   1.1862   1.1882   1.1889   1.1914   1.1920   1.1933   1.1945
  1.1972   1.1988   1.2009   1.2031   1.2046   1.2056   1.2080   1.2092
  1.2113   1.2140   1.2172   1.2177   1.2201   1.2222   1.2225   1.2241
  1.2276   1.2283   1.2328   1.2337   1.2356   1.2371   1.2380   1.2395
  1.2412   1.2446   1.2460   1.2471   1.2487   1.2500   1.2530   1.2555
  1.2564   1.2606   1.2634   1.2641   1.2654   1.2669   1.2700   1.2726
  1.2766   1.2767   1.2796   1.2810   1.2816   1.2848   1.2871   1.2901
  1.2919   1.2929   1.2942   1.2973   1.2983   1.3001   1.3012   1.3030
  1.3057   1.3101   1.3122   1.3130   1.3158   1.3173   1.3204   1.3219
  1.3228   1.3240   1.3269   1.3296   1.3300   1.3322   1.3327   1.3355
  1.3378   1.3387   1.3390   1.3418   1.3432   1.3442   1.3451   1.3480
  1.3514   1.3525   1.3545   1.3557   1.3566   1.3571   1.3592   1.3603
  1.3617   1.3629   1.3652   1.3665   1.3686   1.3701   1.3710   1.3719
  1.3731   1.3738   1.3760   1.3778   1.3789   1.3816   1.3834   1.3857
  1.3868   1.3879   1.3891   1.3910   1.3919   1.3946   1.3969   1.3990
  1.3998   1.4005   1.4043   1.4048   1.4056   1.4078   1.4090   1.4106
  1.4119   1.4126   1.4142   1.4158   1.4167   1.4198   1.4205   1.4219
  1.4233   1.4244   1.4252   1.4271   1.4299   1.4311   1.4321   1.4331
  1.4339   1.4366   1.4376   1.4392   1.4408   1.4429   1.4441   1.4455
  1.4480   1.4486   1.4498   1.4507   1.4542   1.4551   1.4573   1.4594
  1.4600   1.4615   1.4631   1.4650   1.4667   1.4671   1.4690   1.4711
  1.4735   1.4756   1.4782   1.4793   1.4809   1.4837   1.4850   1.4867
  1.4886   1.4902   1.4915   1.4939   1.4968   1.5019   1.5035   1.5047
  1.5074   1.5080   1.5099   1.5111   1.5128   1.5150   1.5173   1.5203
  1.5217   1.5231   1.5262   1.5276   1.5301   1.5334   1.5354   1.5375
  1.5404   1.5427   1.5442   1.5462   1.5506   1.5529   1.5554   1.5567
  1.5590   1.5623   1.5629   1.5676   1.5711   1.5738   1.5762   1.5801
  1.5811   1.5846   1.5900   1.5930   1.6009   1.6060   1.6108   1.6150
  1.6172   1.6244   1.6263   1.6276   1.6331   1.6363   1.6408   1.6442
  1.6473   1.6504   1.6589   1.6606   1.6635   1.6637   1.6651   1.6673
  1.6681   1.6692   1.6717   1.6733   1.6754   1.6759   1.6771   1.6778
  1.6784   1.6800   1.6828   1.6833   1.6844   1.6856   1.6865   1.6871
  1.6878   1.6884   1.6899   1.6910   1.6927   1.6944   1.6964   1.6981
  1.7000   1.7012   1.7023   1.7033   1.7043   1.7049   1.7053   1.7074
  1.7081   1.7091   1.7103   1.7112   1.7121   1.7140   1.7150   1.7169
  1.7181   1.7190   1.7194   1.7199   1.7212   1.7232   1.7249   1.7253
  1.7271   1.7279   1.7292   1.7301   1.7314   1.7316   1.7324   1.7339
  1.7354   1.7363   1.7381   1.7397   1.7409   1.7433   1.7452   1.7459
  1.7476   1.7500   1.7506   1.7513   1.7535   1.7542   1.7549   1.7566
  1.7575   1.7614   1.7623   1.7626   1.7638   1.7646   1.7668   1.7687
  1.7711   1.7724   1.7730   1.7753   1.7759   1.7768   1.7801   1.7825
  1.7828   1.7867   1.7882   1.7889   1.7897   1.7910   1.7965   1.7989
  1.8002   1.8036   1.8062   1.8090   1.8133   1.8136   1.8145   1.8169
  1.8206   1.8225   1.8276   1.8300   1.8319   1.8331   1.8368   1.8374
  1.8402   1.8423   1.8471   1.8480   1.8494   1.8510   1.8527   1.8541
  1.8580   1.8612   1.8633   1.8638   1.8662   1.8684   1.8706   1.8717
  1.8748   1.8771   1.8781   1.8791   1.8797   1.8812   1.8821   1.8864
  1.8867   1.8876   1.8891   1.8913   1.8919   1.8926   1.8939   1.8958
  1.8960   1.8972   1.8981   1.8989   1.8997   1.9009   1.9028   1.9036
  1.9053   1.9063   1.9069   1.9079   1.9090   1.9132   1.9137   1.9144
  1.9158   1.9171   1.9185   1.9189   1.9201   1.9224   1.9241   1.9243
  1.9271   1.9282   1.9302   1.9320   1.9343   1.9349   1.9375   1.9381
  1.9398   1.9435   1.9441   1.9450   1.9488   1.9509   1.9539   1.9546
  1.9592   1.9619   1.9637   1.9648   1.9701   1.9757   1.9808   1.9824
  1.9932   2.0030   2.0037   2.0149   2.0225   2.0287   2.0310   2.0340
  2.0345   2.0386   2.0445   2.0446   2.0484   2.0505   2.0541   2.0558
  2.0562   2.0568   2.0596   2.0623   2.0645   2.0662   2.0677   2.0705
  2.0713   2.0730   2.0763   2.0767   2.0781   2.0782   2.0796   2.0832
  2.0849   2.0855   2.0866   2.0871   2.0880   2.0897   2.0904   2.0916
  2.0937   2.0952   2.0955   2.0985   2.0990   2.1008   2.1024   2.1039
  2.1049   2.1054   2.1060   2.1125   2.1151   2.1179   2.1201   2.1218
  2.1233   2.1246   2.1272   2.1304   2.1324   2.1335   2.1362   2.1373
  2.1403   2.1422   2.1445   2.1528   2.1561   2.1606   2.1656   2.1739
  2.1790   2.1804   2.1836   2.1883   2.1918   2.1925   2.1926   2.1948
  2.1961   2.1970   2.1994   2.2017   2.2026   2.2029   2.2041   2.2057
  2.2083   2.2090   2.2132   2.2142   2.2158   2.2175   2.2199   2.2214
  2.2240   2.2269   2.2271   2.2299   2.2309   2.2320   2.2329   2.2354
  2.2367   2.2372   2.2379   2.2393   2.2405   2.2417   2.2437   2.2441
  2.2450   2.2472   2.2475   2.2480   2.2496   2.2502   2.2530   2.2540
  2.2549   2.2557   2.2565   2.2569   2.2581   2.2587   2.2593   2.2597
  2.2607   2.2615   2.2633   2.2637   2.2641   2.2651   2.2658   2.2664
  2.2671   2.2689   2.2700   2.2702   2.2716   2.2719   2.2728   2.2739
  2.2742   2.2757   2.2760   2.2787   2.2787   2.2823   2.2825   2.2835
  2.2851   2.2865   2.2866   2.2871   2.2883   2.2903   2.2907   2.2917
  2.2922   2.2929   2.2945   2.2951   2.2956   2.2965   2.2984   2.2991
  2.2998   2.3002   2.3010   2.3022   2.3029   2.3032   2.3043   2.3052
  2.3074   2.3081   2.3096   2.3106   2.3114   2.3129   2.3134   2.3154
  2.3178   2.3181   2.3203   2.3212   2.3216   2.3251   2.3255   2.3264
  2.3278   2.3295   2.3300   2.3306   2.3315   2.3328   2.3345   2.3352
  2.3366   2.3377   2.3390   2.3396   2.3406   2.3418   2.3422   2.3442
  2.3452   2.3456   2.3463   2.3471   2.3491   2.3529   2.3537   2.3542
  2.3573   2.3589   2.3608   2.3616   2.3650   2.3660   2.3698   2.3730
  2.3748   2.3750   2.3824   2.3842   2.3902   2.3921   2.3975   2.4024
  2.4035   2.4101   2.4214   2.4252   2.4328   2.4693   2.5002   2.5170
  2.5375   2.5865   2.6730   2.7275   2.7438   2.7635   2.8026   2.8125
  2.8184   2.8220   2.8289   2.8316   2.8330   2.8335   2.8345   2.8364
  2.8417   2.8457   2.8478   2.8496   2.8533   2.8591   2.8610   2.8625
  2.8631   2.8644   2.8668   2.8678   2.8711   2.8722   2.8741   2.8767
  2.8796   2.8819   2.8880   2.8948   2.8956   2.9423   3.0855   3.2343
  3.9359   3.9444   3.9521   3.9544   3.9574   3.9622   3.9643   3.9677
  3.9713   3.9751   3.9779   3.9783   3.9831   3.9840   3.9909   3.9937
  3.9964   4.0002   4.0053   4.0076   4.0092   4.0111   4.0151   4.0172
  4.0207   4.0314   4.0421   4.1933   4.2112   4.2133   4.2159   4.2196
  4.2242   4.2421   4.2446   4.2458   4.2480   4.2503   4.2544   4.2593
  4.2604   4.2630   4.2688   4.2703   4.2719   4.2750   4.2757   4.2776
  4.2785   4.2813   4.2831   4.2864   4.2877   4.2896   4.2914   4.2928
  4.2948   4.2986   4.3009   4.3029   4.3044   4.3065   4.3104   4.3127
  4.3163   4.3187   4.3192   4.3220   4.3253   4.3278   4.3295   4.3333
  4.3357   4.3390   4.3409   4.3456   4.3461   4.3490   4.3509   4.3544
  4.3570   4.3636   4.3649   4.3693   4.3720   4.3753   4.3790   4.3846
  4.3860   4.3921   4.3957   4.3980   4.3992   4.4032   4.4051   4.4117
  4.4213   4.4305   4.4340   4.4379   4.4454   4.4531   4.4646   4.4763
  4.4859   4.4944   4.5015   4.5146   4.5285   4.5400   4.5703   4.5802
  4.6153   4.6997   4.7339   4.7614   4.8867
 --------------------------------------------------------------
 
          Ground-State Mulliken Net Atomic Charges

     Atom                 Charge (a.u.)
  ----------------------------------------
      1 C                    -0.233407
      2 C                    -0.578941
      3 C                    -0.216766
      4 C                    -0.465145
      5 C                    -0.414252
      6 C                    -0.508432
      7 H                     0.220851
      8 H                     0.227704
      9 H                     0.188962
     10 H                     0.193707
     11 H                     0.211034
     12 H                     0.206038
     13 H                     0.236055
     14 H                     0.187723
     15 H                     0.232858
     16 H                     0.202218
     17 H                     0.188499
     18 N                    -0.352060
     19 H                     0.482135
     20 C                     0.337514
     21 H                     0.180155
     22 O                    -0.526452
     23 C                    -0.750663
     24 H                     0.298891
     25 H                     0.241190
     26 H                     0.234120
     27 S                     0.554010
     28 C                    -0.595561
     29 H                     0.252746
     30 H                     0.222669
     31 H                     0.293604
     32 O                    -0.662571
     33 C                    -1.083355
     34 H                     0.304703
     35 H                     0.244588
     36 H                     0.255802
     37 S                     1.078818
     38 C                    -0.815814
     39 H                     0.201835
     40 H                     0.274612
     41 H                     0.253364
     42 O                    -0.710351
     43 C                    -0.869697
     44 H                     0.257811
     45 H                     0.289907
     46 H                     0.251669
     47 S                     0.646226
     48 C                    -0.740442
     49 H                     0.239037
     50 H                     0.285335
     51 H                     0.254465
     52 O                    -0.606275
     53 C                    -0.853006
     54 H                     0.262285
     55 H                     0.249330
     56 H                     0.235225
     57 S                     1.026626
     58 C                    -0.864221
     59 H                     0.246009
     60 H                     0.244220
     61 H                     0.261140
     62 O                    -0.741527
     63 C                    -0.810804
     64 H                     0.246893
     65 H                     0.252015
     66 H                     0.249765
     67 S                     0.847796
     68 C                    -0.814880
     69 H                     0.239803
     70 H                     0.294929
     71 H                     0.253538
     72 O                    -0.688974
     73 C                    -0.996515
     74 H                     0.294294
     75 H                     0.274518
     76 H                     0.266157
     77 S                     1.267677
     78 C                    -1.038991
     79 H                     0.279370
     80 H                     0.260673
     81 H                     0.236793
     82 O                    -0.810437
     83 C                    -1.058292
     84 H                     0.263636
     85 H                     0.286477
     86 H                     0.264027
     87 S                     0.744314
     88 C                    -0.741514
     89 H                     0.257375
     90 H                     0.248692
     91 H                     0.246329
     92 O                    -0.604873
     93 C                    -0.760365
     94 H                     0.232678
     95 H                     0.306492
     96 H                     0.282600
     97 S                     0.736074
     98 C                    -0.954958
     99 H                     0.278470
    100 H                     0.269545
    101 H                     0.249414
    102 O                    -0.633048
    103 C                    -0.896871
    104 H                     0.250420
    105 H                     0.253181
    106 H                     0.239290
    107 S                     0.819162
    108 C                    -0.799034
    109 H                     0.252016
    110 H                     0.264868
    111 H                     0.241698
    112 O                    -0.630413
    113 C                    -0.853093
    114 H                     0.251785
    115 H                     0.282946
    116 H                     0.240910
    117 S                     0.753111
    118 C                    -0.875283
    119 H                     0.229796
    120 H                     0.259089
    121 H                     0.253937
    122 O                    -0.638842
    123 C                    -0.956620
    124 H                     0.247668
    125 H                     0.249870
    126 H                     0.260509
    127 S                     0.778237
    128 C                    -0.824047
    129 H                     0.244348
    130 H                     0.277512
    131 H                     0.285832
    132 O                    -0.629895
    133 C                    -0.675015
    134 H                     0.238976
    135 H                     0.305885
    136 H                     0.258136
    137 S                     0.522010
    138 C                    -0.770513
    139 H                     0.250884
    140 H                     0.258704
    141 H                     0.228203
    142 O                    -0.610650
    143 C                    -0.964287
    144 H                     0.254574
    145 H                     0.256113
    146 H                     0.235471
    147 S                     1.104435
    148 C                    -0.798003
    149 H                     0.260194
    150 H                     0.281728
    151 H                     0.255638
    152 O                    -0.790726
    153 C                    -0.850107
    154 H                     0.252422
    155 H                     0.238706
    156 H                     0.257483
    157 S                     0.961999
    158 C                    -0.945119
    159 H                     0.245469
    160 H                     0.229995
    161 H                     0.249209
    162 O                    -0.691243
    163 C                    -0.751723
    164 H                     0.250056
    165 H                     0.237001
    166 H                     0.238864
    167 S                     0.672320
    168 C                    -0.768976
    169 H                     0.231960
    170 H                     0.270124
    171 H                     0.276508
    172 O                    -0.679525
    173 C                    -0.886674
    174 H                     0.273547
    175 H                     0.255319
    176 H                     0.269196
    177 S                     0.662296
    178 C                    -0.791572
    179 H                     0.275670
    180 H                     0.276373
    181 H                     0.239171
    182 O                    -0.602525
    183 C                    -0.840843
    184 H                     0.266155
    185 H                     0.224508
    186 H                     0.259756
    187 S                     0.902109
    188 C                    -0.802782
    189 H                     0.227233
    190 H                     0.270226
    191 H                     0.220231
    192 O                    -0.714868
    193 C                    -0.653160
    194 H                     0.232400
    195 H                     0.232908
    196 H                     0.260034
    197 S                     0.656940
    198 C                    -0.790750
    199 H                     0.225776
    200 H                     0.304897
    201 H                     0.261432
    202 O                    -0.752280
    203 C                    -0.932165
    204 H                     0.232441
    205 H                     0.231800
    206 H                     0.270964
    207 S                     1.011025
    208 C                    -0.815789
    209 H                     0.252831
    210 H                     0.313688
    211 H                     0.209429
    212 O                    -0.776296
    213 C                    -0.739651
    214 H                     0.212994
    215 H                     0.304587
    216 H                     0.228250
    217 S                     0.908689
    218 C                    -0.863375
    219 H                     0.246844
    220 H                     0.257834
    221 H                     0.222801
    222 O                    -0.783273
    223 C                    -0.771175
    224 H                     0.238639
    225 H                     0.258015
    226 H                     0.258001
    227 S                     0.678222
    228 C                    -0.804871
    229 H                     0.260540
    230 H                     0.232929
    231 H                     0.289722
    232 O                    -0.693693
    233 C                    -0.858330
    234 H                     0.229182
    235 H                     0.248672
    236 H                     0.318204
    237 S                     0.907449
    238 C                    -0.914537
    239 H                     0.269970
    240 H                     0.278239
    241 H                     0.249421
    242 O                    -0.649306
    243 C                    -0.809583
    244 H                     0.250197
    245 H                     0.236515
    246 H                     0.292856
    247 S                     0.895703
    248 C                    -1.051165
    249 H                     0.258172
    250 H                     0.247028
    251 H                     0.288775
    252 O                    -0.706338
    253 C                    -0.954592
    254 H                     0.236739
    255 H                     0.289344
    256 H                     0.260536
    257 S                     1.206490
    258 C                    -0.943562
    259 H                     0.262977
    260 H                     0.253429
    261 H                     0.271335
    262 O                    -0.774711
    263 C                    -0.764578
    264 H                     0.283116
    265 H                     0.281281
    266 H                     0.242462
    267 S                     0.808005
    268 C                    -0.837288
    269 H                     0.251538
    270 H                     0.235536
    271 H                     0.261265
    272 O                    -0.718220
    273 C                    -0.795906
    274 H                     0.298179
    275 H                     0.273177
    276 H                     0.226114
    277 S                     0.902748
    278 C                    -0.846660
    279 H                     0.263120
    280 H                     0.247844
    281 H                     0.261229
    282 O                    -0.732039
    283 C                    -0.838626
    284 H                     0.268464
    285 H                     0.273376
    286 H                     0.249718
    287 S                     0.911141
    288 C                    -1.143448
    289 H                     0.299523
    290 H                     0.293744
    291 H                     0.250781
    292 O                    -0.738102
  ----------------------------------------
  Sum of atomic charges =     0.000000

 -----------------------------------------------------------------
                    Cartesian Multipole Moments
 -----------------------------------------------------------------
    Charge (ESU x 10^10)
                 0.0000
    Dipole Moment (Debye)
         X      35.0752      Y      -3.7657      Z       0.1849
       Tot      35.2772
    Quadrupole Moments (Debye-Ang)
        XX    1022.8780     XY     878.5470     YY   -1160.7689
        XZ     930.2902     YZ     -65.5147     ZZ   -1107.6946
    Octopole Moments (Debye-Ang^2)
       XXX    9492.1212    XXY   27519.4238    XYY   -2767.8424
       YYY  -81449.1064    XXZ   26464.6056    XYZ   23956.4545
       YYZ  -29796.4056    XZZ   -4337.2105    YZZ  -28660.4641
       ZZZ  -89109.5742
    Hexadecapole Moments (Debye-Ang^3)
      XXXX -788219.0097   XXXY  317838.3517   XXYY   70631.1682
      XYYY ************   YYYY ************   XXXZ  205481.7612
      XXYZ  723783.8061   XYYZ  -58401.6048   YYYZ ************
      XXZZ -102751.4472   XYZZ  -69768.0024   YYZZ ************
      XZZZ ************   YZZZ ************   ZZZZ ************
 -----------------------------------------------------------------
Archival summary:
[...]
    2   0.0004649   0.0046288  -0.0195343   0.0353410   0.0113354   0.0056991
    3  -0.0066898  -0.0317223  -0.0050644   0.0064854   0.0583506  -0.0088957
          139         140         141         142         143         144
    1   0.0025710   0.0290825  -0.0115842   0.0164769   0.0017669  -0.0138653
    2   0.0299932  -0.0150290   0.0011260  -0.1015466   0.0022505   0.0234328
    3   0.0138439   0.0002096  -0.0336573  -0.0444741   0.0076358   0.0175120
          145         146         147         148         149         150
    1   0.0174707   0.0124490   0.0088208  -0.0055605  -0.0010702  -0.0037089
    2  -0.0204184   0.0120828  -0.0340394   0.0060345   0.0253521   0.0239997
    3   0.0162643  -0.0232939  -0.0478220   0.0003042   0.0169750  -0.0267896
          151         152         153         154         155         156
    1  -0.0284453  -0.0415434   0.0059007   0.0248512  -0.0197736   0.0127287
    2  -0.0140686  -0.0410554   0.0009302   0.0201351   0.0119187  -0.0282616
    3  -0.0002802   0.1091883   0.0047384   0.0182766   0.0221317  -0.0015019
          157         158         159         160         161         162
    1  -0.0324988  -0.0032624   0.0228546  -0.0331689  -0.0181217   0.0849665
    2   0.0469792  -0.0067119  -0.0187149   0.0008773  -0.0020804  -0.0296286
    3  -0.0076103  -0.0018485   0.0226363   0.0139068  -0.0317152  -0.0640247
          163         164         165         166         167         168
    1   0.0037411  -0.0007206   0.0106431   0.0168316  -0.0131300  -0.0034635
    2   0.0003003  -0.0198675   0.0333414  -0.0158013   0.0436926  -0.0079107
    3  -0.0012781  -0.0222005  -0.0052876   0.0274953   0.0354500   0.0045099
          169         170         171         172         173         174
    1   0.0056326   0.0078404  -0.0308703  -0.0501129   0.0030969  -0.0019809
    2  -0.0228785  -0.0042932   0.0040245  -0.0013350  -0.0078089  -0.0353088
    3  -0.0131245   0.0344136  -0.0116032  -0.1006811  -0.0077970  -0.0036608
          175         176         177         178         179         180
    1  -0.0274690   0.0262488   0.0056034   0.0056768   0.0300655   0.0107799
    2   0.0049117   0.0129541   0.0614832  -0.0058089   0.0064103   0.0141039
    3  -0.0102817  -0.0192692  -0.0043589   0.0013828  -0.0167144   0.0265206
          181         182         183         184         185         186
    1  -0.0047068  -0.0900903   0.0020609   0.0287423  -0.0215061   0.0015875
    2  -0.0305010  -0.0455039  -0.0004035  -0.0053856  -0.0275785   0.0342543
    3   0.0003428   0.0426028  -0.0103155  -0.0106680  -0.0039988  -0.0036321
          187         188         189         190         191         192
    1  -0.0459651   0.0045748   0.0208163   0.0211682  -0.0084160   0.0360047
    2   0.0293214   0.0032981   0.0082995  -0.0229508   0.0309915  -0.0969132
    3   0.0251948  -0.0023258   0.0276336  -0.0125454  -0.0055323   0.0367601
          193         194         195         196         197         198
    1   0.0017411   0.0169717  -0.0204094   0.0125246  -0.0322891  -0.0040861
    2  -0.0081944   0.0101045  -0.0110821  -0.0352018   0.0446102  -0.0032766
    3  -0.0013546   0.0215194   0.0209226  -0.0074236   0.0223255  -0.0084749
          199         200         201         202         203         204
    1  -0.0308103  -0.0110540   0.0053052   0.0840151   0.0048710   0.0298953
    2  -0.0177434   0.0103233  -0.0304612   0.0159949  -0.0022054   0.0175735
    3   0.0111873  -0.0316168  -0.0038889  -0.0668744   0.0023876  -0.0081795
          205         206         207         208         209         210
    1   0.0007487  -0.0020547   0.0046921  -0.0075781  -0.0293464  -0.0216105
    2  -0.0162007  -0.0204242   0.0480589  -0.0021861   0.0211548  -0.0212678
    3   0.0284583  -0.0229560  -0.0259417   0.0061781   0.0017911   0.0069317
          211         212         213         214         215         216
    1   0.0186902  -0.0551632  -0.0070413  -0.0099525  -0.0317523   0.0056324
    2  -0.0035590  -0.0846582  -0.0014183  -0.0283223   0.0103403  -0.0000699
    3   0.0293171  -0.0468087  -0.0039409  -0.0002061  -0.0051068  -0.0359338
          217         218         219         220         221         222
    1   0.0112895   0.0065513   0.0155306   0.0160862  -0.0058400  -0.0556835
    2   0.0518715  -0.0060840   0.0088680  -0.0007310  -0.0299708  -0.0358532
    3  -0.0125511  -0.0002957  -0.0301080   0.0288446  -0.0026583   0.0859165
          223         224         225         226         227         228
    1   0.0006285  -0.0152380  -0.0264995   0.0173980  -0.0380406   0.0035888
    2   0.0010579   0.0268179  -0.0108591   0.0260873  -0.0389071   0.0003187
    3   0.0034505   0.0073980   0.0227117   0.0220380  -0.0193075   0.0057422
          229         230         231         232         233         234
    1  -0.0052352   0.0139964   0.0233991   0.0441324  -0.0022714  -0.0138934
    2  -0.0247058  -0.0223021   0.0216877   0.0782225  -0.0059702  -0.0355833
    3   0.0250077  -0.0164743   0.0031459  -0.0630190  -0.0036122   0.0180198
          235         236         237         238         239         240
    1  -0.0274080   0.0188721   0.0557722  -0.0025909   0.0082671   0.0055472
    2   0.0039160  -0.0148357  -0.0131553   0.0026986  -0.0199407   0.0274960
    3  -0.0118953  -0.0226927   0.0143370   0.0091703   0.0256475   0.0134712
          241         242         243         244         245         246
    1  -0.0303938  -0.0242821  -0.0000657   0.0130576   0.0204836  -0.0223340
    2  -0.0013814   0.0856825  -0.0093490  -0.0137081   0.0162020  -0.0248138
    3  -0.0081452  -0.0638206   0.0069798  -0.0205118   0.0287982   0.0008084
          247         248         249         250         251         252
    1   0.0366467   0.0049850  -0.0234783  -0.0093762   0.0394958  -0.0973019
    2   0.0311340   0.0070893   0.0164856  -0.0235893   0.0136592  -0.0317655
    3  -0.0270165   0.0099631  -0.0118924   0.0198586   0.0212606  -0.0368668
          253         254         255         256         257         258
    1  -0.0076329  -0.0192658  -0.0236448   0.0075925   0.0347095  -0.0040642
    2  -0.0016486   0.0233939  -0.0158462  -0.0202410   0.0353555   0.0066343
    3   0.0055527   0.0153194  -0.0115040   0.0233463   0.0212339  -0.0057802
          259         260         261         262         263         264
    1   0.0100069  -0.0310561  -0.0045156   0.0275341   0.0026142   0.0086751
    2  -0.0196512  -0.0008415   0.0382398  -0.1009478   0.0116117   0.0213576
    3  -0.0231473   0.0025473  -0.0044917  -0.0334488   0.0018914  -0.0222019
          265         266         267         268         269         270
    1  -0.0102865   0.0250633   0.0032802   0.0039241   0.0005169   0.0258212
    2   0.0254512  -0.0106573  -0.0409447  -0.0019194   0.0265295  -0.0207880
    3   0.0179434   0.0151065   0.0405361  -0.0090390  -0.0139201   0.0106830
          271         272         273         274         275         276
    1  -0.0216281  -0.0929208   0.0093369   0.0371098  -0.0194587   0.0102318
    2  -0.0159861   0.0435296  -0.0007272   0.0027838  -0.0168887   0.0218885
    3  -0.0180059  -0.0377619  -0.0014730   0.0049932  -0.0033881  -0.0253345
          277         278         279         280         281         282
    1   0.0283056   0.0004000   0.0357267   0.0108178  -0.0322119  -0.1066092
    2   0.0494772  -0.0089074  -0.0009959   0.0038591  -0.0161850  -0.0040246
    3   0.0181761   0.0082709  -0.0087026   0.0309509   0.0079124  -0.0208854
          283         284         285         286         287         288
    1  -0.0007073  -0.0206318  -0.0199966   0.0309524   0.0349020   0.0017035
    2   0.0037882   0.0082102  -0.0012840   0.0115437  -0.0312277  -0.0009361
    3   0.0068425  -0.0097908   0.0254692   0.0132658   0.0211731  -0.0122137
          289         290         291         292
    1  -0.0098838  -0.0160468   0.0345671  -0.1056201
    2  -0.0249995   0.0139622   0.0037057  -0.0301650
    3  -0.0274089  -0.0094711  -0.0017811  -0.0253675
  --- DONE ESP SUMMARY ---
Archival summary:
1\1\n0081.mhg0\SP\ProcedureUnspecified\6-31+G*\272754h22\ymao\FriMar1213:27:242021FriMar1213:27:242021\0\\#,ProcedureUnspecified,6-31+G*,\\0,1\S\O,1,1.49708\C,1,1.80641,2,101.649\H,3,1.09264,1,108.329,2,-176.406,0\H,3,1.0932,1,111.784,2,-59.6855,0\H,3,1.09338,1,107.964,2,67.6421,0\C,1,1.80713,2,103.094,3,-91.7472,0\H,7,1.09265,1,111.888,2,-170.27,0\H,7,1.0928,1,113.112,2,69.4362,0\H,7,1.09357,1,110.649,2,-53.1623,0\Gh,10,2.06369,7,155.807,1,72.766,0\Gh,11,1.09699,10,129.097,7,7.82806,0\Gh,12,1.09701,11,103.278,10,144.748,0\Gh,12,1.53672,11,110.739,10,-100.729,0\Gh,14,1.0966,12,107.766,11,52.3027,0\Gh,14,1.09681,12,115.368,11,-65.4144,0\Gh,12,1.53748,11,106.019,10,29.0006,0\Gh,17,1.09687,12,100.679,11,-59.8182,0\Gh,17,1.46223,12,110.431,11,63.2941,0\Gh,19,1.01286,17,117.065,12,50.206,0\Gh,19,1.37799,17,125.911,12,-151.915,0\Gh,21,1.10504,19,109.681,17,173.731,0\Gh,21,1.21893,19,122.927,17,-1.63332,0\Gh,17,1.53715,12,110.562,11,-173.21,0\Gh,24,1.09683,17,109.9,12,160.674,0\Gh,24,1.09695,17,111.092,12,-71.3007,0\Gh,24,1.5374,17,111.453,12,46.7367,0\Gh,27,1.09633,24,108.423,17,60.9363,0\Gh,27,1.09729,24,113.101,17,175.032,0\Gh,27,1.53741,24,115.003,17,-54.4302,0\Gh,30,1.09624,27,100.701,24,176.342,0\Gh,30,1.09737,27,111.238,24,-65.3993,0\O,20,2.01236,19,151.007,17,176.081,0\S,33,1.49666,20,173.31,19,37.1011,0\C,34,1.80637,33,100.922,20,-119.47,0\H,35,1.09279,34,104.5,33,-48.4354,0\H,35,1.09301,34,106.484,33,-168.739,0\H,35,1.0935,34,108.908,33,62.7627,0\C,34,1.80756,33,102.173,20,-17.054,0\H,39,1.09291,34,115.098,33,174.656,0\H,39,1.09309,34,107.907,33,-55.3439,0\H,39,1.09335,34,106.441,33,52.3972,0\H,18,2.16338,17,125.209,12,-138.538,0\C,43,1.09345,18,158.251,17,-67.1459,0\H,44,1.09265,43,117.695,18,81.0073,0\H,44,1.09367,43,107.529,18,-50.2781,0\S,44,1.80618,43,106.897,18,-156.117,0\O,47,1.49784,44,108.29,43,-76.6967,0\C,47,1.8068,44,96.0816,43,178.246,0\H,49,1.09236,47,112.618,44,-169.567,0\H,49,1.09303,47,103.754,44,67.1017,0\H,49,1.09312,47,108.47,44,-53.3892,0\H,42,2.20646,39,129.089,34,0.912172,0\C,53,1.0936,42,165.138,39,146.909,0\H,54,1.09295,53,104.703,42,155.041,0\H,54,1.09332,53,113.398,42,35.7462,0\S,54,1.80697,53,108.294,42,-85.2945,0\O,57,1.49695,54,100.463,53,-35.7033,0\C,57,1.80756,54,101.339,53,73.5809,0\H,59,1.09308,57,110.415,54,173.823,0\H,59,1.09334,57,113.571,54,-60.2992,0\H,59,1.09357,57,110.85,54,55.2778,0\H,26,2.23821,24,151.111,17,74.636,0\C,63,1.09289,26,103.905,24,-141.038,0\H,64,1.09239,63,109.704,26,-84.9954,0\H,64,1.09298,63,110.685,26,27.1861,0\S,64,1.80736,63,114.53,26,151.22,0\O,67,1.49706,64,98.5262,63,66.2878,0\C,67,1.80753,64,95.1308,63,-38.6841,0\H,69,1.09251,67,114.123,64,-38.8085,0\H,69,1.09295,67,114.349,64,-162.571,0\H,69,1.093,67,105.05,64,75.1728,0\H,4,2.24307,3,142.884,1,27.7936,0\C,73,1.09364,4,147.946,3,170.226,0\H,74,1.09302,73,109.755,4,67.0326,0\H,74,1.09323,73,104.437,4,-175.82,0\S,74,1.80655,73,110.552,4,-57.0769,0\O,77,1.49737,74,107.51,73,66.7787,0\C,77,1.80702,74,94.2111,73,-34.0223,0\H,79,1.09236,77,106.237,74,51.8192,0\H,79,1.09299,77,109.314,74,-75.4908,0\H,79,1.09344,77,105.903,74,166.349,0\H,78,2.26954,77,113.294,74,-98.3506,0\C,83,1.09332,78,174.207,77,-119.268,0\H,84,1.09297,83,115.817,78,44.2921,0\H,84,1.09342,83,109.262,78,167.238,0\S,84,1.80657,83,108.741,78,-70.446,0\O,87,1.497,84,102.767,83,-156.843,0\C,87,1.80685,84,91.242,83,-45.4063,0\H,89,1.09273,87,105.719,84,-97.4061,0\H,89,1.0933,87,107.92,84,147.935,0\H,89,1.09371,87,120.337,84,15.0979,0\H,71,2.32482,69,121.617,67,156.374,0\C,93,1.09282,71,123.332,69,154.412,0\H,94,1.09262,93,112.558,71,-41.1794,0\H,94,1.09281,93,107.117,71,-163.759,0\S,94,1.807,93,112.427,71,83.5436,0\O,97,1.49668,94,98.0009,93,176.787,0\C,97,1.80699,94,100.297,93,-75.0231,0\H,99,1.09239,97,112.905,94,-2.97345,0\H,99,1.0928,97,112.767,94,-129.641,0\H,99,1.09326,97,100.894,94,115.452,0\H,38,2.33734,35,129.559,34,130.485,0\C,103,1.09321,38,145.776,35,-88.6603,0\H,104,1.09238,103,116.187,38,-60.2805,0\H,104,1.09294,103,112.449,38,-177.814,0\S,104,1.8068,103,108.305,38,67.7123,0\O,107,1.49708,104,101.753,103,7.20884,0\C,107,1.80762,104,103.652,103,-96.916,0\H,109,1.0926,107,112.366,104,129.993,0\H,109,1.0929,107,105.006,104,-107.384,0\H,109,1.09313,107,109.6,104,6.07252,0\H,28,2.38642,27,150.89,24,-134.6,0\C,113,1.09225,28,120.703,27,-36.1758,0\H,114,1.09326,113,114.876,28,98.2864,0\H,114,1.09378,113,111.996,28,-23.4942,0\S,114,1.8067,113,105.839,28,-140.784,0\O,117,1.49724,114,104.156,113,-158.06,0\C,117,1.80691,114,96.6419,113,-46.8175,0\H,119,1.09279,117,107.797,114,-51.7371,0\H,119,1.09338,117,105.371,114,69.756,0\H,119,1.09341,117,106.046,114,-170.838,0\H,120,2.23475,119,129.349,117,-66.3239,0\C,123,1.09298,120,161.304,119,-45.326,0\H,124,1.09328,123,103.258,120,-139.489,0\H,124,1.09332,123,114.16,120,-10.4356,0\S,124,1.80678,123,108.528,120,99.027,0\O,127,1.49665,124,101.483,123,171.339,0\C,127,1.807,124,93.4095,123,61.4497,0\H,129,1.09305,127,110.356,124,55.5992,0\H,129,1.09306,127,115.353,124,-71.7129,0\H,129,1.09333,127,110.619,124,176.546,0\H,130,2.28763,129,110.351,127,164.93,0\C,133,1.09327,130,133.879,129,-164.863,0\H,134,1.09281,133,110.777,130,-125.494,0\H,134,1.09301,133,105.466,130,-4.19398,0\S,134,1.80745,133,103.42,130,116.448,0\O,137,1.49651,134,105.329,133,58.042,0\C,137,1.80667,134,95.3012,133,164.442,0\H,139,1.09268,137,110.196,134,81.0335,0\H,139,1.09273,137,108.039,134,-163.748,0\H,139,1.09328,137,117.479,134,-39.8066,0\H,136,2.21681,134,115.901,133,-96.1608,0\C,143,1.09259,136,158.848,134,117.319,0\H,144,1.09252,143,113.464,136,-164.542,0\H,144,1.09343,143,111.011,136,67.9054,0\S,144,1.80677,143,107.027,136,-45.7583,0\O,147,1.49732,144,102.277,143,14.0847,0\C,147,1.80759,144,95.5282,143,-86.8195,0\H,149,1.09265,147,111.911,144,36.0482,0\H,149,1.0927,147,106.22,144,-84.663,0\H,149,1.09305,147,112.551,144,155.143,0\H,116,2.35718,114,131.989,113,-27.4097,0\C,153,1.09296,116,106.869,114,-156.332,0\H,154,1.09201,153,102.871,116,-12.977,0\H,154,1.09293,153,118.852,116,108.847,0\S,154,1.80757,153,103.531,116,-126.112,0\O,157,1.49694,154,108.407,153,-88.1791,0\C,157,1.80723,154,95.4536,153,154.521,0\H,159,1.09304,157,107.097,154,44.883,0\H,159,1.09328,157,107.598,154,166.722,0\H,159,1.09329,157,105.678,154,-75.2019,0\H,138,2.36012,137,101.659,134,52.0342,0\C,163,1.09281,138,167.364,137,97.3011,0\H,164,1.09304,163,115.584,138,-28.5262,0\H,164,1.09313,163,111.11,138,-156.337,0\S,164,1.80674,163,105.686,138,85.61,0\O,167,1.49704,164,101.877,163,156.171,0\C,167,1.80658,164,99.2088,163,47.5868,0\H,169,1.09301,167,99.946,164,157.816,0\H,169,1.09312,167,103.954,164,31.6261,0\H,169,1.09375,167,100.721,164,-79.3592,0\H,170,1.98987,169,152.899,167,93.6407,0\C,173,1.09308,170,106.097,169,164.712,0\H,174,1.09324,173,108.503,170,64.5778,0\H,174,1.09335,173,109.287,170,-62.4683,0\S,174,1.80673,173,107.235,170,178.968,0\O,177,1.49716,174,110.661,173,39.367,0\C,177,1.80645,174,98.7799,173,-65.8698,0\H,179,1.0923,177,113.569,174,-63.9704,0\H,179,1.09257,177,110.725,174,170.624,0\H,179,1.09367,177,102.724,174,51.5788,0\H,173,2.38425,170,75.6658,169,23.394,0\C,183,1.09301,173,135.138,170,-141.759,0\H,184,1.09325,183,108.662,173,128.86,0\H,184,1.09331,183,112.609,173,-108.176,0\S,184,1.80629,183,99.7962,173,10.6854,0\O,187,1.49691,184,103.962,183,62.8669,0\C,187,1.80694,184,90.2124,183,171.508,0\H,189,1.09236,187,119.103,184,-47.5008,0\H,189,1.09252,187,109.7,184,-161.216,0\H,189,1.09304,187,102.797,184,77.3904,0\H,185,2.38187,184,100.125,183,72.6354,0\C,193,1.09304,185,119.02,184,-134.903,0\H,194,1.0925,193,117.179,185,-5.03581,0\H,194,1.09273,193,113.55,185,-133.527,0\S,194,1.80759,193,106.588,185,120.615,0\O,197,1.49697,194,106.884,193,-36.6369,0\C,197,1.80647,194,99.0465,193,70.9909,0\H,199,1.09249,197,104.976,194,-167.985,0\H,199,1.09312,197,108.974,194,82.2744,0\H,199,1.09365,197,116.625,194,-44.3793,0\H,156,2.41572,154,109.183,153,24.7324,0\C,203,1.09292,156,108.845,154,170.777,0\H,204,1.09238,203,106.409,156,-123.173,0\H,204,1.09357,203,110.399,156,-6.16641,0\S,204,1.80668,203,105.174,156,120.988,0\O,207,1.49651,204,102.88,203,178.647,0\C,207,1.80678,204,94.7489,203,-78.3652,0\H,209,1.09305,207,112.674,204,170.237,0\H,209,1.09306,207,118.002,204,51.1318,0\H,209,1.09368,207,104.416,204,-76.1842,0\H,205,2.18584,204,136.308,203,3.36112,0\C,213,1.09274,205,136.023,204,-34.2398,0\H,214,1.09301,213,118.184,205,-50.4754,0\H,214,1.09332,213,109.481,205,75.2613,0\S,214,1.80764,213,108.95,205,-177.098,0\O,217,1.49635,214,106.186,213,-166.24,0\C,217,1.80654,214,96.8031,213,-58.0268,0\H,219,1.09267,217,103.41,214,-174.746,0\H,219,1.09276,217,104.351,214,70.473,0\H,219,1.0932,217,110.754,214,-59.9065,0\H,222,2.33659,219,153.947,217,-134.126,0\C,223,1.09342,222,99.0288,219,100.203,0\H,224,1.09273,223,107.829,222,32.2215,0\H,224,1.09294,223,114.112,222,155.345,0\S,224,1.80739,223,107.91,222,-83.2895,0\O,227,1.49669,224,116.987,223,36.3617,0\C,227,1.80663,224,99.9191,223,-70.129,0\H,229,1.09248,227,108.726,224,163.355,0\H,229,1.09326,227,104.984,224,-75.0061,0\H,229,1.09342,227,109.596,224,40.9102,0\H,218,2.37328,217,147.851,214,-15.8715,0\C,233,1.0936,218,145.9,217,-151.928,0\H,234,1.09261,233,111.797,218,116.402,0\H,234,1.09296,233,110.31,218,-121.795,0\S,234,1.807,233,109.346,218,-5.36478,0\O,237,1.49713,234,106.218,233,-162.782,0\C,237,1.8078,234,95.8678,233,-59.195,0\H,239,1.09241,237,116.978,234,175.779,0\H,239,1.09273,237,103.743,234,-57.8562,0\H,239,1.09327,237,101.716,234,63.8926,0\H,235,2.0995,234,120.87,233,-24.2263,0\C,243,1.09295,235,145.628,234,-59.0886,0\H,244,1.09233,243,108.729,235,-172.492,0\H,244,1.09354,243,108.978,235,67.7223,0\S,244,1.807,243,105.183,235,-53.3241,0\O,247,1.49697,244,99.5441,243,70.2667,0\C,247,1.80681,244,95.7608,243,-40.0991,0\H,249,1.09254,247,111.143,244,69.8172,0\H,249,1.09294,247,100.834,244,-53.3685,0\H,249,1.09301,247,113.927,244,-169.364,0\H,143,2.49474,136,103.043,134,-103.243,0\C,253,1.09322,143,139.167,136,95.2659,0\H,254,1.09237,253,105.789,143,-149.948,0\H,254,1.09301,253,106.433,143,80.9234,0\S,254,1.80738,253,103.907,143,-37.3799,0\O,257,1.49777,254,102.47,253,54.9868,0\C,257,1.80631,254,89.8538,253,158.572,0\H,259,1.09316,257,111.178,254,58.1544,0\H,259,1.09335,257,116.499,254,-175.662,0\H,259,1.09337,257,105.123,254,-57.2927,0\O,151,2.52399,149,158.203,147,-138.19,0\S,263,1.4971,151,127.828,149,112.757,0\C,264,1.80602,263,103.21,151,-4.53806,0\H,265,1.093,264,100.154,263,41.9651,0\H,265,1.09306,264,113.317,263,-75.3975,0\H,265,1.09317,264,113.99,263,163.969,0\C,264,1.80701,263,102.176,151,92.0627,0\H,269,1.09217,264,104.356,263,-62.3279,0\H,269,1.09297,264,112.71,263,179.651,0\H,269,1.09322,264,106.093,263,52.4601,0\H,272,2.49628,269,104.22,264,58.8015,0\C,273,1.09326,272,175.82,269,133.592,0\H,274,1.09231,273,114.639,272,15.5218,0\H,274,1.093,273,112.424,272,147.778,0\S,274,1.80692,273,102.845,272,-100.021,0\O,277,1.49698,274,98.9557,273,-52.2579,0\C,277,1.80671,274,90.2541,273,54.9867,0\H,279,1.09251,277,109.623,274,-40.59,0\H,279,1.09265,277,110.59,274,80.3876,0\H,279,1.09304,277,113.013,274,-163.873,0\H,250,2.61081,249,137.445,247,-171.744,0\C,283,1.09282,250,105.91,249,-71.9313,0\H,284,1.09252,283,104.862,250,32.7725,0\H,284,1.09298,283,115.986,250,-98.5617,0\S,284,1.80739,283,104.872,250,144.925,0\O,287,1.49704,284,112.094,283,61.5911,0\C,287,1.80653,284,96.1252,283,170.957,0\H,289,1.09293,287,117.366,284,-163.245,0\H,289,1.09313,287,105.285,284,-44.9878,0\H,289,1.09351,287,111.36,284,69.2716,0\\\@

 Total job time:  84.51s(wall), 263.27s(cpu) 
 Fri Mar 12 13:27:24 2021

        *************************************************************
        *                                                           *
        *  Thank you very much for using Q-Chem.  Have a nice day.  *
        *                                                           *
        *************************************************************


