                  Welcome to Q-Chem
     A Quantum Leap Into The Future Of Chemistry


 Q-Chem 5.2 (devel), Q-Chem, Inc., Pleasanton, CA (2019)

 Yihan Shao,  Zhengting Gan,  E. Epifanovsky,  A. T. B. Gilbert,  M. Wormit,  
 J. Kussmann,  A. W. Lange,  A. Behn,  Jia Deng,  Xintian Feng,  D. Ghosh,  
 M. Goldey,  P. R. Horn,  L. D. Jacobson,  I. Kaliman,  T. Kus,  A. Landau,  
 Jie Liu,  E. I. Proynov,  R. M. Richard,  R. P. Steele,  E. J. Sundstrom,  
 H. L. Woodcock III,  P. M. Zimmerman,  D. Zuev,  B. Alam,  B. Albrecht,  
 E. Alguire,  S. A. Baeppler,  D. Barton,  Z. Benda,  Y. A. Bernard,  
 E. J. Berquist,  K. B. Bravaya,  H. Burton,  K. Carter-Fenk,  D. Casanova,  
 Chun-Min Chang,  Yunqing Chen,  A. Chien,  K. D. Closser,  M. P. Coons,  
 S. Coriani,  S. Dasgupta,  A. L. Dempwolff,  M. Diedenhofen,  Hainam Do,  
 R. G. Edgar,  Po-Tung Fang,  S. Faraji,  S. Fatehi,  Qingguo Feng,  
 J. Fosso-Tande,  J. Gayvert,  Qinghui Ge,  A. Ghysels,  G. Gidofalvi,  
 J. Gomes,  J. Gonthier,  A. Gunina,  D. Hait,  M. W. D. Hanson-Heine,  
 P. H. P. Harbach,  A. W. Hauser,  M. F. Herbst,  J. E. Herr,  
 E. G. Hohenstein,  Z. C. Holden,  Kerwin Hui,  B. C. Huynh,  T.-C. Jagau,  
 Hyunjun Ji,  B. Kaduk,  K. Khistyaev,  Jaehoon Kim,  P. Klunzinger,  K. Koh,  
 D. Kosenkov,  L. Koulias,  T. Kowalczyk,  C. M. Krauter,  A. Kunitsa,  
 Ka Un Lao,  A. Laurent,  K. V. Lawler,  Joonho Lee,  D. Lefrancois,  
 S. Lehtola,  D. S. Levine,  Yi-Pei Li,  You-Sheng Lin,  Fenglai Liu,  
 Kuan-Yu Liu,  E. Livshits,  M. Loipersberger,  A. Luenser,  P. Manohar,  
 E. Mansoor,  S. F. Manzer,  Shan-Ping Mao,  Yuezhi Mao,  N. Mardirossian,  
 A. V. Marenich,  T. Markovich,  L. A. Martinez-Martinez,  S. A. Maurer,  
 N. J. Mayhall,  S. C. McKenzie,  J.-M. Mewes,  P. Morgante,  A. F. Morrison,  
 J. W. Mullinax,  K. Nanda,  T. S. Nguyen-Beck,  R. Olivares-Amaya,  
 J. A. Parkhill,  S. K. Paul,  F. Pavosevic,  Zheng Pei,  T. M. Perrine,  
 F. Plasser,  P. Pokhilko,  S. Prager,  A. Prociuk,  E. Ramos,  B. Rana,  
 D. R. Rehn,  F. Rob,  M. Scheurer,  M. Schneider,  N. Sergueev,  
 S. M. Sharada,  S. Sharma,  D. W. Small,  T. Stauch,  C. J. Stein,  
 T. Stein,  Yu-Chuan Su,  S. P. Veccham,  Zhen Tao,  A. J. W. Thom,  
 A. Tkatchenko,  T. Tsuchimochi,  N. M. Tubman,  L. Vogt,  M. L. Vidal,  
 O. Vydrov,  M. A. Watson,  J. Wenzel,  M. de Wergifosse,  T. A. Wesolowski,  
 A. White,  J. Witte,  A. Yamada,  Jun Yang,  K. Yao,  S. Yeganeh,  
 S. R. Yost,  Zhi-Qiang You,  A. Zech,  Igor Ying Zhang,  Xing Zhang,  
 Yan Zhao,  Ying Zhu,  B. R. Brooks,  G. K. L. Chan,  C. J. Cramer,  
 M. S. Gordon,  W. J. Hehre,  A. Klamt,  M. W. Schmidt,  C. D. Sherrill,  
 D. G. Truhlar,  A. Aspuru-Guzik,  R. Baer,  A. T. Bell,  N. A. Besley,  
 Jeng-Da Chai,  A. E. DePrince, III,  R. A. DiStasio Jr.,  A. Dreuw,  
 B. D. Dunietz,  T. R. Furlani,  Chao-Ping Hsu,  Yousung Jung,  Jing Kong,  
 D. S. Lambrecht,  WanZhen Liang,  C. Ochsenfeld,  V. A. Rassolov,  
 L. V. Slipchenko,  J. E. Subotnik,  T. Van Voorhis,  J. M. Herbert,  
 A. I. Krylov,  P. M. W. Gill,  M. Head-Gordon

 Contributors to earlier versions of Q-Chem not listed above: 
 R. D. Adamson,  B. Austin,  J. Baker,  G. J. O. Beran,  K. Brandhorst,  
 S. T. Brown,  E. F. C. Byrd,  A. K. Chakraborty,  C.-L. Cheng,  
 Siu Hung Chien,  D. M. Chipman,  D. L. Crittenden,  H. Dachsel,  
 R. J. Doerksen,  A. D. Dutoi,  L. Fusti-Molnar,  W. A. Goddard III,  
 A. Golubeva-Zadorozhnaya,  S. R. Gwaltney,  G. Hawkins,  A. Heyden,  
 S. Hirata,  G. Kedziora,  F. J. Keil,  C. Kelley,  Jihan Kim,  R. A. King,  
 R. Z. Khaliullin,  P. P. Korambath,  W. Kurlancheek,  A. M. Lee,  M. S. Lee,  
 S. V. Levchenko,  Ching Yeh Lin,  D. Liotard,  R. C. Lochan,  I. Lotan,  
 P. E. Maslen,  N. Nair,  D. P. O'Neill,  D. Neuhauser,  E. Neuscamman,  
 C. M. Oana,  R. Olson,  B. Peters,  R. Peverati,  P. A. Pieniazek,  
 Y. M. Rhee,  J. Ritchie,  M. A. Rohrdanz,  E. Rosta,  N. J. Russ,  
 H. F. Schaefer III,  N. E. Schultz,  N. Shenvi,  A. C. Simmonett,  A. Sodt,  
 D. Stuck,  K. S. Thanthiriwatte,  V. Vanovschi,  Tao Wang,  A. Warshel,  
 C. F. Williams,  Q. Wu,  X. Xu,  W. Zhang

 Please cite Q-Chem as follows:
 Y. Shao et al., Mol. Phys. 113, 184-215 (2015)
 DOI: 10.1080/00268976.2014.952696

 Q-Chem 5.2.2 for Intel X86 EM64T Linux

 Parts of Q-Chem use Armadillo 9.800.1 (Horizon Scraper).
 http://arma.sourceforge.net/

 Q-Chem begins on Thu Mar 11 13:37:30 2021  

Host: n0064.mhg0
0

     Scratch files written to /local/scratch/users/ymao/r7.00_frame_0011_almo_B3LYP_dp.in20210311133728//

Checking the input file for inconsistencies... 	...done.

--------------------------------------------------------------
User input:
--------------------------------------------------------------
$molecule
0 1
--
0 1
C    23.26400   17.75400   31.11500  
C    24.02100   16.43400   30.89500  
C    24.75500   16.42100   29.54400  
C    25.66000   17.64200   29.31100  
C    24.89200   18.96200   29.48700  
C    24.15900   18.97400   30.83800  
H    25.32900   15.50500   29.72800  
H    24.76900   16.32900   31.68900  
H    22.40700   17.81700   30.43300  
H    22.91900   17.58200   32.14200  
H    26.55700   17.49300   29.92400  
H    26.03600   17.58700   28.28200  
H    25.62200   19.78000   29.42800  
H    24.17300   19.09200   28.66900  
H    24.87400   19.09400   31.66100  
H    23.62500   19.92600   30.93800  
H    24.01800   16.19400   28.76400  
N    23.04400   15.34800   30.95300  
H    22.07800   15.45700   30.66900  
C    23.31300   14.08700   31.44100  
H    22.43600   13.41500   31.41500  
O    24.37400   13.99200   32.03300  
--
0 1
C    24.62900   22.89300   29.14800  
H    25.37500   22.56700   28.41900  
H    24.60600   22.14100   29.94100  
H    23.64800   22.99300   28.67600  
S    25.07600   24.47400   29.90000  
C    25.31200   25.30800   28.31500  
H    24.41800   25.30900   27.68600  
H    25.63600   26.30500   28.62400  
H    26.12700   24.88800   27.72000  
O    26.41400   24.36100   30.56300  
C    21.02600   19.58900   28.64400  
H    21.53800   20.32300   28.01600  
H    21.08000   19.87700   29.69700  
H    21.55000   18.63700   28.53500  
S    19.30800   19.40100   28.11700  
C    18.70400   18.33200   29.44300  
H    19.11900   17.34300   29.23400  
H    19.13600   18.73500   30.36300  
H    17.61600   18.33900   29.33500  
O    19.42500   18.52900   26.90600  
C    28.62700   14.97500   29.94100  
H    28.54700   16.04000   30.17100  
H    29.61500   14.50900   29.88700  
H    28.27800   14.80000   28.92000  
S    27.46100   14.08600   30.99700  
C    28.73800   13.69900   32.21500  
H    29.55700   13.16500   31.72600  
H    29.17200   14.68000   32.42300  
H    28.24600   13.30600   33.10800  
O    27.41700   12.74100   30.34200  
C    25.14300   10.51600   30.15500  
H    25.07200   11.45300   30.71500  
H    25.09600   9.57300    30.70600  
H    26.03600   10.61100   29.53300  
S    23.76300   10.48400   28.98900  
C    24.30400   11.85400   27.94200  
H    24.32100   12.73500   28.58700  
H    25.33800   11.65200   27.65100  
H    23.62400   12.07000   27.11400  
O    22.72300   11.24000   29.75600  
C    30.52200   19.11300   27.05600  
H    30.47700   20.15900   26.74000  
H    31.52100   18.84200   27.40800  
H    30.32100   18.51700   26.16300  
S    29.29300   18.67300   28.30500  
C    30.46800   18.26100   29.61600  
H    31.14600   19.03900   29.97500  
H    29.88400   17.90700   30.46900  
H    30.93100   17.36000   29.20500  
O    28.75000   17.37000   27.80500  
C    24.40100   20.18100   35.40200  
H    24.59100   19.10700   35.46300  
H    23.32600   20.28900   35.56800  
H    24.74000   20.55200   34.43100  
S    25.26800   21.17100   36.64000  
C    26.76800   20.16400   36.68000  
H    26.88700   19.63100   37.62700  
H    26.64600   19.37700   35.93200  
H    27.65000   20.78100   36.48900  
O    24.65700   20.89000   37.97700  
C    22.11800   8.54300    31.75600  
H    22.06200   7.49800    31.44200  
H    22.21100   9.20000    30.88800  
H    22.87200   8.76300    32.51600  
S    20.64200   8.77000    32.77500  
C    21.00600   10.53000   32.96600  
H    22.08300   10.71400   33.00400  
H    20.53700   11.09700   32.15800  
H    20.56600   10.80500   33.92800  
O    21.05000   8.13000    34.06500  
C    20.99700   19.86100   33.12100  
H    20.62600   19.90200   32.09400  
H    21.19700   20.92000   33.29800  
H    21.87300   19.21300   33.20600  
S    19.72300   19.20200   34.22000  
C    18.58100   20.56700   33.90600  
H    19.19700   21.44800   34.10300  
H    18.22400   20.60300   32.87400  
H    17.79900   20.46100   34.66300  
O    20.36600   19.48500   35.54200  
C    16.52800   9.26400    32.36300  
H    15.53600   9.50500    32.75300  
H    16.57800   8.50800    31.57500  
H    17.05800   8.90500    33.24800  
S    17.38200   10.72500   31.72900  
C    16.30600   11.01000   30.30600  
H    15.26700   10.80200   30.57300  
H    16.46300   12.03500   29.96100  
H    16.56800   10.30700   29.51100  
O    18.61100   10.22500   31.03500  
C    19.86700   15.64500   25.46900  
H    19.25600   16.30500   26.08900  
H    20.68100   16.17100   24.96300  
H    19.26700   15.07500   24.75500  
S    20.67600   14.48000   26.58900  
C    21.49200   15.83100   27.46900  
H    22.43200   16.12900   26.99800  
H    20.85900   16.72000   27.53200  
H    21.71800   15.39900   28.44700  
O    21.60500   13.73100   25.68500  
C    27.23200   21.55100   31.39800  
H    26.25400   21.88800   31.75000  
H    27.59800   22.44000   30.87900  
H    27.09400   20.67100   30.76400  
S    28.19000   21.36200   32.91800  
C    29.23400   20.07000   32.20700  
H    28.60500   19.32900   31.70700  
H    29.86400   20.58400   31.47600  
H    29.79000   19.61800   33.03300  
O    27.30900   20.49900   33.76700  
C    25.23500   23.80900   33.65500  
H    25.48200   23.88900   32.59300  
H    25.67400   24.68300   34.14300  
H    25.46300   22.82900   34.08100  
S    23.43400   23.94000   33.70700  
C    23.11200   23.71500   35.47000  
H    22.17000   24.19000   35.75800  
H    23.04800   22.63800   35.64500  
H    23.86200   24.31600   35.99100  
O    22.91000   22.68300   33.08500  
C    30.03900   12.98100   26.59300  
H    30.80900   13.18600   27.34200  
H    30.34500   12.32400   25.77500  
H    29.64300   13.94800   26.27200  
S    28.70700   12.13900   27.47700  
C    29.71900   10.73300   27.99000  
H    30.19100   10.25200   27.12900  
H    30.42600   11.23300   28.65700  
H    29.11000   9.97300    28.48700  
O    27.93300   11.58600   26.32100  
C    24.28900   11.57200   34.47600  
H    24.34500   11.47000   33.38900  
H    23.51600   12.31600   34.68400  
H    25.29000   11.91200   34.75300  
S    23.77100   9.93400    35.03400  
C    23.77300   10.28800   36.80600  
H    22.76500   10.66800   36.99100  
H    23.87600   9.39900    37.43400  
H    24.58300   11.00800   36.95000  
O    24.98200   9.06200    34.91900  
C    28.05300   9.94500    33.67600  
H    27.25500   9.44500    33.12100  
H    28.03200   9.59800    34.71200  
H    28.01300   11.01400   33.45300  
S    29.63800   9.45100    32.96300  
C    28.78600   9.30200    31.37700  
H    28.01300   8.53200    31.32000  
H    28.38000   10.28700   31.13300  
H    29.52900   9.06400    30.61100  
O    29.97300   8.04000    33.33500  
C    32.73000   16.39900   31.53700  
H    32.58400   17.21800   30.82800  
H    33.79500   16.16900   31.62200  
H    32.28100   15.47500   31.16100  
S    32.21000   17.02400   33.15000  
C    32.19600   15.41900   33.98100  
H    31.57600   15.60400   34.86200  
H    31.58600   14.65300   33.49600  
H    33.20300   15.04300   34.17800  
O    30.75800   17.20900   32.83600  
C    17.77900   23.21900   31.73700  
H    17.67500   24.17100   32.26300  
H    17.19300   23.14800   30.81700  
H    17.40500   22.45400   32.42200  
S    19.44800   22.74700   31.23000  
C    19.48800   23.84600   29.79700  
H    18.52700   24.36700   29.81600  
H    20.31900   24.52600   30.00100  
H    19.66900   23.29500   28.87000  
O    19.19700   21.33400   30.80300  
C    19.56400   15.73900   35.63300  
H    18.93000   14.93100   36.00800  
H    19.46800   16.55700   36.35200  
H    19.23800   16.14400   34.67200  
S    21.25900   15.12000   35.54900  
C    21.74300   16.08700   34.10100  
H    22.57300   15.55400   33.62900  
H    20.89800   16.01600   33.41200  
H    21.95400   17.12800   34.35800  
O    21.01200   13.71500   35.09300  
C    22.84700   17.64300   37.87900  
H    22.45900   17.57400   36.86000  
H    23.72600   18.28800   37.94900  
H    23.20400   16.65000   38.16500  
S    21.46300   18.07900   38.95500  
C    21.44000   19.88000   38.80300  
H    20.67200   20.39400   39.38700  
H    22.37500   20.26200   39.22000  
H    21.27500   20.17200   37.76300  
O    22.12200   17.64700   40.22800  
C    27.29200   16.42300   34.13200  
H    28.28000   15.95700   34.10400  
H    26.69000   15.96100   33.34500  
H    27.41200   17.50900   34.12800  
S    26.49700   15.98900   35.69600  
C    26.35800   14.20800   35.42900  
H    25.59000   14.06200   34.66500  
H    27.36200   13.88600   35.14000  
H    26.01300   13.71100   36.34000  
O    25.07700   16.46300   35.67700  
C    22.64600   20.35500   25.57200  
H    23.60100   19.98200   25.95100  
H    22.64300   21.44800   25.57500  
H    21.78100   19.87900   26.04100  
S    22.61800   19.86000   23.83500  
C    23.32900   18.22200   24.10700  
H    24.34300   18.33300   24.50200  
H    22.77900   17.64300   24.85300  
H    23.24100   17.61600   23.20200  
O    23.77200   20.71600   23.41200  
C    26.99900   21.58400   23.34000  
H    27.38500   22.29600   24.07400  
H    27.61400   21.73900   22.45000  
H    25.93200   21.75900   23.18200  
S    27.47500   19.92400   23.87300  
C    26.86200   19.97300   25.57200  
H    25.77300   19.97400   25.66700  
H    27.40800   19.17000   26.07300  
H    27.16200   20.97100   25.90300  
O    28.94200   20.15100   24.07000  
C    28.50000   16.30300   24.90200  
H    28.98300   15.92000   25.80500  
H    28.89700   15.68500   24.09300  
H    28.76700   17.34600   24.71000  
S    26.69900   16.16900   24.93400  
C    26.64200   14.76600   26.07100  
H    27.05400   15.04000   27.04500  
H    25.57100   14.61700   26.23100  
H    27.14800   13.88700   25.66300  
O    26.37700   15.51000   23.62900  
C    19.47000   13.40900   30.01600  
H    18.89600   12.49200   30.17500  
H    18.99700   14.08700   29.30100  
H    20.46500   13.06500   29.72300  
S    19.57000   14.35700   31.55100  
C    17.81400   14.78200   31.59900  
H    17.74700   15.51300   32.40900  
H    17.39300   15.20700   30.68500  
H    17.25000   13.86100   31.76800  
O    20.27500   15.54500   30.97200  
C    29.30800   22.97500   26.36500  
H    29.24400   21.91900   26.09300  
H    28.59500   23.64500   25.87600  
H    30.32100   23.35100   26.20300  
S    28.83400   22.92100   28.10800  
C    30.43600   22.40900   28.76900  
H    30.66600   21.37000   28.51900  
H    31.22000   23.00600   28.29600  
H    30.48000   22.51000   29.85600  
O    27.85100   21.79300   28.14000  
C    19.28400   7.76800    27.71800  
H    18.97300   8.18000    26.75500  
H    19.64600   6.76300    27.48900  
H    18.38800   7.74400    28.34400  
S    20.63300   8.81500    28.30900  
C    19.95900   10.40700   27.78300  
H    19.69900   10.42600   26.72100  
H    18.98900   10.50000   28.27700  
H    20.64000   11.21300   28.06600  
O    21.56800   8.49200    27.18500  
$end

$rem
JOBTYPE  SP
METHOD  B3LYP
BASIS  6-31+G(D)
SYMMETRY  FALSE
SYM_IGNORE  TRUE
MEM_TOTAL  16000
MEM_STATIC  8000
MAX_SUB_FILE_NUM  16000
BASIS_LIN_DEP_THRESH  6
THRESH  14
SCF_CONVERGENCE  8
GEN_SCFMAN  TRUE
SCF_GUESS  FRAGMO
FD_MAT_VEC_PROD  FALSE
XC_GRID  000075000302
NL_GRID  1
MAX_SCF_CYCLES  200
FRGM_METHOD  STOLL
SCFMI_MODE  1
$end

$development
almo_efield  1
$end

$rem_frgm
SCF_CONVERGENCE  4
$end

--------------------------------------------------------------
 ----------------------------------------------------------------
             Standard Nuclear Orientation (Angstroms)
    I     Atom           X                Y                Z
 ----------------------------------------------------------------
    1      C      23.2640000000    17.7540000000    31.1150000000
    2      C      24.0210000000    16.4340000000    30.8950000000
    3      C      24.7550000000    16.4210000000    29.5440000000
    4      C      25.6600000000    17.6420000000    29.3110000000
    5      C      24.8920000000    18.9620000000    29.4870000000
    6      C      24.1590000000    18.9740000000    30.8380000000
    7      H      25.3290000000    15.5050000000    29.7280000000
    8      H      24.7690000000    16.3290000000    31.6890000000
    9      H      22.4070000000    17.8170000000    30.4330000000
   10      H      22.9190000000    17.5820000000    32.1420000000
   11      H      26.5570000000    17.4930000000    29.9240000000
   12      H      26.0360000000    17.5870000000    28.2820000000
   13      H      25.6220000000    19.7800000000    29.4280000000
   14      H      24.1730000000    19.0920000000    28.6690000000
   15      H      24.8740000000    19.0940000000    31.6610000000
   16      H      23.6250000000    19.9260000000    30.9380000000
   17      H      24.0180000000    16.1940000000    28.7640000000
   18      N      23.0440000000    15.3480000000    30.9530000000
   19      H      22.0780000000    15.4570000000    30.6690000000
   20      C      23.3130000000    14.0870000000    31.4410000000
   21      H      22.4360000000    13.4150000000    31.4150000000
   22      O      24.3740000000    13.9920000000    32.0330000000
   23      C      24.6290000000    22.8930000000    29.1480000000
   24      H      25.3750000000    22.5670000000    28.4190000000
   25      H      24.6060000000    22.1410000000    29.9410000000
   26      H      23.6480000000    22.9930000000    28.6760000000
   27      S      25.0760000000    24.4740000000    29.9000000000
   28      C      25.3120000000    25.3080000000    28.3150000000
   29      H      24.4180000000    25.3090000000    27.6860000000
   30      H      25.6360000000    26.3050000000    28.6240000000
   31      H      26.1270000000    24.8880000000    27.7200000000
   32      O      26.4140000000    24.3610000000    30.5630000000
   33      C      21.0260000000    19.5890000000    28.6440000000
   34      H      21.5380000000    20.3230000000    28.0160000000
   35      H      21.0800000000    19.8770000000    29.6970000000
   36      H      21.5500000000    18.6370000000    28.5350000000
   37      S      19.3080000000    19.4010000000    28.1170000000
   38      C      18.7040000000    18.3320000000    29.4430000000
   39      H      19.1190000000    17.3430000000    29.2340000000
   40      H      19.1360000000    18.7350000000    30.3630000000
   41      H      17.6160000000    18.3390000000    29.3350000000
   42      O      19.4250000000    18.5290000000    26.9060000000
   43      C      28.6270000000    14.9750000000    29.9410000000
   44      H      28.5470000000    16.0400000000    30.1710000000
   45      H      29.6150000000    14.5090000000    29.8870000000
   46      H      28.2780000000    14.8000000000    28.9200000000
   47      S      27.4610000000    14.0860000000    30.9970000000
   48      C      28.7380000000    13.6990000000    32.2150000000
   49      H      29.5570000000    13.1650000000    31.7260000000
   50      H      29.1720000000    14.6800000000    32.4230000000
   51      H      28.2460000000    13.3060000000    33.1080000000
   52      O      27.4170000000    12.7410000000    30.3420000000
   53      C      25.1430000000    10.5160000000    30.1550000000
   54      H      25.0720000000    11.4530000000    30.7150000000
   55      H      25.0960000000     9.5730000000    30.7060000000
   56      H      26.0360000000    10.6110000000    29.5330000000
   57      S      23.7630000000    10.4840000000    28.9890000000
   58      C      24.3040000000    11.8540000000    27.9420000000
   59      H      24.3210000000    12.7350000000    28.5870000000
   60      H      25.3380000000    11.6520000000    27.6510000000
   61      H      23.6240000000    12.0700000000    27.1140000000
   62      O      22.7230000000    11.2400000000    29.7560000000
   63      C      30.5220000000    19.1130000000    27.0560000000
   64      H      30.4770000000    20.1590000000    26.7400000000
   65      H      31.5210000000    18.8420000000    27.4080000000
   66      H      30.3210000000    18.5170000000    26.1630000000
   67      S      29.2930000000    18.6730000000    28.3050000000
   68      C      30.4680000000    18.2610000000    29.6160000000
   69      H      31.1460000000    19.0390000000    29.9750000000
   70      H      29.8840000000    17.9070000000    30.4690000000
   71      H      30.9310000000    17.3600000000    29.2050000000
   72      O      28.7500000000    17.3700000000    27.8050000000
   73      C      24.4010000000    20.1810000000    35.4020000000
   74      H      24.5910000000    19.1070000000    35.4630000000
   75      H      23.3260000000    20.2890000000    35.5680000000
   76      H      24.7400000000    20.5520000000    34.4310000000
   77      S      25.2680000000    21.1710000000    36.6400000000
   78      C      26.7680000000    20.1640000000    36.6800000000
   79      H      26.8870000000    19.6310000000    37.6270000000
   80      H      26.6460000000    19.3770000000    35.9320000000
   81      H      27.6500000000    20.7810000000    36.4890000000
   82      O      24.6570000000    20.8900000000    37.9770000000
   83      C      22.1180000000     8.5430000000    31.7560000000
   84      H      22.0620000000     7.4980000000    31.4420000000
   85      H      22.2110000000     9.2000000000    30.8880000000
   86      H      22.8720000000     8.7630000000    32.5160000000
   87      S      20.6420000000     8.7700000000    32.7750000000
   88      C      21.0060000000    10.5300000000    32.9660000000
   89      H      22.0830000000    10.7140000000    33.0040000000
   90      H      20.5370000000    11.0970000000    32.1580000000
   91      H      20.5660000000    10.8050000000    33.9280000000
   92      O      21.0500000000     8.1300000000    34.0650000000
   93      C      20.9970000000    19.8610000000    33.1210000000
   94      H      20.6260000000    19.9020000000    32.0940000000
   95      H      21.1970000000    20.9200000000    33.2980000000
   96      H      21.8730000000    19.2130000000    33.2060000000
   97      S      19.7230000000    19.2020000000    34.2200000000
   98      C      18.5810000000    20.5670000000    33.9060000000
   99      H      19.1970000000    21.4480000000    34.1030000000
  100      H      18.2240000000    20.6030000000    32.8740000000
  101      H      17.7990000000    20.4610000000    34.6630000000
  102      O      20.3660000000    19.4850000000    35.5420000000
  103      C      16.5280000000     9.2640000000    32.3630000000
  104      H      15.5360000000     9.5050000000    32.7530000000
  105      H      16.5780000000     8.5080000000    31.5750000000
  106      H      17.0580000000     8.9050000000    33.2480000000
  107      S      17.3820000000    10.7250000000    31.7290000000
  108      C      16.3060000000    11.0100000000    30.3060000000
  109      H      15.2670000000    10.8020000000    30.5730000000
  110      H      16.4630000000    12.0350000000    29.9610000000
  111      H      16.5680000000    10.3070000000    29.5110000000
  112      O      18.6110000000    10.2250000000    31.0350000000
  113      C      19.8670000000    15.6450000000    25.4690000000
  114      H      19.2560000000    16.3050000000    26.0890000000
  115      H      20.6810000000    16.1710000000    24.9630000000
  116      H      19.2670000000    15.0750000000    24.7550000000
  117      S      20.6760000000    14.4800000000    26.5890000000
  118      C      21.4920000000    15.8310000000    27.4690000000
  119      H      22.4320000000    16.1290000000    26.9980000000
  120      H      20.8590000000    16.7200000000    27.5320000000
  121      H      21.7180000000    15.3990000000    28.4470000000
  122      O      21.6050000000    13.7310000000    25.6850000000
  123      C      27.2320000000    21.5510000000    31.3980000000
  124      H      26.2540000000    21.8880000000    31.7500000000
  125      H      27.5980000000    22.4400000000    30.8790000000
  126      H      27.0940000000    20.6710000000    30.7640000000
  127      S      28.1900000000    21.3620000000    32.9180000000
  128      C      29.2340000000    20.0700000000    32.2070000000
  129      H      28.6050000000    19.3290000000    31.7070000000
  130      H      29.8640000000    20.5840000000    31.4760000000
  131      H      29.7900000000    19.6180000000    33.0330000000
  132      O      27.3090000000    20.4990000000    33.7670000000
  133      C      25.2350000000    23.8090000000    33.6550000000
  134      H      25.4820000000    23.8890000000    32.5930000000
  135      H      25.6740000000    24.6830000000    34.1430000000
  136      H      25.4630000000    22.8290000000    34.0810000000
  137      S      23.4340000000    23.9400000000    33.7070000000
  138      C      23.1120000000    23.7150000000    35.4700000000
  139      H      22.1700000000    24.1900000000    35.7580000000
  140      H      23.0480000000    22.6380000000    35.6450000000
  141      H      23.8620000000    24.3160000000    35.9910000000
  142      O      22.9100000000    22.6830000000    33.0850000000
  143      C      30.0390000000    12.9810000000    26.5930000000
  144      H      30.8090000000    13.1860000000    27.3420000000
  145      H      30.3450000000    12.3240000000    25.7750000000
  146      H      29.6430000000    13.9480000000    26.2720000000
  147      S      28.7070000000    12.1390000000    27.4770000000
  148      C      29.7190000000    10.7330000000    27.9900000000
  149      H      30.1910000000    10.2520000000    27.1290000000
  150      H      30.4260000000    11.2330000000    28.6570000000
  151      H      29.1100000000     9.9730000000    28.4870000000
  152      O      27.9330000000    11.5860000000    26.3210000000
  153      C      24.2890000000    11.5720000000    34.4760000000
  154      H      24.3450000000    11.4700000000    33.3890000000
  155      H      23.5160000000    12.3160000000    34.6840000000
  156      H      25.2900000000    11.9120000000    34.7530000000
  157      S      23.7710000000     9.9340000000    35.0340000000
  158      C      23.7730000000    10.2880000000    36.8060000000
  159      H      22.7650000000    10.6680000000    36.9910000000
  160      H      23.8760000000     9.3990000000    37.4340000000
  161      H      24.5830000000    11.0080000000    36.9500000000
  162      O      24.9820000000     9.0620000000    34.9190000000
  163      C      28.0530000000     9.9450000000    33.6760000000
  164      H      27.2550000000     9.4450000000    33.1210000000
  165      H      28.0320000000     9.5980000000    34.7120000000
  166      H      28.0130000000    11.0140000000    33.4530000000
  167      S      29.6380000000     9.4510000000    32.9630000000
  168      C      28.7860000000     9.3020000000    31.3770000000
  169      H      28.0130000000     8.5320000000    31.3200000000
  170      H      28.3800000000    10.2870000000    31.1330000000
  171      H      29.5290000000     9.0640000000    30.6110000000
  172      O      29.9730000000     8.0400000000    33.3350000000
  173      C      32.7300000000    16.3990000000    31.5370000000
  174      H      32.5840000000    17.2180000000    30.8280000000
  175      H      33.7950000000    16.1690000000    31.6220000000
  176      H      32.2810000000    15.4750000000    31.1610000000
  177      S      32.2100000000    17.0240000000    33.1500000000
  178      C      32.1960000000    15.4190000000    33.9810000000
  179      H      31.5760000000    15.6040000000    34.8620000000
  180      H      31.5860000000    14.6530000000    33.4960000000
  181      H      33.2030000000    15.0430000000    34.1780000000
  182      O      30.7580000000    17.2090000000    32.8360000000
  183      C      17.7790000000    23.2190000000    31.7370000000
  184      H      17.6750000000    24.1710000000    32.2630000000
  185      H      17.1930000000    23.1480000000    30.8170000000
  186      H      17.4050000000    22.4540000000    32.4220000000
  187      S      19.4480000000    22.7470000000    31.2300000000
  188      C      19.4880000000    23.8460000000    29.7970000000
  189      H      18.5270000000    24.3670000000    29.8160000000
  190      H      20.3190000000    24.5260000000    30.0010000000
  191      H      19.6690000000    23.2950000000    28.8700000000
  192      O      19.1970000000    21.3340000000    30.8030000000
  193      C      19.5640000000    15.7390000000    35.6330000000
  194      H      18.9300000000    14.9310000000    36.0080000000
  195      H      19.4680000000    16.5570000000    36.3520000000
  196      H      19.2380000000    16.1440000000    34.6720000000
  197      S      21.2590000000    15.1200000000    35.5490000000
  198      C      21.7430000000    16.0870000000    34.1010000000
  199      H      22.5730000000    15.5540000000    33.6290000000
  200      H      20.8980000000    16.0160000000    33.4120000000
  201      H      21.9540000000    17.1280000000    34.3580000000
  202      O      21.0120000000    13.7150000000    35.0930000000
  203      C      22.8470000000    17.6430000000    37.8790000000
  204      H      22.4590000000    17.5740000000    36.8600000000
  205      H      23.7260000000    18.2880000000    37.9490000000
  206      H      23.2040000000    16.6500000000    38.1650000000
  207      S      21.4630000000    18.0790000000    38.9550000000
  208      C      21.4400000000    19.8800000000    38.8030000000
  209      H      20.6720000000    20.3940000000    39.3870000000
  210      H      22.3750000000    20.2620000000    39.2200000000
  211      H      21.2750000000    20.1720000000    37.7630000000
  212      O      22.1220000000    17.6470000000    40.2280000000
  213      C      27.2920000000    16.4230000000    34.1320000000
  214      H      28.2800000000    15.9570000000    34.1040000000
  215      H      26.6900000000    15.9610000000    33.3450000000
  216      H      27.4120000000    17.5090000000    34.1280000000
  217      S      26.4970000000    15.9890000000    35.6960000000
  218      C      26.3580000000    14.2080000000    35.4290000000
  219      H      25.5900000000    14.0620000000    34.6650000000
  220      H      27.3620000000    13.8860000000    35.1400000000
  221      H      26.0130000000    13.7110000000    36.3400000000
  222      O      25.0770000000    16.4630000000    35.6770000000
  223      C      22.6460000000    20.3550000000    25.5720000000
  224      H      23.6010000000    19.9820000000    25.9510000000
  225      H      22.6430000000    21.4480000000    25.5750000000
  226      H      21.7810000000    19.8790000000    26.0410000000
  227      S      22.6180000000    19.8600000000    23.8350000000
  228      C      23.3290000000    18.2220000000    24.1070000000
  229      H      24.3430000000    18.3330000000    24.5020000000
  230      H      22.7790000000    17.6430000000    24.8530000000
  231      H      23.2410000000    17.6160000000    23.2020000000
  232      O      23.7720000000    20.7160000000    23.4120000000
  233      C      26.9990000000    21.5840000000    23.3400000000
  234      H      27.3850000000    22.2960000000    24.0740000000
  235      H      27.6140000000    21.7390000000    22.4500000000
  236      H      25.9320000000    21.7590000000    23.1820000000
  237      S      27.4750000000    19.9240000000    23.8730000000
  238      C      26.8620000000    19.9730000000    25.5720000000
  239      H      25.7730000000    19.9740000000    25.6670000000
  240      H      27.4080000000    19.1700000000    26.0730000000
  241      H      27.1620000000    20.9710000000    25.9030000000
  242      O      28.9420000000    20.1510000000    24.0700000000
  243      C      28.5000000000    16.3030000000    24.9020000000
  244      H      28.9830000000    15.9200000000    25.8050000000
  245      H      28.8970000000    15.6850000000    24.0930000000
  246      H      28.7670000000    17.3460000000    24.7100000000
  247      S      26.6990000000    16.1690000000    24.9340000000
  248      C      26.6420000000    14.7660000000    26.0710000000
  249      H      27.0540000000    15.0400000000    27.0450000000
  250      H      25.5710000000    14.6170000000    26.2310000000
  251      H      27.1480000000    13.8870000000    25.6630000000
  252      O      26.3770000000    15.5100000000    23.6290000000
  253      C      19.4700000000    13.4090000000    30.0160000000
  254      H      18.8960000000    12.4920000000    30.1750000000
  255      H      18.9970000000    14.0870000000    29.3010000000
  256      H      20.4650000000    13.0650000000    29.7230000000
  257      S      19.5700000000    14.3570000000    31.5510000000
  258      C      17.8140000000    14.7820000000    31.5990000000
  259      H      17.7470000000    15.5130000000    32.4090000000
  260      H      17.3930000000    15.2070000000    30.6850000000
  261      H      17.2500000000    13.8610000000    31.7680000000
  262      O      20.2750000000    15.5450000000    30.9720000000
  263      C      29.3080000000    22.9750000000    26.3650000000
  264      H      29.2440000000    21.9190000000    26.0930000000
  265      H      28.5950000000    23.6450000000    25.8760000000
  266      H      30.3210000000    23.3510000000    26.2030000000
  267      S      28.8340000000    22.9210000000    28.1080000000
  268      C      30.4360000000    22.4090000000    28.7690000000
  269      H      30.6660000000    21.3700000000    28.5190000000
  270      H      31.2200000000    23.0060000000    28.2960000000
  271      H      30.4800000000    22.5100000000    29.8560000000
  272      O      27.8510000000    21.7930000000    28.1400000000
  273      C      19.2840000000     7.7680000000    27.7180000000
  274      H      18.9730000000     8.1800000000    26.7550000000
  275      H      19.6460000000     6.7630000000    27.4890000000
  276      H      18.3880000000     7.7440000000    28.3440000000
  277      S      20.6330000000     8.8150000000    28.3090000000
  278      C      19.9590000000    10.4070000000    27.7830000000
  279      H      19.6990000000    10.4260000000    26.7210000000
  280      H      18.9890000000    10.5000000000    28.2770000000
  281      H      20.6400000000    11.2130000000    28.0660000000
  282      O      21.5680000000     8.4920000000    27.1850000000
 ----------------------------------------------------------------
 Nuclear Repulsion Energy =       45502.20676475 hartrees
 There are      581 alpha and      581 beta electrons
 Requested basis set is 6-31+G(d)
 There are 929 shells and 2589 basis functions

 Total QAlloc Memory Limit  16000 MB
 Mega-Array Size      7821 MB
 MEM_STATIC part      8000 MB
 A cutoff of  1.0D-14 yielded 170135 shell pairs
 There are   1465630 function pairs
 Smallest overlap matrix eigenvalue = 3.96E-07
 Linear dependence detected in AO basis
 Tighter screening thresholds may be required for diffuse basis sets
 Use S2THRESH > 14 and THRESH = 14 in case of SCF convergence issues
 Number of orthogonalized atomic orbitals = 2587
 Maximum deviation from orthogonality = 1.107E-10

 Scale SEOQF with 1.000000e-03/1.000000e-03/1.000000e-03

 Standard Electronic Orientation quadrupole field applied
 Nucleus-field energy     =    -0.0000007089 hartrees
Attempting to make child job directory: /local/scratch/users/ymao/r7.00_frame_0011_almo_B3LYP_dp.in20210311133728//Frg1/
Attempting to make child job directory: /local/scratch/users/ymao/r7.00_frame_0011_almo_B3LYP_dp.in20210311133728//Frg2/
Creating input file /local/scratch/users/ymao/r7.00_frame_0011_almo_B3LYP_dp.in20210311133728/Frg1.input
using default PutDataFrgm: nothing
calling putenv with: QCSCRATCH=/local/scratch/users/ymao/r7.00_frame_0011_almo_B3LYP_dp.in20210311133728/ 
Spawning Job For Fragment 0
Done Job For Fragment 0
calling putenv with: QCSCRATCH=/local/scratch/users/ymao 
calling putenv with: QCTHREADS=8 
Creating input file /local/scratch/users/ymao/r7.00_frame_0011_almo_B3LYP_dp.in20210311133728/Frg2.input
using default PutDataFrgm: nothing
calling putenv with: QCSCRATCH=/local/scratch/users/ymao/r7.00_frame_0011_almo_B3LYP_dp.in20210311133728/ 
Spawning Job For Fragment 1
Done Job For Fragment 1
calling putenv with: QCSCRATCH=/local/scratch/users/ymao 
calling putenv with: QCTHREADS=8 
 Time for running child jobs:  CPU 1.10 s  wall 25991.28 s

 -----------------------------------------------------------------------
  General SCF calculation program by
  Eric Jon Sundstrom, Paul Horn, Yuezhi Mao, Dmitri Zuev, Alec White,
  David Stuck, Shaama M.S., Shane Yost, Joonho Lee, David Small,
  Daniel Levine, Susi Lehtola, Hugh Burton, Evgeny Epifanovsky,
  Bang C. Huynh
 -----------------------------------------------------------------------
Performing Restricted Closed Shell SCFMI
Doing General SCFMI
 Exchange:     0.2000 Hartree-Fock + 0.0800 Slater + 0.7200 B88
 Correlation:  0.1900 VWN1RPA + 0.8100 LYP
 Using Euler-Maclaurin-Lebedev (75,302) quadrature formula
performing fock build before subrot guess so that all methods have access
Printing subrot_rss_gen Method Specification:
Occupied Subspace Method is 0
Virtual Subspace Method is 0
Energy prior to optimization (guess energy) = -14787.472575443855
Begin Timing: Total SCF Calculation
begin iterations for algorithm: DIIS         
the SCF tolerance is set to 1.00e-08
    1  -14787.4725754439      4.74e-05     00000 
    2  -14787.4727402553      6.85e-05     00000 
    3  -14787.4838221184      1.91e-05     00000 
    4  -14787.4846018274      7.86e-06     00000 
    5  -14787.4847804937      2.95e-06     00000 
    6  -14787.4848031504      2.11e-06     00000 
    7  -14787.4848142016      1.30e-06     00000 
    8  -14787.4848184623      7.36e-07     00000 
    9  -14787.4848197393      4.02e-07     00000 
   10  -14787.4848200566      2.73e-07     00000 
   11  -14787.4848201892      1.91e-07     00000 
   12  -14787.4848202700      1.08e-07     00000 
   13  -14787.4848202965      6.24e-08     00000 
   14  -14787.4848203063      3.45e-08     00000 
   15  -14787.4848203083      2.67e-08     00000 
   16  -14787.4848203098      1.52e-08     00000 
   17  -14787.4848203105      7.78e-09     00000 Convergence criterion met
write pseudocanon occs and virts to disk
write pseudocanon orbital energies to disk
Timing for Total SCF: 54647.00s (wall), 433234.04s (cpu)
SCFMI Energy  -14787.4848203105
<S^2>            0.00000
 Total energy in the final basis set =   -14787.4848203105
    ==================================================
        The end of Object-Oriented SCFman: SCFMI      
    ==================================================
 
 --------------------------------------------------------------
 
                    Orbital Energies (a.u.)
 --------------------------------------------------------------
 
 Alpha MOs
 -- Occupied --
-89.0446 -89.0324 -89.0285 -89.0278 -89.0217 -89.0207 -89.0178 -89.0128
-89.0103 -89.0095 -89.0087 -89.0058 -89.0047 -88.9970 -88.9960 -88.9932
-88.9888 -88.9841 -88.9826 -88.9799 -88.9778 -88.9747 -88.9693 -88.9640
-88.9540 -88.9531 -19.1536 -19.1518 -19.1500 -19.1497 -19.1426 -19.1336
-19.1314 -19.1286 -19.1256 -19.1227 -19.1217 -19.1184 -19.1184 -19.1149
-19.1149 -19.1148 -19.1094 -19.1027 -19.0997 -19.0971 -19.0925 -19.0915
-19.0842 -19.0777 -19.0758 -19.0726 -19.0640 -14.3444 -10.2813 -10.2556
-10.2550 -10.2549 -10.2526 -10.2492 -10.2468 -10.2448 -10.2445 -10.2404
-10.2393 -10.2381 -10.2346 -10.2340 -10.2314 -10.2303 -10.2300 -10.2288
-10.2282 -10.2265 -10.2247 -10.2247 -10.2235 -10.2225 -10.2212 -10.2204
-10.2197 -10.2197 -10.2186 -10.2168 -10.2160 -10.2147 -10.2103 -10.2080
-10.2069 -10.2014 -10.2013 -10.2002 -10.2000 -10.1967 -10.1954 -10.1938
-10.1935 -10.1932 -10.1932 -10.1930 -10.1914 -10.1884 -10.1883 -10.1873
-10.1859 -10.1859 -10.1848 -10.1833 -10.1797 -10.1705 -10.1691 -10.1686
-10.1647  -8.0906  -8.0789  -8.0747  -8.0735  -8.0675  -8.0668  -8.0639
 -8.0588  -8.0558  -8.0557  -8.0550  -8.0516  -8.0513  -8.0434  -8.0419
 -8.0396  -8.0348  -8.0299  -8.0283  -8.0261  -8.0239  -8.0202  -8.0160
 -8.0101  -8.0000  -7.9993  -6.0548  -6.0537  -6.0482  -6.0433  -6.0419
 -6.0391  -6.0379  -6.0379  -6.0366  -6.0360  -6.0319  -6.0318  -6.0310
 -6.0308  -6.0307  -6.0300  -6.0283  -6.0268  -6.0246  -6.0243  -6.0231
 -6.0217  -6.0212  -6.0201  -6.0200  -6.0192  -6.0189  -6.0188  -6.0180
 -6.0166  -6.0159  -6.0158  -6.0147  -6.0144  -6.0135  -6.0128  -6.0125
 -6.0093  -6.0085  -6.0076  -6.0065  -6.0063  -6.0051  -6.0039  -6.0027
 -6.0007  -5.9991  -5.9991  -5.9979  -5.9970  -5.9940  -5.9931  -5.9927
 -5.9924  -5.9915  -5.9904  -5.9889  -5.9882  -5.9876  -5.9870  -5.9856
 -5.9844  -5.9839  -5.9835  -5.9813  -5.9804  -5.9788  -5.9777  -5.9744
 -5.9733  -5.9733  -5.9672  -5.9643  -5.9634  -5.9632  -5.9622  -5.9573
 -5.9569  -1.0648  -1.0631  -1.0578  -1.0557  -1.0512  -1.0494  -1.0439
 -1.0398  -1.0384  -1.0365  -1.0336  -1.0322  -1.0319  -1.0308  -1.0263
 -1.0208  -1.0161  -1.0133  -1.0079  -1.0030  -1.0017  -1.0006  -1.0004
 -0.9920  -0.9876  -0.9812  -0.9743  -0.9124  -0.8416  -0.8364  -0.8344
 -0.8324  -0.8313  -0.8268  -0.8199  -0.8180  -0.8126  -0.8122  -0.8105
 -0.8086  -0.8077  -0.8069  -0.8045  -0.8006  -0.7981  -0.7941  -0.7908
 -0.7859  -0.7799  -0.7769  -0.7679  -0.7677  -0.7677  -0.7666  -0.7627
 -0.7626  -0.7585  -0.7543  -0.7537  -0.7533  -0.7514  -0.7493  -0.7473
 -0.7443  -0.7414  -0.7403  -0.7387  -0.7360  -0.7342  -0.7316  -0.7291
 -0.7280  -0.7277  -0.7146  -0.7132  -0.7097  -0.7033  -0.7012  -0.6999
 -0.6988  -0.6950  -0.6824  -0.6792  -0.6565  -0.6477  -0.6449  -0.6405
 -0.6390  -0.6382  -0.6341  -0.6329  -0.6306  -0.6261  -0.6247  -0.6238
 -0.6212  -0.6189  -0.6139  -0.6098  -0.6090  -0.6074  -0.6018  -0.5985
 -0.5965  -0.5921  -0.5903  -0.5902  -0.5820  -0.5803  -0.5775  -0.5715
 -0.5669  -0.5663  -0.5241  -0.5230  -0.5181  -0.5156  -0.5089  -0.5074
 -0.5068  -0.5041  -0.5041  -0.5035  -0.5030  -0.5019  -0.5004  -0.4996
 -0.4988  -0.4983  -0.4969  -0.4961  -0.4951  -0.4936  -0.4911  -0.4901
 -0.4884  -0.4878  -0.4873  -0.4865  -0.4857  -0.4844  -0.4839  -0.4827
 -0.4820  -0.4819  -0.4811  -0.4802  -0.4799  -0.4777  -0.4770  -0.4749
 -0.4745  -0.4740  -0.4738  -0.4730  -0.4714  -0.4705  -0.4702  -0.4700
 -0.4696  -0.4687  -0.4675  -0.4671  -0.4663  -0.4649  -0.4641  -0.4640
 -0.4619  -0.4610  -0.4591  -0.4589  -0.4581  -0.4569  -0.4558  -0.4547
 -0.4545  -0.4540  -0.4538  -0.4537  -0.4536  -0.4534  -0.4531  -0.4528
 -0.4519  -0.4515  -0.4504  -0.4501  -0.4493  -0.4475  -0.4472  -0.4468
 -0.4453  -0.4442  -0.4426  -0.4416  -0.4405  -0.4401  -0.4400  -0.4390
 -0.4381  -0.4373  -0.4366  -0.4362  -0.4347  -0.4335  -0.4332  -0.4323
 -0.4317  -0.4311  -0.4305  -0.4303  -0.4294  -0.4278  -0.4277  -0.4270
 -0.4267  -0.4261  -0.4244  -0.4238  -0.4230  -0.4225  -0.4214  -0.4203
 -0.4199  -0.4189  -0.4174  -0.4167  -0.4156  -0.4149  -0.4145  -0.4143
 -0.4134  -0.4128  -0.4126  -0.4109  -0.4106  -0.4105  -0.4098  -0.4094
 -0.4092  -0.4083  -0.4079  -0.4066  -0.4062  -0.4053  -0.4038  -0.4034
 -0.4025  -0.4022  -0.4013  -0.3998  -0.3994  -0.3987  -0.3984  -0.3968
 -0.3955  -0.3952  -0.3947  -0.3944  -0.3933  -0.3919  -0.3911  -0.3898
 -0.3895  -0.3874  -0.3870  -0.3862  -0.3851  -0.3844  -0.3834  -0.3830
 -0.3800  -0.3768  -0.3760  -0.3754  -0.3748  -0.3742  -0.3735  -0.3734
 -0.3730  -0.3724  -0.3721  -0.3714  -0.3710  -0.3695  -0.3655  -0.3647
 -0.3633  -0.3619  -0.3600  -0.3595  -0.3592  -0.3571  -0.3549  -0.3538
 -0.3523  -0.3516  -0.3478  -0.3474  -0.3447  -0.3410  -0.3401  -0.3374
 -0.3350  -0.3314  -0.3276  -0.3269  -0.3209  -0.3163  -0.3148  -0.3137
 -0.3117  -0.3104  -0.3047  -0.3038  -0.2983  -0.2919  -0.2906  -0.2882
 -0.2853  -0.2813  -0.2808  -0.2781  -0.2773  -0.2765  -0.2749  -0.2745
 -0.2731  -0.2698  -0.2675  -0.2647  -0.2623  -0.2613  -0.2605  -0.2600
 -0.2573  -0.2571  -0.2524  -0.2514  -0.2512  -0.2506  -0.2501  -0.2496
 -0.2492  -0.2444  -0.2441  -0.2424  -0.2399  -0.2377  -0.2372  -0.2339
 -0.2324  -0.2313  -0.2302  -0.2250  -0.2234  -0.2227  -0.2219  -0.2172
 -0.2166  -0.2081  -0.2056  -0.1929  -0.1879
 -- Virtual --
 -0.0503  -0.0442  -0.0419  -0.0372  -0.0343  -0.0327  -0.0318  -0.0289
 -0.0238  -0.0220  -0.0195  -0.0177  -0.0170  -0.0161  -0.0158  -0.0149
 -0.0147  -0.0128  -0.0123  -0.0114  -0.0101  -0.0087  -0.0085  -0.0066
 -0.0062  -0.0056  -0.0045  -0.0039  -0.0030  -0.0027  -0.0014  -0.0001
  0.0012   0.0015   0.0027   0.0036   0.0043   0.0057   0.0062   0.0070
  0.0077   0.0080   0.0084   0.0097   0.0103   0.0111   0.0116   0.0123
  0.0125   0.0136   0.0141   0.0153   0.0158   0.0166   0.0174   0.0180
  0.0186   0.0198   0.0203   0.0212   0.0221   0.0229   0.0233   0.0240
  0.0253   0.0260   0.0268   0.0274   0.0280   0.0295   0.0300   0.0307
  0.0316   0.0323   0.0330   0.0335   0.0344   0.0355   0.0361   0.0362
  0.0367   0.0370   0.0381   0.0390   0.0392   0.0399   0.0407   0.0413
  0.0415   0.0421   0.0438   0.0444   0.0450   0.0459   0.0461   0.0470
  0.0471   0.0475   0.0484   0.0499   0.0501   0.0510   0.0514   0.0517
  0.0529   0.0536   0.0541   0.0546   0.0551   0.0561   0.0568   0.0576
  0.0580   0.0590   0.0594   0.0600   0.0603   0.0608   0.0622   0.0624
  0.0630   0.0632   0.0642   0.0648   0.0655   0.0664   0.0669   0.0676
  0.0686   0.0692   0.0696   0.0700   0.0714   0.0719   0.0724   0.0733
  0.0745   0.0750   0.0761   0.0766   0.0767   0.0770   0.0778   0.0783
  0.0786   0.0796   0.0804   0.0810   0.0817   0.0824   0.0825   0.0833
  0.0849   0.0849   0.0854   0.0860   0.0866   0.0868   0.0870   0.0888
  0.0895   0.0897   0.0912   0.0914   0.0924   0.0925   0.0930   0.0943
  0.0947   0.0952   0.0958   0.0961   0.0973   0.0980   0.0986   0.0997
  0.0998   0.1005   0.1011   0.1020   0.1022   0.1026   0.1033   0.1040
  0.1049   0.1055   0.1058   0.1061   0.1073   0.1077   0.1090   0.1095
  0.1104   0.1113   0.1113   0.1124   0.1128   0.1134   0.1142   0.1150
  0.1159   0.1159   0.1167   0.1175   0.1181   0.1187   0.1192   0.1203
  0.1208   0.1212   0.1218   0.1227   0.1232   0.1236   0.1243   0.1251
  0.1255   0.1258   0.1267   0.1278   0.1281   0.1285   0.1293   0.1295
  0.1302   0.1308   0.1312   0.1323   0.1332   0.1334   0.1338   0.1350
  0.1355   0.1360   0.1367   0.1372   0.1377   0.1392   0.1395   0.1401
  0.1402   0.1408   0.1420   0.1435   0.1439   0.1451   0.1451   0.1454
  0.1460   0.1466   0.1481   0.1483   0.1489   0.1494   0.1504   0.1507
  0.1516   0.1522   0.1529   0.1541   0.1542   0.1545   0.1550   0.1558
  0.1563   0.1574   0.1579   0.1586   0.1588   0.1595   0.1600   0.1608
  0.1614   0.1618   0.1627   0.1634   0.1637   0.1644   0.1650   0.1658
  0.1665   0.1667   0.1671   0.1679   0.1690   0.1692   0.1698   0.1705
  0.1709   0.1717   0.1723   0.1734   0.1738   0.1741   0.1747   0.1753
  0.1764   0.1767   0.1773   0.1781   0.1785   0.1789   0.1794   0.1807
  0.1812   0.1818   0.1826   0.1836   0.1842   0.1850   0.1851   0.1853
  0.1857   0.1864   0.1870   0.1876   0.1880   0.1888   0.1895   0.1905
  0.1908   0.1921   0.1924   0.1932   0.1933   0.1943   0.1947   0.1958
  0.1964   0.1971   0.1973   0.1985   0.1990   0.1997   0.2000   0.2009
  0.2015   0.2019   0.2022   0.2033   0.2043   0.2052   0.2058   0.2060
  0.2066   0.2069   0.2081   0.2082   0.2086   0.2095   0.2097   0.2105
  0.2111   0.2114   0.2119   0.2127   0.2140   0.2144   0.2150   0.2156
  0.2164   0.2166   0.2170   0.2177   0.2180   0.2188   0.2197   0.2205
  0.2212   0.2224   0.2229   0.2241   0.2248   0.2251   0.2252   0.2270
  0.2276   0.2278   0.2289   0.2291   0.2298   0.2306   0.2306   0.2320
  0.2323   0.2327   0.2336   0.2340   0.2349   0.2354   0.2362   0.2372
  0.2373   0.2379   0.2394   0.2400   0.2404   0.2418   0.2421   0.2428
  0.2436   0.2440   0.2445   0.2453   0.2462   0.2464   0.2473   0.2474
  0.2496   0.2503   0.2510   0.2520   0.2524   0.2528   0.2534   0.2543
  0.2544   0.2551   0.2561   0.2569   0.2573   0.2583   0.2594   0.2601
  0.2604   0.2617   0.2620   0.2625   0.2631   0.2639   0.2644   0.2648
  0.2657   0.2667   0.2669   0.2675   0.2683   0.2686   0.2703   0.2713
  0.2721   0.2725   0.2737   0.2742   0.2751   0.2752   0.2771   0.2773
  0.2780   0.2792   0.2798   0.2801   0.2810   0.2816   0.2821   0.2832
  0.2835   0.2844   0.2855   0.2860   0.2870   0.2877   0.2888   0.2899
  0.2907   0.2910   0.2922   0.2924   0.2935   0.2954   0.2962   0.2965
  0.2973   0.2976   0.2997   0.3001   0.3004   0.3017   0.3024   0.3029
  0.3035   0.3045   0.3050   0.3062   0.3071   0.3077   0.3081   0.3087
  0.3093   0.3108   0.3120   0.3129   0.3135   0.3139   0.3149   0.3162
  0.3166   0.3174   0.3183   0.3186   0.3193   0.3213   0.3215   0.3227
  0.3247   0.3251   0.3261   0.3269   0.3275   0.3277   0.3288   0.3294
  0.3298   0.3306   0.3315   0.3329   0.3333   0.3346   0.3363   0.3374
  0.3380   0.3385   0.3390   0.3397   0.3406   0.3411   0.3425   0.3432
  0.3449   0.3457   0.3464   0.3478   0.3480   0.3497   0.3502   0.3505
  0.3513   0.3534   0.3534   0.3549   0.3557   0.3564   0.3573   0.3575
  0.3587   0.3598   0.3607   0.3611   0.3628   0.3631   0.3650   0.3655
  0.3664   0.3675   0.3685   0.3690   0.3698   0.3702   0.3717   0.3729
  0.3746   0.3748   0.3761   0.3768   0.3779   0.3791   0.3794   0.3808
  0.3812   0.3823   0.3828   0.3834   0.3847   0.3848   0.3856   0.3863
  0.3876   0.3877   0.3879   0.3892   0.3896   0.3917   0.3935   0.3941
  0.3944   0.3952   0.3960   0.3976   0.3984   0.3993   0.4001   0.4008
  0.4013   0.4019   0.4026   0.4041   0.4045   0.4056   0.4060   0.4078
  0.4084   0.4097   0.4108   0.4113   0.4120   0.4131   0.4136   0.4157
  0.4160   0.4179   0.4186   0.4207   0.4218   0.4220   0.4226   0.4229
  0.4249   0.4257   0.4269   0.4275   0.4293   0.4301   0.4306   0.4316
  0.4318   0.4331   0.4351   0.4363   0.4381   0.4391   0.4396   0.4411
  0.4420   0.4428   0.4431   0.4449   0.4459   0.4468   0.4472   0.4485
  0.4498   0.4516   0.4528   0.4540   0.4552   0.4564   0.4581   0.4584
  0.4604   0.4616   0.4626   0.4636   0.4647   0.4653   0.4667   0.4674
  0.4682   0.4704   0.4708   0.4736   0.4742   0.4749   0.4761   0.4782
  0.4786   0.4795   0.4821   0.4837   0.4851   0.4859   0.4870   0.4898
  0.4901   0.4913   0.4942   0.4963   0.4976   0.4985   0.4995   0.4999
  0.5024   0.5039   0.5064   0.5066   0.5077   0.5134   0.5136   0.5146
  0.5153   0.5178   0.5187   0.5203   0.5215   0.5245   0.5251   0.5270
  0.5297   0.5309   0.5316   0.5330   0.5364   0.5375   0.5381   0.5409
  0.5416   0.5434   0.5448   0.5461   0.5477   0.5480   0.5489   0.5503
  0.5520   0.5538   0.5558   0.5583   0.5584   0.5608   0.5613   0.5623
  0.5638   0.5673   0.5677   0.5715   0.5726   0.5739   0.5745   0.5762
  0.5773   0.5778   0.5797   0.5812   0.5832   0.5842   0.5850   0.5872
  0.5884   0.5904   0.5934   0.5942   0.5949   0.5963   0.5975   0.5999
  0.6006   0.6016   0.6027   0.6038   0.6058   0.6081   0.6102   0.6116
  0.6131   0.6140   0.6150   0.6162   0.6167   0.6192   0.6210   0.6217
  0.6232   0.6241   0.6255   0.6278   0.6279   0.6305   0.6312   0.6324
  0.6344   0.6357   0.6370   0.6385   0.6400   0.6412   0.6414   0.6430
  0.6432   0.6442   0.6459   0.6472   0.6481   0.6501   0.6513   0.6529
  0.6536   0.6549   0.6556   0.6561   0.6569   0.6575   0.6582   0.6598
  0.6609   0.6624   0.6639   0.6641   0.6647   0.6660   0.6678   0.6690
  0.6693   0.6705   0.6723   0.6737   0.6754   0.6758   0.6763   0.6773
  0.6794   0.6799   0.6810   0.6827   0.6833   0.6837   0.6850   0.6863
  0.6871   0.6877   0.6900   0.6913   0.6920   0.6930   0.6941   0.6948
  0.6957   0.6973   0.6998   0.7005   0.7015   0.7023   0.7038   0.7049
  0.7049   0.7064   0.7072   0.7087   0.7104   0.7122   0.7127   0.7134
  0.7161   0.7177   0.7186   0.7192   0.7213   0.7219   0.7253   0.7264
  0.7273   0.7289   0.7303   0.7314   0.7328   0.7333   0.7348   0.7373
  0.7379   0.7388   0.7407   0.7432   0.7444   0.7451   0.7470   0.7484
  0.7511   0.7519   0.7524   0.7542   0.7555   0.7567   0.7581   0.7587
  0.7597   0.7604   0.7626   0.7634   0.7662   0.7678   0.7687   0.7706
  0.7715   0.7724   0.7749   0.7758   0.7772   0.7785   0.7791   0.7816
  0.7841   0.7850   0.7863   0.7869   0.7886   0.7895   0.7909   0.7912
  0.7961   0.7962   0.7968   0.7993   0.8006   0.8013   0.8020   0.8045
  0.8052   0.8068   0.8107   0.8117   0.8126   0.8153   0.8164   0.8178
  0.8197   0.8210   0.8229   0.8232   0.8261   0.8264   0.8283   0.8287
  0.8317   0.8324   0.8332   0.8346   0.8357   0.8369   0.8384   0.8402
  0.8408   0.8416   0.8436   0.8449   0.8456   0.8477   0.8493   0.8496
  0.8507   0.8522   0.8542   0.8543   0.8559   0.8572   0.8601   0.8610
  0.8623   0.8626   0.8654   0.8659   0.8669   0.8679   0.8702   0.8707
  0.8718   0.8742   0.8749   0.8755   0.8773   0.8786   0.8813   0.8813
  0.8823   0.8843   0.8854   0.8860   0.8884   0.8895   0.8907   0.8925
  0.8939   0.8951   0.8963   0.8981   0.8986   0.9000   0.9029   0.9038
  0.9043   0.9048   0.9079   0.9085   0.9120   0.9132   0.9132   0.9143
  0.9160   0.9174   0.9181   0.9201   0.9212   0.9222   0.9229   0.9237
  0.9244   0.9249   0.9271   0.9278   0.9287   0.9312   0.9330   0.9337
  0.9361   0.9368   0.9379   0.9388   0.9398   0.9405   0.9423   0.9433
  0.9448   0.9452   0.9464   0.9469   0.9489   0.9516   0.9520   0.9524
  0.9534   0.9543   0.9551   0.9564   0.9583   0.9587   0.9604   0.9621
  0.9628   0.9642   0.9649   0.9663   0.9666   0.9680   0.9684   0.9707
  0.9713   0.9729   0.9750   0.9756   0.9762   0.9783   0.9785   0.9801
  0.9813   0.9824   0.9830   0.9847   0.9858   0.9865   0.9869   0.9882
  0.9888   0.9893   0.9910   0.9920   0.9925   0.9938   0.9951   0.9968
  0.9979   0.9989   1.0002   1.0008   1.0018   1.0035   1.0051   1.0065
  1.0073   1.0096   1.0108   1.0121   1.0126   1.0134   1.0146   1.0166
  1.0183   1.0190   1.0201   1.0204   1.0209   1.0214   1.0246   1.0249
  1.0265   1.0270   1.0293   1.0307   1.0326   1.0333   1.0345   1.0352
  1.0364   1.0372   1.0385   1.0391   1.0403   1.0414   1.0430   1.0434
  1.0451   1.0464   1.0475   1.0491   1.0492   1.0517   1.0529   1.0533
  1.0547   1.0557   1.0573   1.0583   1.0602   1.0627   1.0644   1.0656
  1.0672   1.0675   1.0696   1.0703   1.0710   1.0726   1.0742   1.0747
  1.0760   1.0770   1.0773   1.0791   1.0811   1.0828   1.0831   1.0853
  1.0869   1.0880   1.0894   1.0909   1.0918   1.0925   1.0943   1.0962
  1.0972   1.0985   1.1001   1.1014   1.1023   1.1042   1.1058   1.1066
  1.1075   1.1109   1.1121   1.1130   1.1145   1.1156   1.1168   1.1184
  1.1195   1.1210   1.1217   1.1240   1.1250   1.1254   1.1276   1.1295
  1.1308   1.1344   1.1368   1.1376   1.1406   1.1407   1.1423   1.1436
  1.1442   1.1450   1.1465   1.1482   1.1491   1.1502   1.1523   1.1546
  1.1561   1.1562   1.1569   1.1576   1.1603   1.1621   1.1637   1.1646
  1.1670   1.1677   1.1691   1.1695   1.1699   1.1720   1.1724   1.1750
  1.1758   1.1771   1.1798   1.1817   1.1834   1.1835   1.1854   1.1862
  1.1872   1.1888   1.1914   1.1924   1.1940   1.1955   1.1962   1.1981
  1.1999   1.2012   1.2032   1.2039   1.2044   1.2069   1.2085   1.2110
  1.2129   1.2141   1.2170   1.2190   1.2195   1.2216   1.2234   1.2240
  1.2251   1.2258   1.2274   1.2296   1.2315   1.2347   1.2369   1.2377
  1.2412   1.2425   1.2461   1.2484   1.2509   1.2527   1.2575   1.2585
  1.2617   1.2623   1.2639   1.2657   1.2678   1.2702   1.2708   1.2752
  1.2785   1.2787   1.2800   1.2833   1.2844   1.2856   1.2894   1.2911
  1.2939   1.2962   1.2975   1.2980   1.3013   1.3048   1.3073   1.3084
  1.3125   1.3138   1.3180   1.3195   1.3210   1.3216   1.3249   1.3254
  1.3268   1.3302   1.3307   1.3348   1.3370   1.3383   1.3413   1.3424
  1.3447   1.3450   1.3494   1.3517   1.3524   1.3544   1.3549   1.3565
  1.3607   1.3633   1.3636   1.3649   1.3695   1.3714   1.3723   1.3743
  1.3752   1.3763   1.3786   1.3808   1.3821   1.3838   1.3844   1.3869
  1.3885   1.3912   1.3914   1.3924   1.3931   1.3936   1.3976   1.3978
  1.3998   1.4007   1.4013   1.4038   1.4059   1.4060   1.4078   1.4096
  1.4119   1.4131   1.4137   1.4164   1.4173   1.4198   1.4207   1.4217
  1.4237   1.4258   1.4267   1.4277   1.4303   1.4325   1.4332   1.4348
  1.4356   1.4365   1.4380   1.4396   1.4405   1.4421   1.4439   1.4460
  1.4470   1.4501   1.4508   1.4518   1.4537   1.4546   1.4566   1.4582
  1.4588   1.4626   1.4638   1.4656   1.4672   1.4689   1.4712   1.4718
  1.4733   1.4740   1.4765   1.4789   1.4799   1.4812   1.4839   1.4873
  1.4886   1.4896   1.4907   1.4926   1.4958   1.4980   1.5005   1.5020
  1.5034   1.5069   1.5073   1.5125   1.5130   1.5177   1.5192   1.5235
  1.5279   1.5284   1.5291   1.5307   1.5356   1.5364   1.5380   1.5385
  1.5412   1.5437   1.5479   1.5487   1.5524   1.5561   1.5585   1.5612
  1.5655   1.5686   1.5692   1.5711   1.5749   1.5772   1.5820   1.5834
  1.5880   1.5918   1.5949   1.6001   1.6012   1.6055   1.6073   1.6090
  1.6129   1.6163   1.6184   1.6212   1.6274   1.6351   1.6361   1.6392
  1.6416   1.6456   1.6475   1.6514   1.6528   1.6562   1.6574   1.6597
  1.6644   1.6657   1.6678   1.6682   1.6699   1.6715   1.6743   1.6764
  1.6773   1.6795   1.6806   1.6813   1.6830   1.6841   1.6851   1.6860
  1.6880   1.6892   1.6914   1.6929   1.6947   1.6963   1.6974   1.6975
  1.7002   1.7021   1.7040   1.7048   1.7060   1.7069   1.7073   1.7092
  1.7108   1.7120   1.7130   1.7139   1.7156   1.7164   1.7180   1.7197
  1.7205   1.7215   1.7217   1.7226   1.7244   1.7251   1.7275   1.7290
  1.7311   1.7315   1.7323   1.7343   1.7377   1.7383   1.7405   1.7433
  1.7441   1.7469   1.7471   1.7491   1.7502   1.7527   1.7535   1.7558
  1.7577   1.7579   1.7593   1.7607   1.7612   1.7628   1.7660   1.7668
  1.7696   1.7719   1.7729   1.7752   1.7756   1.7760   1.7775   1.7791
  1.7801   1.7825   1.7838   1.7849   1.7865   1.7872   1.7879   1.7909
  1.7922   1.7937   1.7958   1.7970   1.8006   1.8024   1.8038   1.8042
  1.8058   1.8087   1.8101   1.8113   1.8151   1.8178   1.8220   1.8281
  1.8303   1.8317   1.8336   1.8366   1.8386   1.8440   1.8491   1.8513
  1.8525   1.8543   1.8583   1.8611   1.8625   1.8636   1.8669   1.8672
  1.8696   1.8726   1.8732   1.8749   1.8763   1.8779   1.8791   1.8809
  1.8812   1.8832   1.8838   1.8857   1.8878   1.8894   1.8911   1.8928
  1.8963   1.8974   1.8983   1.8989   1.9012   1.9017   1.9033   1.9044
  1.9052   1.9071   1.9090   1.9099   1.9107   1.9127   1.9132   1.9148
  1.9153   1.9169   1.9192   1.9207   1.9216   1.9227   1.9233   1.9258
  1.9261   1.9297   1.9307   1.9326   1.9330   1.9351   1.9369   1.9387
  1.9401   1.9419   1.9427   1.9471   1.9478   1.9487   1.9519   1.9561
  1.9570   1.9587   1.9625   1.9655   1.9673   1.9697   1.9708   1.9716
  1.9727   1.9750   1.9786   1.9849   1.9899   2.0020   2.0083   2.0113
  2.0235   2.0257   2.0267   2.0288   2.0326   2.0343   2.0372   2.0399
  2.0473   2.0498   2.0525   2.0549   2.0556   2.0582   2.0630   2.0653
  2.0671   2.0678   2.0704   2.0719   2.0735   2.0760   2.0764   2.0783
  2.0799   2.0827   2.0834   2.0851   2.0853   2.0863   2.0868   2.0895
  2.0913   2.0918   2.0963   2.1015   2.1021   2.1042   2.1053   2.1060
  2.1094   2.1104   2.1108   2.1132   2.1140   2.1148   2.1179   2.1195
  2.1205   2.1224   2.1242   2.1263   2.1273   2.1292   2.1308   2.1318
  2.1339   2.1356   2.1420   2.1436   2.1452   2.1476   2.1506   2.1554
  2.1566   2.1598   2.1674   2.1790   2.1829   2.1851   2.1866   2.1942
  2.2007   2.2012   2.2024   2.2046   2.2080   2.2091   2.2111   2.2134
  2.2142   2.2157   2.2170   2.2176   2.2183   2.2203   2.2215   2.2227
  2.2231   2.2246   2.2252   2.2272   2.2292   2.2307   2.2313   2.2321
  2.2346   2.2353   2.2363   2.2373   2.2385   2.2396   2.2413   2.2422
  2.2430   2.2433   2.2444   2.2463   2.2478   2.2479   2.2501   2.2536
  2.2549   2.2556   2.2562   2.2576   2.2582   2.2604   2.2615   2.2623
  2.2632   2.2634   2.2648   2.2665   2.2673   2.2682   2.2695   2.2702
  2.2726   2.2730   2.2737   2.2753   2.2762   2.2767   2.2778   2.2790
  2.2801   2.2806   2.2810   2.2816   2.2823   2.2830   2.2841   2.2848
  2.2868   2.2871   2.2883   2.2912   2.2916   2.2921   2.2933   2.2934
  2.2948   2.2955   2.2967   2.2973   2.2986   2.2995   2.3011   2.3026
  2.3039   2.3051   2.3065   2.3069   2.3096   2.3116   2.3129   2.3137
  2.3145   2.3162   2.3176   2.3192   2.3201   2.3209   2.3229   2.3247
  2.3258   2.3272   2.3275   2.3285   2.3294   2.3303   2.3326   2.3328
  2.3339   2.3368   2.3391   2.3412   2.3421   2.3434   2.3450   2.3459
  2.3485   2.3496   2.3520   2.3534   2.3536   2.3559   2.3581   2.3599
  2.3603   2.3616   2.3637   2.3656   2.3658   2.3677   2.3689   2.3717
  2.3727   2.3747   2.3783   2.3796   2.3821   2.3829   2.3871   2.3896
  2.3916   2.3928   2.3968   2.3994   2.4029   2.4038   2.4116   2.4171
  2.4218   2.4299   2.4806   2.4916   2.5100   2.5322   2.5658   2.5825
  2.6493   2.7267   2.7637   2.7966   2.8035   2.8072   2.8118   2.8202
  2.8233   2.8306   2.8365   2.8384   2.8421   2.8456   2.8484   2.8494
  2.8562   2.8586   2.8588   2.8611   2.8624   2.8651   2.8671   2.8712
  2.8796   2.8803   2.8823   2.8855   2.8860   2.8888   2.8901   2.8937
  2.9038   2.9083   2.9590   3.1167   3.2333   3.9344   3.9544   3.9595
  3.9620   3.9668   3.9715   3.9810   3.9822   3.9834   3.9848   3.9878
  3.9902   3.9932   3.9962   3.9987   3.9991   3.9995   4.0019   4.0069
  4.0087   4.0110   4.0136   4.0166   4.0248   4.0396   4.0491   4.2004
  4.2158   4.2213   4.2261   4.2283   4.2344   4.2409   4.2436   4.2461
  4.2574   4.2614   4.2652   4.2664   4.2719   4.2735   4.2744   4.2780
  4.2800   4.2821   4.2846   4.2865   4.2902   4.2926   4.2952   4.2977
  4.2992   4.3006   4.3013   4.3055   4.3078   4.3106   4.3108   4.3145
  4.3175   4.3191   4.3209   4.3266   4.3276   4.3304   4.3321   4.3358
  4.3381   4.3429   4.3484   4.3502   4.3549   4.3567   4.3635   4.3644
  4.3654   4.3682   4.3712   4.3764   4.3799   4.3839   4.3842   4.3881
  4.3940   4.3968   4.4022   4.4068   4.4101   4.4154   4.4238   4.4292
  4.4299   4.4344   4.4422   4.4478   4.4515   4.4587   4.4589   4.4684
  4.4875   4.4959   4.5077   4.5349   4.5525   4.5712   4.6107   4.6169
  4.6676   4.6909   4.7044   4.7158   4.7819   4.9567
 --------------------------------------------------------------
 
          Ground-State Mulliken Net Atomic Charges

     Atom                 Charge (a.u.)
  ----------------------------------------
      1 C                    -0.379979
      2 C                    -0.544599
      3 C                    -0.189870
      4 C                    -0.393230
      5 C                    -0.403966
      6 C                    -0.457337
      7 H                     0.209472
      8 H                     0.245296
      9 H                     0.189137
     10 H                     0.198601
     11 H                     0.184807
     12 H                     0.231314
     13 H                     0.205089
     14 H                     0.189289
     15 H                     0.226382
     16 H                     0.210363
     17 H                     0.198811
     18 N                    -0.444004
     19 H                     0.493353
     20 C                     0.375757
     21 H                     0.185536
     22 O                    -0.530223
     23 C                    -0.783828
     24 H                     0.308246
     25 H                     0.271176
     26 H                     0.229545
     27 S                     0.684838
     28 C                    -0.851772
     29 H                     0.237383
     30 H                     0.250419
     31 H                     0.261225
     32 O                    -0.616493
     33 C                    -0.921190
     34 H                     0.238910
     35 H                     0.273604
     36 H                     0.261335
     37 S                     0.875683
     38 C                    -0.764015
     39 H                     0.278450
     40 H                     0.257675
     41 H                     0.240815
     42 O                    -0.699867
     43 C                    -0.825709
     44 H                     0.242775
     45 H                     0.238769
     46 H                     0.288288
     47 S                     0.838095
     48 C                    -0.965172
     49 H                     0.266384
     50 H                     0.261942
     51 H                     0.241198
     52 O                    -0.663629
     53 C                    -0.803758
     54 H                     0.307755
     55 H                     0.242638
     56 H                     0.245816
     57 S                     0.781478
     58 C                    -0.812356
     59 H                     0.268757
     60 H                     0.265045
     61 H                     0.298027
     62 O                    -0.760767
     63 C                    -1.065001
     64 H                     0.260671
     65 H                     0.245124
     66 H                     0.311096
     67 S                     1.210219
     68 C                    -1.207642
     69 H                     0.248878
     70 H                     0.316920
     71 H                     0.265389
     72 O                    -0.714360
     73 C                    -1.183159
     74 H                     0.315588
     75 H                     0.277189
     76 H                     0.273715
     77 S                     1.236407
     78 C                    -1.059654
     79 H                     0.274747
     80 H                     0.260898
     81 H                     0.237017
     82 O                    -0.712890
     83 C                    -0.776791
     84 H                     0.239375
     85 H                     0.260382
     86 H                     0.252665
     87 S                     0.802349
     88 C                    -0.891333
     89 H                     0.227735
     90 H                     0.273760
     91 H                     0.267381
     92 O                    -0.663277
     93 C                    -0.923035
     94 H                     0.262850
     95 H                     0.307010
     96 H                     0.251520
     97 S                     1.090507
     98 C                    -1.163675
     99 H                     0.250728
    100 H                     0.259916
    101 H                     0.247662
    102 O                    -0.694385
    103 C                    -0.898624
    104 H                     0.238682
    105 H                     0.265198
    106 H                     0.280470
    107 S                     0.825611
    108 C                    -0.791455
    109 H                     0.235581
    110 H                     0.244899
    111 H                     0.275351
    112 O                    -0.681665
    113 C                    -0.863008
    114 H                     0.267179
    115 H                     0.240863
    116 H                     0.239486
    117 S                     0.856430
    118 C                    -0.873983
    119 H                     0.256643
    120 H                     0.266575
    121 H                     0.254519
    122 O                    -0.617824
    123 C                    -0.905232
    124 H                     0.257820
    125 H                     0.288023
    126 H                     0.259435
    127 S                     0.914571
    128 C                    -0.784512
    129 H                     0.262903
    130 H                     0.202927
    131 H                     0.281644
    132 O                    -0.774447
    133 C                    -0.857564
    134 H                     0.270591
    135 H                     0.238913
    136 H                     0.272853
    137 S                     0.981339
    138 C                    -0.917113
    139 H                     0.250166
    140 H                     0.279509
    141 H                     0.244747
    142 O                    -0.704454
    143 C                    -0.757092
    144 H                     0.211194
    145 H                     0.265055
    146 H                     0.246721
    147 S                     0.976706
    148 C                    -0.926938
    149 H                     0.257801
    150 H                     0.207281
    151 H                     0.259874
    152 O                    -0.677333
    153 C                    -0.911827
    154 H                     0.286119
    155 H                     0.291157
    156 H                     0.234069
    157 S                     0.965739
    158 C                    -0.959904
    159 H                     0.239726
    160 H                     0.261374
    161 H                     0.226074
    162 O                    -0.668548
    163 C                    -0.768646
    164 H                     0.283486
    165 H                     0.266537
    166 H                     0.211535
    167 S                     0.925043
    168 C                    -0.964476
    169 H                     0.274565
    170 H                     0.272619
    171 H                     0.226569
    172 O                    -0.705101
    173 C                    -0.809169
    174 H                     0.243723
    175 H                     0.235888
    176 H                     0.261138
    177 S                     0.978314
    178 C                    -0.827881
    179 H                     0.261662
    180 H                     0.270265
    181 H                     0.240708
    182 O                    -0.754250
    183 C                    -0.868939
    184 H                     0.249923
    185 H                     0.244703
    186 H                     0.250012
    187 S                     1.140054
    188 C                    -1.032979
    189 H                     0.251028
    190 H                     0.253380
    191 H                     0.273944
    192 O                    -0.764357
    193 C                    -0.960078
    194 H                     0.261431
    195 H                     0.273966
    196 H                     0.214926
    197 S                     1.100426
    198 C                    -0.931142
    199 H                     0.305322
    200 H                     0.244717
    201 H                     0.248701
    202 O                    -0.689522
    203 C                    -0.828764
    204 H                     0.229197
    205 H                     0.285654
    206 H                     0.278630
    207 S                     0.822286
    208 C                    -0.842550
    209 H                     0.229094
    210 H                     0.289458
    211 H                     0.274665
    212 O                    -0.726593
    213 C                    -0.780765
    214 H                     0.250522
    215 H                     0.259750
    216 H                     0.282214
    217 S                     0.802219
    218 C                    -0.870406
    219 H                     0.313107
    220 H                     0.208452
    221 H                     0.269693
    222 O                    -0.634693
    223 C                    -0.801756
    224 H                     0.234131
    225 H                     0.248122
    226 H                     0.245453
    227 S                     0.801233
    228 C                    -0.735326
    229 H                     0.260814
    230 H                     0.241787
    231 H                     0.274864
    232 O                    -0.770061
    233 C                    -0.919185
    234 H                     0.223255
    235 H                     0.252743
    236 H                     0.300937
    237 S                     1.036866
    238 C                    -0.948476
    239 H                     0.226959
    240 H                     0.257752
    241 H                     0.257646
    242 O                    -0.725256
    243 C                    -1.101102
    244 H                     0.249758
    245 H                     0.278640
    246 H                     0.242834
    247 S                     1.372451
    248 C                    -1.128468
    249 H                     0.239257
    250 H                     0.255624
    251 H                     0.310944
    252 O                    -0.709952
    253 C                    -1.081158
    254 H                     0.248113
    255 H                     0.250205
    256 H                     0.313585
    257 S                     0.877083
    258 C                    -0.814728
    259 H                     0.255729
    260 H                     0.255910
    261 H                     0.250171
    262 O                    -0.668270
    263 C                    -0.797601
    264 H                     0.289352
    265 H                     0.244571
    266 H                     0.233677
    267 S                     0.775183
    268 C                    -0.853902
    269 H                     0.244406
    270 H                     0.244959
    271 H                     0.249887
    272 O                    -0.604381
    273 C                    -1.130039
    274 H                     0.246663
    275 H                     0.266335
    276 H                     0.215674
    277 S                     1.268771
    278 C                    -0.859543
    279 H                     0.255114
    280 H                     0.226193
    281 H                     0.275924
    282 O                    -0.720098
  ----------------------------------------
  Sum of atomic charges =     0.000000

 -----------------------------------------------------------------
                    Cartesian Multipole Moments
 -----------------------------------------------------------------
    Charge (ESU x 10^10)
                 0.0000
    Dipole Moment (Debye)
         X      -0.1969      Y      30.9706      Z      -7.2714
       Tot      31.8134
    Quadrupole Moments (Debye-Ang)
        XX    -639.9837     XY     802.3420     YY      55.7782
        XZ    -162.2751     YZ     812.8103     ZZ   -1660.8580
    Octopole Moments (Debye-Ang^2)
       XXX  -46411.3270    XXY   10439.4084    XYY    2245.6521
       YYY  -19616.8457    XXZ  -22989.2003    XYZ   21592.5723
       YYZ   -1532.8623    XZZ  -39099.8740    YZZ     922.5417
       ZZZ -133507.2410
    Hexadecapole Moments (Debye-Ang^3)
      XXXX ************   XXXY -217716.0239   XXYY -121200.7342
      XYYY -475870.5650   YYYY -957337.7170   XXXZ ************
      XXYZ  255712.0903   XYYZ   -5826.9329   YYYZ -676994.0664
      XXZZ ************   XYZZ   89955.1815   YYZZ -506627.5246
      XZZZ ************   YZZZ ************   ZZZZ ************
 -----------------------------------------------------------------
Archival summary:
[...]
    2   0.0172144  -0.0132954  -0.0240234   0.0059815   0.0024251   0.0220714
    3  -0.0182108  -0.0220970   0.0352479   0.0089933  -0.0153124   0.0051283
          121         122         123         124         125         126
    1   0.0071335   0.0651774  -0.0067260  -0.0301891   0.0052078   0.0006660
    2  -0.0016099  -0.0577486   0.0062908   0.0051111   0.0224659  -0.0251715
    3   0.0429420  -0.0659414  -0.0084183   0.0083189  -0.0255579  -0.0190591
          127         128         129         130         131         132
    1   0.0242611   0.0034622  -0.0193011   0.0264524   0.0184139  -0.0638705
    2   0.0403399  -0.0054907  -0.0199509   0.0061042  -0.0193905  -0.0622952
    3   0.0104984  -0.0000459  -0.0071304  -0.0225780   0.0162348   0.0628960
          133         134         135         136         137         138
    1   0.0074804   0.0165811   0.0189726   0.0181543  -0.0165478  -0.0010766
    2  -0.0036452   0.0002174   0.0205285  -0.0247924   0.0547135  -0.0032515
    3  -0.0029572  -0.0282988   0.0186381   0.0124662  -0.0169480   0.0074994
          139         140         141         142         143         144
    1  -0.0319301   0.0027343   0.0264194  -0.0397361   0.0029049   0.0342440
    2   0.0087744  -0.0270084   0.0030659  -0.0915854   0.0012456   0.0075929
    3   0.0030555   0.0116400   0.0274126  -0.0461600  -0.0037614   0.0121303
          145         146         147         148         149         150
    1   0.0088874  -0.0078168  -0.0216957   0.0031115   0.0136835   0.0305168
    2  -0.0142836   0.0233353   0.0285297  -0.0058069  -0.0105381  -0.0047518
    3  -0.0262220  -0.0178489   0.0406053  -0.0004956  -0.0274004   0.0262859
          151         152         153         154         155         156
    1  -0.0173923  -0.0579726  -0.0022520  -0.0039842  -0.0293142   0.0279516
    2  -0.0172436  -0.0411984   0.0020990  -0.0045498   0.0216554  -0.0041875
    3   0.0163203  -0.0860854   0.0001619  -0.0309771   0.0105158   0.0227743
          157         158         159         160         161         162
    1  -0.0545162  -0.0021113  -0.0277122   0.0087989   0.0192402   0.0862225
    2  -0.0162942   0.0008189   0.0218690  -0.0300176   0.0182163  -0.0691235
    3  -0.0196197   0.0069253   0.0163249   0.0091153   0.0168039  -0.0065184
          163         164         165         166         167         168
    1  -0.0079989  -0.0273765  -0.0088160  -0.0094043   0.0333543  -0.0016407
    2  -0.0056746  -0.0168281  -0.0022543   0.0306674   0.0395258  -0.0010502
    3   0.0038065  -0.0023702   0.0329406   0.0071715  -0.0000966  -0.0086838
          169         170         171         172         173         174
    1  -0.0194751  -0.0167168   0.0224761   0.0280038   0.0053948  -0.0019268
    2  -0.0257348   0.0269257  -0.0105119  -0.1045097  -0.0020183   0.0194021
    3   0.0084433  -0.0138153  -0.0221387   0.0273665  -0.0075571  -0.0216603
          175         176         177         178         179         180
    1   0.0375688  -0.0249075   0.0321746  -0.0017044  -0.0058556  -0.0128746
    2  -0.0035639  -0.0217436   0.0325733  -0.0080477   0.0039736  -0.0175718
    3  -0.0064868  -0.0024319   0.0184563   0.0046415   0.0371830  -0.0279296
          181         182         183         184         185         186
    1   0.0280102  -0.1061457  -0.0091837  -0.0009722  -0.0259056  -0.0097891
    2  -0.0129671   0.0156831  -0.0010690   0.0319403  -0.0014544  -0.0214624
    3   0.0144322  -0.0233362   0.0016223   0.0103360  -0.0212030   0.0175004
          187         188         189         190         191         192
    1   0.0439767  -0.0007578  -0.0215440   0.0226504   0.0013357  -0.0172879
    2   0.0161099   0.0041662   0.0204551   0.0244961  -0.0177912  -0.1034616
    3   0.0418684  -0.0060676  -0.0134985  -0.0006210  -0.0251924  -0.0293374
          193         194         195         196         197         198
    1  -0.0075799  -0.0151255   0.0006846  -0.0130191   0.0304551  -0.0030241
    2   0.0039781  -0.0267406   0.0265016   0.0056369   0.0148398   0.0025748
    3   0.0012475   0.0040050   0.0222706  -0.0294519   0.0485788  -0.0130043
          199         200         201         202         203         204
    1   0.0229061  -0.0184376   0.0115624  -0.0205996   0.0080850  -0.0016272
    2  -0.0050578   0.0029051   0.0290637  -0.1033554  -0.0010811   0.0013801
    3  -0.0144780  -0.0338165   0.0061583  -0.0312449  -0.0071351  -0.0340648
          205         206         207         208         209         210
    1   0.0188221   0.0022451  -0.0472629   0.0065641  -0.0291026   0.0344232
    2   0.0276716  -0.0272202  -0.0257659   0.0112154   0.0033835   0.0116193
    3   0.0045994   0.0121102  -0.0193040  -0.0009630   0.0206943   0.0014688
          211         212         213         214         215         216
    1  -0.0003772   0.0487262   0.0029745   0.0341302  -0.0186640  -0.0000982
    2   0.0059937  -0.0351544   0.0050514  -0.0050212   0.0057220   0.0339152
    3  -0.0336606   0.0927605  -0.0058431  -0.0004850  -0.0287106  -0.0103195
          217         218         219         220         221         222
    1   0.0375007  -0.0024158  -0.0165627   0.0279178  -0.0062704  -0.1047221
    2   0.0136017  -0.0045896  -0.0025451  -0.0218921  -0.0112116   0.0372257
    3   0.0481579   0.0014051  -0.0166516  -0.0047377   0.0305912   0.0040038
          223         224         225         226         227         228
    1  -0.0018669   0.0240871  -0.0026411  -0.0243166  -0.0494484   0.0052780
    2  -0.0013634  -0.0074966   0.0293512  -0.0106356  -0.0004152  -0.0092611
    3   0.0057534   0.0176477   0.0008206   0.0201370  -0.0208339   0.0017743
          229         230         231         232         233         234
    1   0.0320444  -0.0201255   0.0104468   0.0824544  -0.0045881   0.0122978
    2   0.0006636  -0.0157631  -0.0161140   0.0640719   0.0087624   0.0187022
    3  -0.0009365   0.0249861  -0.0280739  -0.0324171  -0.0028669   0.0225489
          235         236         237         238         239         240
    1   0.0115945  -0.0340083  -0.0254153  -0.0005619  -0.0301787   0.0054412
    2   0.0065966  -0.0032066  -0.0419141   0.0045702  -0.0091701  -0.0207902
    3  -0.0299528  -0.0084485  -0.0324010   0.0080096   0.0007844   0.0241644
          241         242         243         244         245         246
    1   0.0128485   0.1074128   0.0092562   0.0087348   0.0002013   0.0137796
    2   0.0196337   0.0152685  -0.0004189   0.0037650  -0.0164681   0.0271560
    3   0.0257405   0.0103911  -0.0017437   0.0313509  -0.0313096  -0.0058978
          247         248         249         250         251         252
    1  -0.0239367  -0.0010277   0.0126283  -0.0302982   0.0043989  -0.0250285
    2   0.0416870  -0.0071545   0.0112263  -0.0183172  -0.0278851  -0.0484647
    3   0.0197416   0.0034841   0.0282908   0.0015562  -0.0179518  -0.0965549
          253         254         255         256         257         258
    1   0.0039870  -0.0102585  -0.0027480   0.0340000   0.0226833  -0.0046880
    2  -0.0053713  -0.0284729   0.0160772  -0.0023449  -0.0335366   0.0027046
    3  -0.0066249  -0.0014975  -0.0250684  -0.0062241   0.0411891  -0.0007441
          259         260         261         262         263         264
    1  -0.0121667  -0.0002793  -0.0175302   0.0713852   0.0023380  -0.0049271
    2   0.0178934   0.0182920  -0.0233768   0.0835608  -0.0051421  -0.0261737
    3   0.0236543  -0.0303496   0.0171841  -0.0465932  -0.0079301  -0.0270775
          265         266         267         268         269         270
    1  -0.0194659   0.0291833  -0.0142695   0.0069399   0.0026958   0.0242871
    2   0.0116578   0.0112566   0.0589660  -0.0048457  -0.0292560   0.0208038
    3  -0.0216086  -0.0087820   0.0203173   0.0015061  -0.0068136  -0.0080405
          271         272         273         274         275         276
    1  -0.0007875  -0.0738966  -0.0064974  -0.0045911   0.0171502  -0.0246065
    2   0.0075818  -0.0816274  -0.0028570   0.0117818  -0.0264240  -0.0037705
    3   0.0301788   0.0036250  -0.0041227  -0.0309837  -0.0001195   0.0242742
          277         278         279         280         281         282
    1   0.0132066  -0.0036624   0.0084680  -0.0257382   0.0206986   0.0692263
    2  -0.0019585   0.0083068  -0.0033717   0.0130485   0.0210281  -0.0237126
    3   0.0522960  -0.0024671  -0.0344190   0.0248472   0.0095198  -0.0829194
  --- DONE ESP SUMMARY ---
Archival summary:
1\1\n0064.mhg0\SP\ProcedureUnspecified\6-31+G*\262652h22\ymao\FriMar1214:01:072021FriMar1214:01:072021\0\\#,ProcedureUnspecified,6-31+G*,\\0,1\S\O,1,1.49666\C,1,1.80666,2,97.084\H,3,1.09269,1,108.044,2,-88.9681,0\H,3,1.09269,1,102.519,2,154.591,0\H,3,1.09318,1,109.428,2,45.6894,0\C,1,1.80693,2,101.85,3,94.0502,0\H,7,1.09249,1,108.019,2,165.868,0\H,7,1.0931,1,105.134,2,49.3338,0\H,7,1.09372,1,113.713,2,-59.0731,0\H,9,2.25198,7,159.092,1,80.7123,0\C,11,1.09247,9,157.008,7,-163.088,0\H,12,1.09309,11,105.854,9,112.642,0\H,12,1.09323,11,111.091,9,-10.9698,0\S,12,1.80677,11,110.757,9,-136.131,0\O,15,1.49699,12,101.535,11,168.518,0\C,15,1.80626,12,95.7514,11,63.5538,0\H,17,1.09271,15,109.476,12,90.2921,0\H,17,1.09334,15,113.569,12,-26.2523,0\H,17,1.09362,15,108.499,12,-151.216,0\H,19,2.13131,17,129.933,15,88.3349,0\C,21,1.09314,19,174.276,17,164.661,0\H,22,1.09289,21,114.421,19,-138.062,0\H,22,1.09358,21,106.88,19,-9.07114,0\S,22,1.80683,21,106.789,19,103.742,0\O,25,1.49707,22,100.107,21,81.5828,0\C,25,1.8067,22,95.0854,21,-174.435,0\H,27,1.09304,25,100.346,22,65.434,0\H,27,1.09337,25,111.135,22,-55.1819,0\H,27,1.09338,25,110.978,22,-174.142,0\H,4,2.29061,3,143.87,1,-92.1321,0\C,31,1.09326,4,131.567,3,88.4042,0\H,32,1.09309,31,114.906,4,12.6536,0\H,32,1.0936,31,112.09,4,135.697,0\S,32,1.80626,31,105,4,-104.371,0\O,35,1.49714,32,103.728,31,163.46,0\C,35,1.80734,32,98.2045,31,51.2105,0\H,37,1.09262,35,106.867,32,177.899,0\H,37,1.09274,35,108.511,32,-64.7741,0\H,37,1.09326,35,106.216,32,50.438,0\H,33,2.17261,32,101.589,31,74.4261,0\C,41,1.09285,33,115.093,32,151.152,0\H,42,1.09285,41,112.82,33,-28.6132,0\H,42,1.09321,41,103.541,33,86.4637,0\S,42,1.8063,41,117.807,33,-159.777,0\O,45,1.49671,42,105.817,41,-38.3383,0\C,45,1.80702,42,97.1787,41,65.1494,0\H,47,1.09302,45,103.478,42,88.3585,0\H,47,1.09327,45,105.011,42,-33.2564,0\H,47,1.0933,45,113.834,42,-157.308,0\H,8,2.31561,7,140.425,1,138.769,0\C,51,1.09269,8,117.991,7,63.6806,0\H,52,1.09263,51,107.808,8,-171.336,0\H,52,1.0932,51,104.645,8,-46.5981,0\S,52,1.80806,51,107.009,8,60.0073,0\O,55,1.49755,52,106.228,51,-71.1411,0\C,55,1.80667,52,96.5858,51,-176.946,0\H,57,1.09228,55,107.886,52,125.786,0\H,57,1.09332,55,109.793,52,9.2453,0\H,57,1.09362,55,113.873,52,-116.673,0\H,60,2.16034,57,107.134,55,55.6962,0\C,61,1.09312,60,134.646,57,-161.473,0\H,62,1.09257,61,107.874,60,166.693,0\H,62,1.09307,61,105.62,60,-75.0604,0\S,62,1.80706,61,111.85,60,43.185,0\O,65,1.49656,62,111.157,61,35.1628,0\C,65,1.80711,62,97.3971,61,-71.2877,0\H,67,1.09234,65,101.298,62,80.7626,0\H,67,1.09261,65,113.358,62,-37.6068,0\H,67,1.0938,65,106.172,62,-157.371,0\H,51,2.27828,8,104.42,7,-157.982,0\C,71,1.09303,51,110.405,8,159.619,0\H,72,1.09337,71,110.148,51,54.3014,0\H,72,1.09349,71,110.972,51,-72.8706,0\S,72,1.80685,71,109.406,51,169.308,0\O,75,1.49724,72,98.6829,71,56.0921,0\C,75,1.80662,72,92.8731,71,-47.554,0\H,77,1.09254,75,107.888,72,-101.282,0\H,77,1.09268,75,103.642,72,151.46,0\H,77,1.09334,75,118.073,72,31.1259,0\Gh,80,2.17843,77,140.364,75,146.452,0\Gh,81,1.09795,80,136.14,77,-102.694,0\Gh,82,1.09681,81,107.907,80,162.895,0\Gh,82,1.53709,81,111.007,80,42.2949,0\Gh,84,1.09611,82,108.62,81,60.717,0\Gh,84,1.09679,82,110.457,81,-46.6955,0\Gh,82,1.53727,81,107.542,80,-78.3434,0\Gh,87,1.09662,82,117.472,81,49.3032,0\Gh,87,1.09692,82,108.766,81,-68.0191,0\Gh,87,1.53758,82,111.745,81,173.212,0\Gh,90,1.09653,87,112.376,82,-162.37,0\Gh,90,1.09686,87,116.876,82,72.8695,0\Gh,90,1.53757,87,114.042,82,-54.1097,0\Gh,93,1.09589,90,108.057,87,-66.7926,0\Gh,93,1.46195,90,110.341,87,171.844,0\Gh,95,1.01277,93,123.117,90,-91.4546,0\Gh,95,1.37863,93,124.271,90,91.0652,0\Gh,97,1.10516,95,113.142,93,178.98,0\Gh,97,1.21869,95,114.401,93,11.5722,0\Gh,93,1.53748,90,111.594,87,52.2183,0\Gh,100,1.09697,93,98.8703,90,-174.64,0\Gh,100,1.09706,93,110.18,90,69.9096,0\O,96,1.8304,95,153.936,93,-112.082,0\S,103,1.49787,96,119.306,95,-61.2101,0\C,104,1.80691,103,96.5335,96,-78.8839,0\H,105,1.0928,104,110.031,103,69.8527,0\H,105,1.09299,104,104.728,103,-53.6072,0\H,105,1.09346,104,110.213,103,-175.24,0\C,104,1.80734,103,106.323,96,-176.365,0\H,109,1.09237,104,116.342,103,48.0138,0\H,109,1.09311,104,107.895,103,165.58,0\H,109,1.09314,104,103.679,103,-72.4247,0\H,101,2.21051,100,118.932,93,174.487,0\C,113,1.09293,101,141.196,100,57.9921,0\H,114,1.09216,113,114.552,101,-132.214,0\H,114,1.09273,113,111.56,101,-19.1946,0\S,114,1.80697,113,107.552,101,101.808,0\O,117,1.49707,114,99.5154,113,68.1016,0\C,117,1.8072,114,93.6921,113,175.403,0\H,119,1.0926,117,113.296,114,65.398,0\H,119,1.0929,117,102.79,114,-52.2339,0\H,119,1.09353,117,104.975,114,-168.278,0\H,120,2.07395,119,111.364,117,-162.879,0\C,123,1.09285,120,128.771,119,112.269,0\H,124,1.09261,123,105.997,120,-135.848,0\H,124,1.09309,123,107.374,120,101.643,0\S,124,1.80704,123,108.005,120,-9.97146,0\O,127,1.4973,124,99.8854,123,50.7903,0\C,127,1.80635,124,94.8251,123,162.686,0\H,129,1.09297,127,104.317,124,118.896,0\H,129,1.09331,127,104.873,124,1.42127,0\H,129,1.09348,127,111.692,124,-122.045,0\H,102,2.23814,100,147.924,93,-100.335,0\C,133,1.09214,102,114.736,100,-90.9801,0\H,134,1.09301,133,107.586,102,0.224935,0\H,134,1.09329,133,107.65,102,119.554,0\S,134,1.80682,133,109.658,102,-120.379,0\O,137,1.49686,134,102.842,133,-40.2455,0\C,137,1.80717,134,99.5164,133,68.6811,0\H,139,1.09272,137,105.552,134,-74.4016,0\H,139,1.09336,137,105.505,134,42.2322,0\H,139,1.09337,137,104.852,134,167.851,0\H,136,2.03883,134,117.778,133,54.8831,0\C,143,1.09305,136,114.527,134,-152.809,0\H,144,1.09301,143,115.602,136,-60.8092,0\H,144,1.09307,143,113.205,136,67.4245,0\S,144,1.80637,143,106.32,136,-178.191,0\O,147,1.49779,144,95.9129,143,174.903,0\C,147,1.80625,144,95.6008,143,-79.4154,0\H,149,1.09271,147,110.274,144,168.808,0\H,149,1.09282,147,112.653,144,53.9094,0\H,149,1.09387,147,109.102,144,-63.3818,0\H,146,2.1905,144,145.346,143,169.945,0\C,153,1.09314,146,177.531,144,139.86,0\H,154,1.09267,153,117.299,146,59.3886,0\H,154,1.09342,153,104.252,146,-66.7371,0\S,154,1.80687,153,114.817,146,-178.043,0\O,157,1.49747,154,101.803,153,171.42,0\C,157,1.80728,154,99.3839,153,70.0173,0\H,159,1.09274,157,116.546,154,-72.0148,0\H,159,1.09286,157,102.84,154,162.336,0\H,159,1.09302,157,107.894,154,51.8947,0\H,96,2.25172,95,115.242,93,78.8762,0\C,163,1.09279,96,154.962,95,-105.827,0\H,164,1.09282,163,108.399,96,89.2567,0\H,164,1.09315,163,112.934,96,-29.7801,0\S,164,1.80706,163,103.513,96,-151.112,0\O,167,1.49708,164,112.823,163,-97.9314,0\C,167,1.80724,164,91.2603,163,157.319,0\H,169,1.09239,167,106.745,164,-59.7804,0\H,169,1.09302,167,108.324,164,179.133,0\H,169,1.0933,167,105.288,164,60.4025,0\O,78,2.27859,77,125.297,75,-112.956,0\S,173,1.49753,78,126.106,77,-56.0672,0\C,174,1.80651,173,107.852,78,-109.947,0\H,175,1.09292,174,102.229,173,-65.4746,0\H,175,1.093,174,113.43,173,48.7277,0\H,175,1.0931,174,113.481,173,171.487,0\C,174,1.8069,173,109.832,78,-8.66908,0\H,179,1.09281,174,111.702,173,-58.0473,0\H,179,1.09311,174,107.772,173,59.2628,0\H,179,1.09323,174,108.762,173,179.601,0\H,173,2.28305,78,85.0961,77,33.516,0\C,183,1.09328,173,166.188,78,90.9642,0\H,184,1.09264,183,113.404,173,-106.215,0\H,184,1.09304,183,106.525,173,24.3606,0\S,184,1.80651,183,104.353,173,139.877,0\O,187,1.49717,184,106.027,183,69.1444,0\C,187,1.80623,184,101.349,183,177.251,0\H,189,1.093,187,106.826,184,-86.0019,0\H,189,1.09323,187,105.925,184,43.4586,0\H,189,1.09359,187,110.886,184,154.63,0\H,54,2.32093,52,95.1155,51,-77.5588,0\C,193,1.09305,54,126.482,52,118.102,0\H,194,1.09286,193,109.774,54,137.761,0\H,194,1.09396,193,110.8,54,22.9553,0\S,194,1.80632,193,106.351,54,-107.412,0\O,197,1.49704,194,97.7399,193,65.3798,0\C,197,1.80742,194,96.0581,193,167.856,0\H,199,1.09274,197,115.008,194,-54.541,0\H,199,1.09281,197,112.413,194,73.338,0\H,199,1.09306,197,102.984,194,-161.306,0\H,4,2.3295,3,121.329,1,95.5714,0\C,203,1.09274,4,171.527,3,84.4726,0\H,204,1.09277,203,120.226,4,70.1861,0\H,204,1.09308,203,108.49,4,-163.807,0\S,204,1.80683,203,102.653,4,-49.2577,0\O,207,1.49717,204,110.849,203,171.976,0\C,207,1.80652,204,87.4364,203,-83.7603,0\H,209,1.09256,207,115.952,204,-64.423,0\H,209,1.09298,207,107.269,204,60.4223,0\H,209,1.09337,207,108.212,204,175.535,0\H,190,2.36665,189,165,187,32.6215,0\C,213,1.09309,190,102.623,189,39.2337,0\H,214,1.09238,213,105.053,190,174.31,0\H,214,1.09334,213,113.971,190,-66.1696,0\S,214,1.80677,213,108.284,190,51.3785,0\O,217,1.49661,214,108.261,213,46.8294,0\C,217,1.80711,214,96.2083,213,152.082,0\H,219,1.09259,217,107.07,214,2.92073,0\H,219,1.09319,217,112.409,214,-111.539,0\H,219,1.0932,217,110.568,214,125.364,0\H,113,2.38346,101,64.6035,100,174.116,0\C,223,1.09282,113,135.485,101,-48.5967,0\H,224,1.09261,223,111.071,113,-35.8022,0\H,224,1.09351,223,114.788,113,85.0058,0\S,224,1.80722,223,111.9,113,-153.129,0\O,227,1.49765,224,107.589,223,-179.264,0\C,227,1.80644,224,96.0387,223,77.7725,0\H,229,1.09262,227,111.474,224,21.3948,0\H,229,1.0933,227,111.675,224,-96.9138,0\H,229,1.09336,227,107.867,224,146.939,0\H,44,2.41587,42,98.0301,41,179.678,0\C,233,1.09327,44,168.692,42,45.0475,0\H,234,1.09285,233,111.171,44,90.9881,0\H,234,1.09301,233,108.883,44,-30.7639,0\S,234,1.80737,233,111.467,44,-145.997,0\O,237,1.49672,234,105.689,233,68.6975,0\C,237,1.80789,234,90.9975,233,-34.1633,0\H,239,1.09258,237,116.217,234,-54.0622,0\H,239,1.09259,237,103.9,234,-175.739,0\H,239,1.09294,237,98.3964,234,65.4491,0\O,240,2.38855,239,155.277,237,79.8079,0\S,243,1.49714,240,87.732,239,118.348,0\C,244,1.80693,243,101.011,240,-83.006,0\H,245,1.09241,244,104.977,243,-143.911,0\H,245,1.09319,244,106.089,243,95.7548,0\H,245,1.0939,244,107.214,243,-31.8533,0\C,244,1.80715,243,97.0052,240,177.834,0\H,249,1.09201,244,105.907,243,39.8702,0\H,249,1.093,244,113.733,243,-77.7392,0\H,249,1.093,244,107.299,243,153.847,0\O,235,2.39395,234,120.206,233,148.682,0\S,253,1.49736,235,108.741,234,91.482,0\C,254,1.80663,253,100.163,235,141.997,0\H,255,1.09274,254,110.109,253,146.351,0\H,255,1.09284,254,108.123,253,-89.637,0\H,255,1.0931,254,109.186,253,29.8184,0\C,254,1.80715,253,106.291,235,-117.519,0\H,259,1.09225,254,108.704,253,75.8378,0\H,259,1.09282,254,112.079,253,-171.064,0\H,259,1.09315,254,106.535,253,-42.1298,0\H,106,2.49122,105,118.445,104,162.542,0\C,263,1.09247,106,132.609,105,-24.6165,0\H,264,1.09251,263,111.933,106,5.76513,0\H,264,1.09353,263,112.766,106,121.477,0\S,264,1.80705,263,110.003,106,-111.721,0\O,267,1.49731,264,101.797,263,-83.4088,0\C,267,1.80701,264,97.8633,263,179.266,0\H,269,1.09248,267,110.744,264,152.886,0\H,269,1.09263,267,106.396,264,39.4769,0\H,269,1.09328,267,115.93,264,-78.3765,0\H,118,2.49622,117,173.788,114,100.631,0\C,273,1.09274,118,145.919,117,121.181,0\H,274,1.09272,273,113.515,118,144.226,0\H,274,1.0932,273,106.064,118,-102.844,0\S,274,1.80755,273,110.377,118,23.1052,0\O,277,1.49714,274,111.383,273,161.106,0\C,277,1.80647,274,101.545,273,60.2034,0\H,279,1.0925,277,115.833,274,41.5623,0\H,279,1.09255,277,107.38,274,-85.1038,0\H,279,1.0933,277,108.274,274,158.967,0\\\@

 Total job time:  73.40s(wall), 238.83s(cpu) 
 Fri Mar 12 14:01:07 2021

        *************************************************************
        *                                                           *
        *  Thank you very much for using Q-Chem.  Have a nice day.  *
        *                                                           *
        *************************************************************


