                  Welcome to Q-Chem
     A Quantum Leap Into The Future Of Chemistry


 Q-Chem 5.2 (devel), Q-Chem, Inc., Pleasanton, CA (2019)

 Yihan Shao,  Zhengting Gan,  E. Epifanovsky,  A. T. B. Gilbert,  M. Wormit,  
 J. Kussmann,  A. W. Lange,  A. Behn,  Jia Deng,  Xintian Feng,  D. Ghosh,  
 M. Goldey,  P. R. Horn,  L. D. Jacobson,  I. Kaliman,  T. Kus,  A. Landau,  
 Jie Liu,  E. I. Proynov,  R. M. Richard,  R. P. Steele,  E. J. Sundstrom,  
 H. L. Woodcock III,  P. M. Zimmerman,  D. Zuev,  B. Alam,  B. Albrecht,  
 E. Alguire,  S. A. Baeppler,  D. Barton,  Z. Benda,  Y. A. Bernard,  
 E. J. Berquist,  K. B. Bravaya,  H. Burton,  K. Carter-Fenk,  D. Casanova,  
 Chun-Min Chang,  Yunqing Chen,  A. Chien,  K. D. Closser,  M. P. Coons,  
 S. Coriani,  S. Dasgupta,  A. L. Dempwolff,  M. Diedenhofen,  Hainam Do,  
 R. G. Edgar,  Po-Tung Fang,  S. Faraji,  S. Fatehi,  Qingguo Feng,  
 J. Fosso-Tande,  J. Gayvert,  Qinghui Ge,  A. Ghysels,  G. Gidofalvi,  
 J. Gomes,  J. Gonthier,  A. Gunina,  D. Hait,  M. W. D. Hanson-Heine,  
 P. H. P. Harbach,  A. W. Hauser,  M. F. Herbst,  J. E. Herr,  
 E. G. Hohenstein,  Z. C. Holden,  Kerwin Hui,  B. C. Huynh,  T.-C. Jagau,  
 Hyunjun Ji,  B. Kaduk,  K. Khistyaev,  Jaehoon Kim,  P. Klunzinger,  K. Koh,  
 D. Kosenkov,  L. Koulias,  T. Kowalczyk,  C. M. Krauter,  A. Kunitsa,  
 Ka Un Lao,  A. Laurent,  K. V. Lawler,  Joonho Lee,  D. Lefrancois,  
 S. Lehtola,  D. S. Levine,  Yi-Pei Li,  You-Sheng Lin,  Fenglai Liu,  
 Kuan-Yu Liu,  E. Livshits,  M. Loipersberger,  A. Luenser,  P. Manohar,  
 E. Mansoor,  S. F. Manzer,  Shan-Ping Mao,  Yuezhi Mao,  N. Mardirossian,  
 A. V. Marenich,  T. Markovich,  L. A. Martinez-Martinez,  S. A. Maurer,  
 N. J. Mayhall,  S. C. McKenzie,  J.-M. Mewes,  P. Morgante,  A. F. Morrison,  
 J. W. Mullinax,  K. Nanda,  T. S. Nguyen-Beck,  R. Olivares-Amaya,  
 J. A. Parkhill,  S. K. Paul,  F. Pavosevic,  Zheng Pei,  T. M. Perrine,  
 F. Plasser,  P. Pokhilko,  S. Prager,  A. Prociuk,  E. Ramos,  B. Rana,  
 D. R. Rehn,  F. Rob,  M. Scheurer,  M. Schneider,  N. Sergueev,  
 S. M. Sharada,  S. Sharma,  D. W. Small,  T. Stauch,  C. J. Stein,  
 T. Stein,  Yu-Chuan Su,  S. P. Veccham,  Zhen Tao,  A. J. W. Thom,  
 A. Tkatchenko,  T. Tsuchimochi,  N. M. Tubman,  L. Vogt,  M. L. Vidal,  
 O. Vydrov,  M. A. Watson,  J. Wenzel,  M. de Wergifosse,  T. A. Wesolowski,  
 A. White,  J. Witte,  A. Yamada,  Jun Yang,  K. Yao,  S. Yeganeh,  
 S. R. Yost,  Zhi-Qiang You,  A. Zech,  Igor Ying Zhang,  Xing Zhang,  
 Yan Zhao,  Ying Zhu,  B. R. Brooks,  G. K. L. Chan,  C. J. Cramer,  
 M. S. Gordon,  W. J. Hehre,  A. Klamt,  M. W. Schmidt,  C. D. Sherrill,  
 D. G. Truhlar,  A. Aspuru-Guzik,  R. Baer,  A. T. Bell,  N. A. Besley,  
 Jeng-Da Chai,  A. E. DePrince, III,  R. A. DiStasio Jr.,  A. Dreuw,  
 B. D. Dunietz,  T. R. Furlani,  Chao-Ping Hsu,  Yousung Jung,  Jing Kong,  
 D. S. Lambrecht,  WanZhen Liang,  C. Ochsenfeld,  V. A. Rassolov,  
 L. V. Slipchenko,  J. E. Subotnik,  T. Van Voorhis,  J. M. Herbert,  
 A. I. Krylov,  P. M. W. Gill,  M. Head-Gordon

 Contributors to earlier versions of Q-Chem not listed above: 
 R. D. Adamson,  B. Austin,  J. Baker,  G. J. O. Beran,  K. Brandhorst,  
 S. T. Brown,  E. F. C. Byrd,  A. K. Chakraborty,  C.-L. Cheng,  
 Siu Hung Chien,  D. M. Chipman,  D. L. Crittenden,  H. Dachsel,  
 R. J. Doerksen,  A. D. Dutoi,  L. Fusti-Molnar,  W. A. Goddard III,  
 A. Golubeva-Zadorozhnaya,  S. R. Gwaltney,  G. Hawkins,  A. Heyden,  
 S. Hirata,  G. Kedziora,  F. J. Keil,  C. Kelley,  Jihan Kim,  R. A. King,  
 R. Z. Khaliullin,  P. P. Korambath,  W. Kurlancheek,  A. M. Lee,  M. S. Lee,  
 S. V. Levchenko,  Ching Yeh Lin,  D. Liotard,  R. C. Lochan,  I. Lotan,  
 P. E. Maslen,  N. Nair,  D. P. O'Neill,  D. Neuhauser,  E. Neuscamman,  
 C. M. Oana,  R. Olson,  B. Peters,  R. Peverati,  P. A. Pieniazek,  
 Y. M. Rhee,  J. Ritchie,  M. A. Rohrdanz,  E. Rosta,  N. J. Russ,  
 H. F. Schaefer III,  N. E. Schultz,  N. Shenvi,  A. C. Simmonett,  A. Sodt,  
 D. Stuck,  K. S. Thanthiriwatte,  V. Vanovschi,  Tao Wang,  A. Warshel,  
 C. F. Williams,  Q. Wu,  X. Xu,  W. Zhang

 Please cite Q-Chem as follows:
 Y. Shao et al., Mol. Phys. 113, 184-215 (2015)
 DOI: 10.1080/00268976.2014.952696

 Q-Chem 5.2.2 for Intel X86 EM64T Linux

 Parts of Q-Chem use Armadillo 9.800.1 (Horizon Scraper).
 http://arma.sourceforge.net/

 Q-Chem begins on Thu Mar 11 13:37:48 2021  

Host: n0096.mhg0
0

     Scratch files written to /local/scratch/users/ymao/r7.00_frame_0091_almo_B3LYP_dp.in20210311133744//

Checking the input file for inconsistencies... 	...done.

--------------------------------------------------------------
User input:
--------------------------------------------------------------
$molecule
0 1
--
0 1
C    25.18200   30.49300   25.68200  
C    25.95800   30.14700   26.96400  
C    25.84300   28.63800   27.24000  
C    26.40600   27.92400   26.00000  
C    25.65300   28.23700   24.69700  
C    25.69900   29.75200   24.43800  
H    26.24100   28.30900   28.20800  
H    26.99300   30.48700   26.83800  
H    24.10500   30.42800   25.88100  
H    25.35800   31.56400   25.52400  
H    27.43200   28.24900   25.79100  
H    26.46800   26.84500   26.18800  
H    25.95800   27.65200   23.82100  
H    24.60500   27.95600   24.86000  
H    26.68500   30.15700   24.17900  
H    25.03600   30.04400   23.61600  
H    24.77700   28.38100   27.21600  
N    25.40600   30.92200   28.07400  
H    24.71200   30.51400   28.68900  
C    25.94200   32.09700   28.55700  
H    25.50100   32.48600   29.49300  
O    26.93700   32.60500   28.07300  
--
0 1
C    24.64200   27.48600   21.30500  
H    25.69400   27.72700   21.13300  
H    24.11000   27.82700   20.41400  
H    24.26500   28.03100   22.17400  
S    24.20300   25.74300   21.49200  
C    25.13100   25.17100   20.05100  
H    26.18000   25.29700   20.33000  
H    24.82500   24.14400   19.83800  
H    24.84900   25.83000   19.22600  
O    22.73800   25.48900   21.31600  
C    28.98900   28.28200   23.35500  
H    28.34600   29.16000   23.46300  
H    28.66200   27.47700   22.69100  
H    29.22400   27.82800   24.32100  
S    30.64800   28.82300   22.88500  
C    31.28600   27.13900   22.74000  
H    32.25000   27.15400   23.25600  
H    30.64100   26.46700   23.31200  
H    31.29100   26.89000   21.67600  
O    31.29700   29.43900   24.08500  
C    28.43800   32.76400   24.69800  
H    29.01900   32.57700   25.60500  
H    27.54800   33.21000   25.14900  
H    28.16400   31.89900   24.08800  
S    29.19900   33.96400   23.58300  
C    30.93600   33.52900   23.82900  
H    31.32000   33.64400   24.84600  
H    31.06500   32.48900   23.52100  
H    31.56300   34.08900   23.13100  
O    28.87700   35.23500   24.30600  
C    28.69700   30.93400   20.39900  
H    28.89600   29.94600   20.82100  
H    28.95700   31.04100   19.34300  
H    29.37200   31.65300   20.87000  
S    26.97400   31.40100   20.67500  
C    26.98500   32.66800   19.38700  
H    28.00900   32.80900   19.03200  
H    26.36800   32.30800   18.56000  
H    26.47400   33.57300   19.72600  
O    27.09600   32.27100   21.88800  
C    28.40600   36.60000   35.69900  
H    27.37200   36.92500   35.84100  
H    28.83600   36.21500   36.62700  
H    28.99900   37.36000   35.18600  
S    28.13300   35.18600   34.60700  
C    27.08200   36.13000   33.48100  
H    26.18900   36.46600   34.01500  
H    27.70400   36.95500   33.12500  
H    26.80600   35.49300   32.63700  
O    27.32000   34.29200   35.49100  
C    30.83500   30.32700   26.77000  
H    30.62800   31.05800   25.98300  
H    31.87300   30.54900   27.02700  
H    30.80200   29.30400   26.38500  
S    29.57000   30.61300   28.02800  
C    30.74000   31.50700   29.07500  
H    30.97000   32.52500   28.75200  
H    30.40500   31.53600   30.11500  
H    31.60400   30.83800   29.09400  
O    29.71400   29.21500   28.54300  
C    23.32800   24.13900   29.37200  
H    22.53500   23.64400   28.80600  
H    24.23400   23.58500   29.11600  
H    23.09000   24.14800   30.43900  
S    23.52200   25.82600   28.75200  
C    21.75300   26.10400   28.51000  
H    21.12600   25.86000   29.37200  
H    21.54500   27.11900   28.16500  
H    21.57600   25.50100   27.61600  
O    24.01100   25.64200   27.34900  
C    26.68000   24.89300   23.66900  
H    26.58100   25.53400   22.79000  
H    26.53400   25.46800   24.58600  
H    27.67400   24.44100   23.72800  
S    25.48500   23.53900   23.73200  
C    25.54700   23.22900   25.51100  
H    24.80100   23.88500   25.96600  
H    25.37400   22.16200   25.66800  
H    26.57600   23.44400   25.81100  
O    26.35700   22.44900   23.19200  
C    24.88600   35.23800   25.99800  
H    24.80900   34.62200   26.89700  
H    25.83200   35.78400   25.95600  
H    24.00700   35.88700   26.03800  
S    24.78200   34.15500   24.55500  
C    25.42300   35.32500   23.33700  
H    26.27000   35.88600   23.74100  
H    25.72300   34.79900   22.42700  
H    24.63300   36.03600   23.08100  
O    23.31700   34.18100   24.25000  
C    25.11600   24.84400   32.04300  
H    25.36600   23.82600   32.35200  
H    24.03000   24.96600   32.03400  
H    25.48000   25.16700   31.06400  
S    25.96900   26.01800   33.11900  
C    27.56500   25.17300   33.13700  
H    28.21300   25.59900   32.36700  
H    27.96700   25.37600   34.13300  
H    27.41700   24.10800   32.93900  
O    25.44300   25.85200   34.51100  
C    26.86800   20.87000   28.34000  
H    27.94800   21.00000   28.44900  
H    26.74600   19.93800   27.78300  
H    26.49400   21.75500   27.81900  
S    25.98400   20.59900   29.89300  
C    24.32700   20.11900   29.35700  
H    23.99300   20.94000   28.71700  
H    24.38000   19.25200   28.69400  
H    23.61800   20.02300   30.18300  
O    25.77100   21.89100   30.61700  
C    18.91700   28.11400   28.82900  
H    19.77700   28.74400   29.07000  
H    19.27500   27.21600   28.31800  
H    18.29500   28.72400   28.16800  
S    18.21400   27.64700   30.42700  
C    18.07700   29.34300   31.03500  
H    17.69100   29.28900   32.05600  
H    19.07600   29.78600   31.00500  
H    17.39300   29.98300   30.47200  
O    19.31200   26.94700   31.16600  
C    29.04700   34.58300   30.31800  
H    29.30500   35.00800   31.29200  
H    27.97900   34.78000   30.19700  
H    29.23700   33.50800   30.27300  
S    29.96300   35.54400   29.09200  
C    29.16000   34.65900   27.73600  
H    29.79600   34.66200   26.84700  
H    28.99900   33.59300   27.91300  
H    28.21600   35.16300   27.51200  
O    31.31100   34.90400   29.20500  
C    19.18500   26.09900   23.75800  
H    18.16300   25.74700   23.92200  
H    19.13700   27.11400   23.35300  
H    19.73500   25.46400   23.05900  
S    20.08300   26.16700   25.32500  
C    21.64100   26.62500   24.53300  
H    22.36400   26.09500   25.15900  
H    21.82800   26.31700   23.50100  
H    21.95000   27.67200   24.59500  
O    20.34100   24.70000   25.47600  
C    20.83100   32.23900   32.51800  
H    21.73500   32.23700   33.13200  
H    20.39800   33.24300   32.49200  
H    20.01600   31.59400   32.85400  
S    21.34100   31.68400   30.87600  
C    22.36200   33.11900   30.47300  
H    21.85300   34.00900   30.85400  
H    23.32200   32.97300   30.97500  
H    22.52800   33.23000   29.39900  
O    20.13600   31.92100   30.02100  
C    22.08600   28.26100   31.79600  
H    21.74100   29.26400   32.06200  
H    21.74700   28.14700   30.76400  
H    21.84400   27.44600   32.48300  
S    23.87600   28.43200   31.62700  
C    24.13600   29.08500   33.29200  
H    23.20700   29.52500   33.66000  
H    24.44200   28.27400   33.95800  
H    24.97500   29.78100   33.21000  
O    24.15900   29.59200   30.72300  
C    24.44200   33.95600   33.67000  
H    23.81600   33.06800   33.78400  
H    24.58800   34.23700   32.62400  
H    25.39800   33.84500   34.18800  
S    23.54600   35.34800   34.39400  
C    23.75600   34.83700   36.11500  
H    23.29000   35.57400   36.77400  
H    23.24000   33.88500   36.26300  
H    24.81800   34.86300   36.37100  
O    22.12900   34.92300   34.16600  
C    28.17600   24.33500   18.16600  
H    28.42100   23.27100   18.11900  
H    27.18300   24.46300   18.60400  
H    28.35500   24.89500   17.24500  
S    29.35200   24.94300   19.39700  
C    28.92000   23.81900   20.74400  
H    29.09000   24.33400   21.69300  
H    27.89000   23.48100   20.60900  
H    29.62800   22.98800   20.79200  
O    28.90500   26.18900   20.09600  
C    31.36200   26.25800   26.76400  
H    30.65400   25.56100   27.21900  
H    31.59600   27.11900   27.39500  
H    31.13200   26.68100   25.78300  
S    32.90900   25.33400   26.62600  
C    33.33300   25.23400   28.38000  
H    33.69300   26.18900   28.77100  
H    32.51900   24.77500   28.94700  
H    34.16800   24.54400   28.52400  
O    33.92700   26.24800   26.01900  
C    23.40900   32.28400   21.79300  
H    22.74700   32.58200   22.61000  
H    24.43400   32.14300   22.14500  
H    23.30000   32.95200   20.93500  
S    22.87700   30.67800   21.15800  
C    21.28000   31.31900   20.60600  
H    20.69800   31.93600   21.29600  
H    21.46600   31.74900   19.61900  
H    20.59500   30.47400   20.50200  
O    22.48900   29.95000   22.40800  
C    21.74800   31.19600   27.20500  
H    22.70600   31.70300   27.06700  
H    20.88600   31.86800   27.19500  
H    21.82700   30.61400   28.12600  
S    21.32300   30.11900   25.81800  
C    20.69100   31.46500   24.79200  
H    19.77000   31.75100   25.30700  
H    21.50800   32.18600   24.70900  
H    20.54900   30.97300   23.82700  
O    20.12800   29.35300   26.29400  
C    28.27600   30.86500   34.32000  
H    28.25300   30.28100   35.24400  
H    29.03100   31.65500   34.33400  
H    27.29600   31.34000   34.23000  
S    28.59300   29.80600   32.89100  
C    27.68600   30.75100   31.64600  
H    26.74400   31.13200   32.05000  
H    28.32000   31.60900   31.41100  
H    27.47800   30.12100   30.77700  
O    27.77300   28.64400   33.35700  
C    28.28800   26.09300   29.21100  
H    29.29200   26.22100   29.62500  
H    28.23200   26.84800   28.42300  
H    27.53800   26.42700   29.93300  
S    27.85300   24.47000   28.54700  
C    28.58000   23.58400   29.94300  
H    28.07300   23.91500   30.85300  
H    28.24900   22.55600   29.77900  
H    29.63700   23.84400   30.04500  
O    28.81300   24.28400   27.41400  
C    25.80500   37.36100   30.55100  
H    26.86800   37.16600   30.71300  
H    25.70200   38.41300   30.27300  
H    25.21900   37.14400   31.44800  
S    25.39200   36.27800   29.16500  
C    23.62500   36.64300   29.06400  
H    23.58400   37.66200   28.67000  
H    23.17100   35.91800   28.38400  
H    23.28700   36.66700   30.10300  
O    25.52500   34.88700   29.70200  
$end

$rem
JOBTYPE  SP
METHOD  B3LYP
BASIS  6-31+G(D)
SYMMETRY  FALSE
SYM_IGNORE  TRUE
MEM_TOTAL  16000
MEM_STATIC  8000
MAX_SUB_FILE_NUM  16000
BASIS_LIN_DEP_THRESH  6
THRESH  14
SCF_CONVERGENCE  8
GEN_SCFMAN  TRUE
SCF_GUESS  FRAGMO
FD_MAT_VEC_PROD  FALSE
XC_GRID  000075000302
NL_GRID  1
MAX_SCF_CYCLES  200
FRGM_METHOD  STOLL
SCFMI_MODE  1
$end

$development
almo_efield  1
$end

$rem_frgm
SCF_CONVERGENCE  4
$end

--------------------------------------------------------------
 ----------------------------------------------------------------
             Standard Nuclear Orientation (Angstroms)
    I     Atom           X                Y                Z
 ----------------------------------------------------------------
    1      C      25.1820000000    30.4930000000    25.6820000000
    2      C      25.9580000000    30.1470000000    26.9640000000
    3      C      25.8430000000    28.6380000000    27.2400000000
    4      C      26.4060000000    27.9240000000    26.0000000000
    5      C      25.6530000000    28.2370000000    24.6970000000
    6      C      25.6990000000    29.7520000000    24.4380000000
    7      H      26.2410000000    28.3090000000    28.2080000000
    8      H      26.9930000000    30.4870000000    26.8380000000
    9      H      24.1050000000    30.4280000000    25.8810000000
   10      H      25.3580000000    31.5640000000    25.5240000000
   11      H      27.4320000000    28.2490000000    25.7910000000
   12      H      26.4680000000    26.8450000000    26.1880000000
   13      H      25.9580000000    27.6520000000    23.8210000000
   14      H      24.6050000000    27.9560000000    24.8600000000
   15      H      26.6850000000    30.1570000000    24.1790000000
   16      H      25.0360000000    30.0440000000    23.6160000000
   17      H      24.7770000000    28.3810000000    27.2160000000
   18      N      25.4060000000    30.9220000000    28.0740000000
   19      H      24.7120000000    30.5140000000    28.6890000000
   20      C      25.9420000000    32.0970000000    28.5570000000
   21      H      25.5010000000    32.4860000000    29.4930000000
   22      O      26.9370000000    32.6050000000    28.0730000000
   23      C      24.6420000000    27.4860000000    21.3050000000
   24      H      25.6940000000    27.7270000000    21.1330000000
   25      H      24.1100000000    27.8270000000    20.4140000000
   26      H      24.2650000000    28.0310000000    22.1740000000
   27      S      24.2030000000    25.7430000000    21.4920000000
   28      C      25.1310000000    25.1710000000    20.0510000000
   29      H      26.1800000000    25.2970000000    20.3300000000
   30      H      24.8250000000    24.1440000000    19.8380000000
   31      H      24.8490000000    25.8300000000    19.2260000000
   32      O      22.7380000000    25.4890000000    21.3160000000
   33      C      28.9890000000    28.2820000000    23.3550000000
   34      H      28.3460000000    29.1600000000    23.4630000000
   35      H      28.6620000000    27.4770000000    22.6910000000
   36      H      29.2240000000    27.8280000000    24.3210000000
   37      S      30.6480000000    28.8230000000    22.8850000000
   38      C      31.2860000000    27.1390000000    22.7400000000
   39      H      32.2500000000    27.1540000000    23.2560000000
   40      H      30.6410000000    26.4670000000    23.3120000000
   41      H      31.2910000000    26.8900000000    21.6760000000
   42      O      31.2970000000    29.4390000000    24.0850000000
   43      C      28.4380000000    32.7640000000    24.6980000000
   44      H      29.0190000000    32.5770000000    25.6050000000
   45      H      27.5480000000    33.2100000000    25.1490000000
   46      H      28.1640000000    31.8990000000    24.0880000000
   47      S      29.1990000000    33.9640000000    23.5830000000
   48      C      30.9360000000    33.5290000000    23.8290000000
   49      H      31.3200000000    33.6440000000    24.8460000000
   50      H      31.0650000000    32.4890000000    23.5210000000
   51      H      31.5630000000    34.0890000000    23.1310000000
   52      O      28.8770000000    35.2350000000    24.3060000000
   53      C      28.6970000000    30.9340000000    20.3990000000
   54      H      28.8960000000    29.9460000000    20.8210000000
   55      H      28.9570000000    31.0410000000    19.3430000000
   56      H      29.3720000000    31.6530000000    20.8700000000
   57      S      26.9740000000    31.4010000000    20.6750000000
   58      C      26.9850000000    32.6680000000    19.3870000000
   59      H      28.0090000000    32.8090000000    19.0320000000
   60      H      26.3680000000    32.3080000000    18.5600000000
   61      H      26.4740000000    33.5730000000    19.7260000000
   62      O      27.0960000000    32.2710000000    21.8880000000
   63      C      28.4060000000    36.6000000000    35.6990000000
   64      H      27.3720000000    36.9250000000    35.8410000000
   65      H      28.8360000000    36.2150000000    36.6270000000
   66      H      28.9990000000    37.3600000000    35.1860000000
   67      S      28.1330000000    35.1860000000    34.6070000000
   68      C      27.0820000000    36.1300000000    33.4810000000
   69      H      26.1890000000    36.4660000000    34.0150000000
   70      H      27.7040000000    36.9550000000    33.1250000000
   71      H      26.8060000000    35.4930000000    32.6370000000
   72      O      27.3200000000    34.2920000000    35.4910000000
   73      C      30.8350000000    30.3270000000    26.7700000000
   74      H      30.6280000000    31.0580000000    25.9830000000
   75      H      31.8730000000    30.5490000000    27.0270000000
   76      H      30.8020000000    29.3040000000    26.3850000000
   77      S      29.5700000000    30.6130000000    28.0280000000
   78      C      30.7400000000    31.5070000000    29.0750000000
   79      H      30.9700000000    32.5250000000    28.7520000000
   80      H      30.4050000000    31.5360000000    30.1150000000
   81      H      31.6040000000    30.8380000000    29.0940000000
   82      O      29.7140000000    29.2150000000    28.5430000000
   83      C      23.3280000000    24.1390000000    29.3720000000
   84      H      22.5350000000    23.6440000000    28.8060000000
   85      H      24.2340000000    23.5850000000    29.1160000000
   86      H      23.0900000000    24.1480000000    30.4390000000
   87      S      23.5220000000    25.8260000000    28.7520000000
   88      C      21.7530000000    26.1040000000    28.5100000000
   89      H      21.1260000000    25.8600000000    29.3720000000
   90      H      21.5450000000    27.1190000000    28.1650000000
   91      H      21.5760000000    25.5010000000    27.6160000000
   92      O      24.0110000000    25.6420000000    27.3490000000
   93      C      26.6800000000    24.8930000000    23.6690000000
   94      H      26.5810000000    25.5340000000    22.7900000000
   95      H      26.5340000000    25.4680000000    24.5860000000
   96      H      27.6740000000    24.4410000000    23.7280000000
   97      S      25.4850000000    23.5390000000    23.7320000000
   98      C      25.5470000000    23.2290000000    25.5110000000
   99      H      24.8010000000    23.8850000000    25.9660000000
  100      H      25.3740000000    22.1620000000    25.6680000000
  101      H      26.5760000000    23.4440000000    25.8110000000
  102      O      26.3570000000    22.4490000000    23.1920000000
  103      C      24.8860000000    35.2380000000    25.9980000000
  104      H      24.8090000000    34.6220000000    26.8970000000
  105      H      25.8320000000    35.7840000000    25.9560000000
  106      H      24.0070000000    35.8870000000    26.0380000000
  107      S      24.7820000000    34.1550000000    24.5550000000
  108      C      25.4230000000    35.3250000000    23.3370000000
  109      H      26.2700000000    35.8860000000    23.7410000000
  110      H      25.7230000000    34.7990000000    22.4270000000
  111      H      24.6330000000    36.0360000000    23.0810000000
  112      O      23.3170000000    34.1810000000    24.2500000000
  113      C      25.1160000000    24.8440000000    32.0430000000
  114      H      25.3660000000    23.8260000000    32.3520000000
  115      H      24.0300000000    24.9660000000    32.0340000000
  116      H      25.4800000000    25.1670000000    31.0640000000
  117      S      25.9690000000    26.0180000000    33.1190000000
  118      C      27.5650000000    25.1730000000    33.1370000000
  119      H      28.2130000000    25.5990000000    32.3670000000
  120      H      27.9670000000    25.3760000000    34.1330000000
  121      H      27.4170000000    24.1080000000    32.9390000000
  122      O      25.4430000000    25.8520000000    34.5110000000
  123      C      26.8680000000    20.8700000000    28.3400000000
  124      H      27.9480000000    21.0000000000    28.4490000000
  125      H      26.7460000000    19.9380000000    27.7830000000
  126      H      26.4940000000    21.7550000000    27.8190000000
  127      S      25.9840000000    20.5990000000    29.8930000000
  128      C      24.3270000000    20.1190000000    29.3570000000
  129      H      23.9930000000    20.9400000000    28.7170000000
  130      H      24.3800000000    19.2520000000    28.6940000000
  131      H      23.6180000000    20.0230000000    30.1830000000
  132      O      25.7710000000    21.8910000000    30.6170000000
  133      C      18.9170000000    28.1140000000    28.8290000000
  134      H      19.7770000000    28.7440000000    29.0700000000
  135      H      19.2750000000    27.2160000000    28.3180000000
  136      H      18.2950000000    28.7240000000    28.1680000000
  137      S      18.2140000000    27.6470000000    30.4270000000
  138      C      18.0770000000    29.3430000000    31.0350000000
  139      H      17.6910000000    29.2890000000    32.0560000000
  140      H      19.0760000000    29.7860000000    31.0050000000
  141      H      17.3930000000    29.9830000000    30.4720000000
  142      O      19.3120000000    26.9470000000    31.1660000000
  143      C      29.0470000000    34.5830000000    30.3180000000
  144      H      29.3050000000    35.0080000000    31.2920000000
  145      H      27.9790000000    34.7800000000    30.1970000000
  146      H      29.2370000000    33.5080000000    30.2730000000
  147      S      29.9630000000    35.5440000000    29.0920000000
  148      C      29.1600000000    34.6590000000    27.7360000000
  149      H      29.7960000000    34.6620000000    26.8470000000
  150      H      28.9990000000    33.5930000000    27.9130000000
  151      H      28.2160000000    35.1630000000    27.5120000000
  152      O      31.3110000000    34.9040000000    29.2050000000
  153      C      19.1850000000    26.0990000000    23.7580000000
  154      H      18.1630000000    25.7470000000    23.9220000000
  155      H      19.1370000000    27.1140000000    23.3530000000
  156      H      19.7350000000    25.4640000000    23.0590000000
  157      S      20.0830000000    26.1670000000    25.3250000000
  158      C      21.6410000000    26.6250000000    24.5330000000
  159      H      22.3640000000    26.0950000000    25.1590000000
  160      H      21.8280000000    26.3170000000    23.5010000000
  161      H      21.9500000000    27.6720000000    24.5950000000
  162      O      20.3410000000    24.7000000000    25.4760000000
  163      C      20.8310000000    32.2390000000    32.5180000000
  164      H      21.7350000000    32.2370000000    33.1320000000
  165      H      20.3980000000    33.2430000000    32.4920000000
  166      H      20.0160000000    31.5940000000    32.8540000000
  167      S      21.3410000000    31.6840000000    30.8760000000
  168      C      22.3620000000    33.1190000000    30.4730000000
  169      H      21.8530000000    34.0090000000    30.8540000000
  170      H      23.3220000000    32.9730000000    30.9750000000
  171      H      22.5280000000    33.2300000000    29.3990000000
  172      O      20.1360000000    31.9210000000    30.0210000000
  173      C      22.0860000000    28.2610000000    31.7960000000
  174      H      21.7410000000    29.2640000000    32.0620000000
  175      H      21.7470000000    28.1470000000    30.7640000000
  176      H      21.8440000000    27.4460000000    32.4830000000
  177      S      23.8760000000    28.4320000000    31.6270000000
  178      C      24.1360000000    29.0850000000    33.2920000000
  179      H      23.2070000000    29.5250000000    33.6600000000
  180      H      24.4420000000    28.2740000000    33.9580000000
  181      H      24.9750000000    29.7810000000    33.2100000000
  182      O      24.1590000000    29.5920000000    30.7230000000
  183      C      24.4420000000    33.9560000000    33.6700000000
  184      H      23.8160000000    33.0680000000    33.7840000000
  185      H      24.5880000000    34.2370000000    32.6240000000
  186      H      25.3980000000    33.8450000000    34.1880000000
  187      S      23.5460000000    35.3480000000    34.3940000000
  188      C      23.7560000000    34.8370000000    36.1150000000
  189      H      23.2900000000    35.5740000000    36.7740000000
  190      H      23.2400000000    33.8850000000    36.2630000000
  191      H      24.8180000000    34.8630000000    36.3710000000
  192      O      22.1290000000    34.9230000000    34.1660000000
  193      C      28.1760000000    24.3350000000    18.1660000000
  194      H      28.4210000000    23.2710000000    18.1190000000
  195      H      27.1830000000    24.4630000000    18.6040000000
  196      H      28.3550000000    24.8950000000    17.2450000000
  197      S      29.3520000000    24.9430000000    19.3970000000
  198      C      28.9200000000    23.8190000000    20.7440000000
  199      H      29.0900000000    24.3340000000    21.6930000000
  200      H      27.8900000000    23.4810000000    20.6090000000
  201      H      29.6280000000    22.9880000000    20.7920000000
  202      O      28.9050000000    26.1890000000    20.0960000000
  203      C      31.3620000000    26.2580000000    26.7640000000
  204      H      30.6540000000    25.5610000000    27.2190000000
  205      H      31.5960000000    27.1190000000    27.3950000000
  206      H      31.1320000000    26.6810000000    25.7830000000
  207      S      32.9090000000    25.3340000000    26.6260000000
  208      C      33.3330000000    25.2340000000    28.3800000000
  209      H      33.6930000000    26.1890000000    28.7710000000
  210      H      32.5190000000    24.7750000000    28.9470000000
  211      H      34.1680000000    24.5440000000    28.5240000000
  212      O      33.9270000000    26.2480000000    26.0190000000
  213      C      23.4090000000    32.2840000000    21.7930000000
  214      H      22.7470000000    32.5820000000    22.6100000000
  215      H      24.4340000000    32.1430000000    22.1450000000
  216      H      23.3000000000    32.9520000000    20.9350000000
  217      S      22.8770000000    30.6780000000    21.1580000000
  218      C      21.2800000000    31.3190000000    20.6060000000
  219      H      20.6980000000    31.9360000000    21.2960000000
  220      H      21.4660000000    31.7490000000    19.6190000000
  221      H      20.5950000000    30.4740000000    20.5020000000
  222      O      22.4890000000    29.9500000000    22.4080000000
  223      C      21.7480000000    31.1960000000    27.2050000000
  224      H      22.7060000000    31.7030000000    27.0670000000
  225      H      20.8860000000    31.8680000000    27.1950000000
  226      H      21.8270000000    30.6140000000    28.1260000000
  227      S      21.3230000000    30.1190000000    25.8180000000
  228      C      20.6910000000    31.4650000000    24.7920000000
  229      H      19.7700000000    31.7510000000    25.3070000000
  230      H      21.5080000000    32.1860000000    24.7090000000
  231      H      20.5490000000    30.9730000000    23.8270000000
  232      O      20.1280000000    29.3530000000    26.2940000000
  233      C      28.2760000000    30.8650000000    34.3200000000
  234      H      28.2530000000    30.2810000000    35.2440000000
  235      H      29.0310000000    31.6550000000    34.3340000000
  236      H      27.2960000000    31.3400000000    34.2300000000
  237      S      28.5930000000    29.8060000000    32.8910000000
  238      C      27.6860000000    30.7510000000    31.6460000000
  239      H      26.7440000000    31.1320000000    32.0500000000
  240      H      28.3200000000    31.6090000000    31.4110000000
  241      H      27.4780000000    30.1210000000    30.7770000000
  242      O      27.7730000000    28.6440000000    33.3570000000
  243      C      28.2880000000    26.0930000000    29.2110000000
  244      H      29.2920000000    26.2210000000    29.6250000000
  245      H      28.2320000000    26.8480000000    28.4230000000
  246      H      27.5380000000    26.4270000000    29.9330000000
  247      S      27.8530000000    24.4700000000    28.5470000000
  248      C      28.5800000000    23.5840000000    29.9430000000
  249      H      28.0730000000    23.9150000000    30.8530000000
  250      H      28.2490000000    22.5560000000    29.7790000000
  251      H      29.6370000000    23.8440000000    30.0450000000
  252      O      28.8130000000    24.2840000000    27.4140000000
  253      C      25.8050000000    37.3610000000    30.5510000000
  254      H      26.8680000000    37.1660000000    30.7130000000
  255      H      25.7020000000    38.4130000000    30.2730000000
  256      H      25.2190000000    37.1440000000    31.4480000000
  257      S      25.3920000000    36.2780000000    29.1650000000
  258      C      23.6250000000    36.6430000000    29.0640000000
  259      H      23.5840000000    37.6620000000    28.6700000000
  260      H      23.1710000000    35.9180000000    28.3840000000
  261      H      23.2870000000    36.6670000000    30.1030000000
  262      O      25.5250000000    34.8870000000    29.7020000000
 ----------------------------------------------------------------
 Nuclear Repulsion Energy =       40265.44383053 hartrees
 There are      539 alpha and      539 beta electrons
 Requested basis set is 6-31+G(d)
 There are 863 shells and 2405 basis functions

 Total QAlloc Memory Limit  16000 MB
 Mega-Array Size      7821 MB
 MEM_STATIC part      8000 MB
 A cutoff of  1.0D-14 yielded 151662 shell pairs
 There are   1310703 function pairs
 Smallest overlap matrix eigenvalue = 5.09E-07
 Linear dependence detected in AO basis
 Tighter screening thresholds may be required for diffuse basis sets
 Use S2THRESH > 14 and THRESH = 14 in case of SCF convergence issues
 Number of orthogonalized atomic orbitals = 2402
 Maximum deviation from orthogonality = 6.274E-11

 Scale SEOQF with 1.000000e-03/1.000000e-03/1.000000e-03

 Standard Electronic Orientation quadrupole field applied
 Nucleus-field energy     =     0.0000000509 hartrees
Attempting to make child job directory: /local/scratch/users/ymao/r7.00_frame_0091_almo_B3LYP_dp.in20210311133744//Frg1/
Attempting to make child job directory: /local/scratch/users/ymao/r7.00_frame_0091_almo_B3LYP_dp.in20210311133744//Frg2/
Creating input file /local/scratch/users/ymao/r7.00_frame_0091_almo_B3LYP_dp.in20210311133744/Frg1.input
using default PutDataFrgm: nothing
calling putenv with: QCSCRATCH=/local/scratch/users/ymao/r7.00_frame_0091_almo_B3LYP_dp.in20210311133744/ 
Spawning Job For Fragment 0
Done Job For Fragment 0
calling putenv with: QCSCRATCH=/local/scratch/users/ymao 
calling putenv with: QCTHREADS=8 
Creating input file /local/scratch/users/ymao/r7.00_frame_0091_almo_B3LYP_dp.in20210311133744/Frg2.input
using default PutDataFrgm: nothing
calling putenv with: QCSCRATCH=/local/scratch/users/ymao/r7.00_frame_0091_almo_B3LYP_dp.in20210311133744/ 
Spawning Job For Fragment 1
Done Job For Fragment 1
calling putenv with: QCSCRATCH=/local/scratch/users/ymao 
calling putenv with: QCTHREADS=8 
 Time for running child jobs:  CPU 0.72 s  wall 15550.53 s

 -----------------------------------------------------------------------
  General SCF calculation program by
  Eric Jon Sundstrom, Paul Horn, Yuezhi Mao, Dmitri Zuev, Alec White,
  David Stuck, Shaama M.S., Shane Yost, Joonho Lee, David Small,
  Daniel Levine, Susi Lehtola, Hugh Burton, Evgeny Epifanovsky,
  Bang C. Huynh
 -----------------------------------------------------------------------
Performing Restricted Closed Shell SCFMI
Doing General SCFMI
 Exchange:     0.2000 Hartree-Fock + 0.0800 Slater + 0.7200 B88
 Correlation:  0.1900 VWN1RPA + 0.8100 LYP
 Using Euler-Maclaurin-Lebedev (75,302) quadrature formula
performing fock build before subrot guess so that all methods have access
Printing subrot_rss_gen Method Specification:
Occupied Subspace Method is 0
Virtual Subspace Method is 0
Energy prior to optimization (guess energy) = -13681.124574065019
Begin Timing: Total SCF Calculation
begin iterations for algorithm: DIIS         
the SCF tolerance is set to 1.00e-08
    1  -13681.1245740650      4.84e-05     00000 
    2  -13681.1231829260      7.50e-05     00000 
    3  -13681.1343113166      1.83e-05     00000 
    4  -13681.1349488028      6.84e-06     00000 
    5  -13681.1350583747      3.42e-06     00000 
    6  -13681.1350799587      2.25e-06     00000 
    7  -13681.1350887335      1.45e-06     00000 
    8  -13681.1350929111      7.10e-07     00000 
    9  -13681.1350938097      4.46e-07     00000 
   10  -13681.1350941040      3.16e-07     00000 
   11  -13681.1350942598      2.04e-07     00000 
   12  -13681.1350943286      1.20e-07     00000 
   13  -13681.1350943549      6.54e-08     00000 
   14  -13681.1350943627      3.95e-08     00000 
   15  -13681.1350943648      2.88e-08     00000 
   16  -13681.1350943662      1.63e-08     00000 
   17  -13681.1350943668      7.75e-09     00000 Convergence criterion met
write pseudocanon occs and virts to disk
write pseudocanon orbital energies to disk
Timing for Total SCF: 41553.00s (wall), 329265.69s (cpu)
SCFMI Energy  -13681.1350943668
<S^2>            0.00000
 Total energy in the final basis set =   -13681.1350943668
    ==================================================
        The end of Object-Oriented SCFman: SCFMI      
    ==================================================
 
 --------------------------------------------------------------
 
                    Orbital Energies (a.u.)
 --------------------------------------------------------------
 
 Alpha MOs
 -- Occupied --
-89.0275 -89.0270 -89.0249 -89.0120 -89.0101 -89.0063 -89.0047 -89.0026
-88.9984 -88.9959 -88.9948 -88.9930 -88.9924 -88.9902 -88.9890 -88.9868
-88.9852 -88.9831 -88.9782 -88.9769 -88.9769 -88.9740 -88.9698 -88.9651
-19.1486 -19.1457 -19.1312 -19.1294 -19.1239 -19.1194 -19.1182 -19.1182
-19.1178 -19.1156 -19.1154 -19.1135 -19.1129 -19.1070 -19.1059 -19.1048
-19.1039 -19.1038 -19.1025 -19.1013 -19.0920 -19.0902 -19.0901 -19.0864
-19.0703 -14.3518 -10.2788 -10.2531 -10.2527 -10.2498 -10.2462 -10.2402
-10.2382 -10.2335 -10.2305 -10.2284 -10.2238 -10.2221 -10.2220 -10.2211
-10.2208 -10.2206 -10.2194 -10.2163 -10.2141 -10.2138 -10.2130 -10.2117
-10.2116 -10.2112 -10.2107 -10.2103 -10.2099 -10.2097 -10.2080 -10.2034
-10.2019 -10.2013 -10.2002 -10.1998 -10.1995 -10.1991 -10.1990 -10.1988
-10.1979 -10.1964 -10.1964 -10.1962 -10.1958 -10.1914 -10.1896 -10.1884
-10.1883 -10.1829 -10.1805 -10.1785 -10.1764 -10.1760 -10.1737 -10.1729
-10.1641  -8.0737  -8.0735  -8.0711  -8.0584  -8.0573  -8.0526  -8.0513
 -8.0486  -8.0441  -8.0413  -8.0412  -8.0391  -8.0384  -8.0359  -8.0350
 -8.0324  -8.0313  -8.0299  -8.0245  -8.0233  -8.0231  -8.0205  -8.0159
 -8.0110  -6.0381  -6.0378  -6.0370  -6.0365  -6.0353  -6.0341  -6.0309
 -6.0308  -6.0287  -6.0225  -6.0217  -6.0214  -6.0203  -6.0169  -6.0161
 -6.0159  -6.0155  -6.0146  -6.0144  -6.0129  -6.0117  -6.0103  -6.0084
 -6.0081  -6.0071  -6.0059  -6.0057  -6.0056  -6.0043  -6.0043  -6.0035
 -6.0027  -6.0022  -6.0020  -6.0016  -6.0004  -5.9994  -5.9991  -5.9989
 -5.9986  -5.9983  -5.9968  -5.9964  -5.9958  -5.9957  -5.9954  -5.9942
 -5.9940  -5.9931  -5.9927  -5.9919  -5.9899  -5.9889  -5.9886  -5.9877
 -5.9876  -5.9876  -5.9874  -5.9863  -5.9862  -5.9849  -5.9837  -5.9817
 -5.9806  -5.9804  -5.9803  -5.9790  -5.9776  -5.9751  -5.9740  -5.9729
 -5.9687  -1.0554  -1.0539  -1.0464  -1.0392  -1.0351  -1.0331  -1.0309
 -1.0282  -1.0279  -1.0244  -1.0216  -1.0185  -1.0185  -1.0172  -1.0165
 -1.0144  -1.0143  -1.0135  -1.0091  -1.0084  -1.0081  -1.0011  -0.9981
 -0.9962  -0.9865  -0.9145  -0.8398  -0.8356  -0.8222  -0.8209  -0.8186
 -0.8107  -0.8081  -0.8070  -0.8060  -0.8056  -0.7991  -0.7961  -0.7948
 -0.7936  -0.7930  -0.7928  -0.7894  -0.7893  -0.7856  -0.7824  -0.7810
 -0.7791  -0.7769  -0.7757  -0.7651  -0.7573  -0.7542  -0.7468  -0.7436
 -0.7409  -0.7376  -0.7366  -0.7352  -0.7304  -0.7287  -0.7268  -0.7249
 -0.7234  -0.7224  -0.7207  -0.7169  -0.7153  -0.7138  -0.7122  -0.7097
 -0.7096  -0.7095  -0.7068  -0.7028  -0.7003  -0.6850  -0.6429  -0.6396
 -0.6377  -0.6276  -0.6231  -0.6218  -0.6206  -0.6180  -0.6159  -0.6113
 -0.6097  -0.6089  -0.6073  -0.6070  -0.6067  -0.6062  -0.6039  -0.6007
 -0.5990  -0.5963  -0.5919  -0.5911  -0.5875  -0.5871  -0.5863  -0.5781
 -0.5715  -0.5645  -0.5211  -0.5181  -0.5151  -0.5088  -0.5064  -0.5034
 -0.5031  -0.4973  -0.4943  -0.4905  -0.4891  -0.4883  -0.4866  -0.4856
 -0.4835  -0.4833  -0.4808  -0.4805  -0.4801  -0.4790  -0.4780  -0.4767
 -0.4763  -0.4756  -0.4752  -0.4741  -0.4730  -0.4725  -0.4717  -0.4714
 -0.4693  -0.4691  -0.4689  -0.4682  -0.4669  -0.4667  -0.4658  -0.4652
 -0.4643  -0.4637  -0.4629  -0.4625  -0.4623  -0.4616  -0.4613  -0.4608
 -0.4594  -0.4586  -0.4573  -0.4571  -0.4569  -0.4559  -0.4554  -0.4547
 -0.4545  -0.4540  -0.4536  -0.4526  -0.4515  -0.4505  -0.4503  -0.4488
 -0.4479  -0.4477  -0.4465  -0.4457  -0.4451  -0.4448  -0.4431  -0.4420
 -0.4417  -0.4412  -0.4409  -0.4409  -0.4404  -0.4395  -0.4391  -0.4387
 -0.4383  -0.4381  -0.4375  -0.4372  -0.4369  -0.4349  -0.4340  -0.4335
 -0.4328  -0.4306  -0.4295  -0.4286  -0.4279  -0.4272  -0.4271  -0.4267
 -0.4259  -0.4253  -0.4229  -0.4219  -0.4208  -0.4202  -0.4193  -0.4185
 -0.4179  -0.4164  -0.4158  -0.4154  -0.4149  -0.4144  -0.4140  -0.4129
 -0.4118  -0.4112  -0.4105  -0.4099  -0.4076  -0.4066  -0.4058  -0.4040
 -0.4033  -0.4026  -0.4021  -0.4012  -0.4002  -0.3988  -0.3983  -0.3966
 -0.3955  -0.3948  -0.3944  -0.3942  -0.3932  -0.3921  -0.3913  -0.3908
 -0.3899  -0.3899  -0.3881  -0.3872  -0.3844  -0.3837  -0.3828  -0.3821
 -0.3814  -0.3803  -0.3790  -0.3786  -0.3780  -0.3775  -0.3769  -0.3760
 -0.3756  -0.3754  -0.3752  -0.3725  -0.3722  -0.3695  -0.3687  -0.3664
 -0.3643  -0.3635  -0.3615  -0.3613  -0.3595  -0.3592  -0.3578  -0.3572
 -0.3567  -0.3562  -0.3553  -0.3489  -0.3470  -0.3451  -0.3442  -0.3427
 -0.3405  -0.3385  -0.3382  -0.3375  -0.3368  -0.3255  -0.3205  -0.3101
 -0.3084  -0.3073  -0.2996  -0.2918  -0.2892  -0.2878  -0.2793  -0.2784
 -0.2782  -0.2779  -0.2745  -0.2723  -0.2722  -0.2711  -0.2699  -0.2688
 -0.2682  -0.2656  -0.2647  -0.2639  -0.2634  -0.2633  -0.2612  -0.2547
 -0.2541  -0.2519  -0.2513  -0.2512  -0.2493  -0.2487  -0.2467  -0.2455
 -0.2425  -0.2411  -0.2406  -0.2384  -0.2379  -0.2375  -0.2333  -0.2294
 -0.2291  -0.2284  -0.2275  -0.2253  -0.2227  -0.2215  -0.2195  -0.2120
 -0.2113  -0.2075  -0.2044
 -- Virtual --
 -0.0368  -0.0278  -0.0260  -0.0256  -0.0229  -0.0205  -0.0203  -0.0137
 -0.0122  -0.0112  -0.0109  -0.0086  -0.0068  -0.0065  -0.0061  -0.0049
 -0.0045  -0.0036  -0.0025  -0.0013   0.0006   0.0009   0.0014   0.0033
  0.0041   0.0056   0.0061   0.0065   0.0077   0.0085   0.0092   0.0096
  0.0108   0.0112   0.0119   0.0131   0.0133   0.0137   0.0156   0.0157
  0.0166   0.0175   0.0182   0.0202   0.0209   0.0214   0.0221   0.0230
  0.0236   0.0239   0.0250   0.0265   0.0270   0.0271   0.0274   0.0281
  0.0290   0.0298   0.0310   0.0313   0.0318   0.0325   0.0333   0.0335
  0.0345   0.0350   0.0355   0.0370   0.0373   0.0379   0.0385   0.0392
  0.0393   0.0397   0.0402   0.0410   0.0422   0.0431   0.0440   0.0442
  0.0450   0.0455   0.0465   0.0475   0.0478   0.0482   0.0487   0.0492
  0.0505   0.0515   0.0519   0.0525   0.0529   0.0542   0.0544   0.0549
  0.0551   0.0562   0.0562   0.0576   0.0582   0.0591   0.0596   0.0605
  0.0612   0.0616   0.0628   0.0636   0.0643   0.0650   0.0651   0.0656
  0.0665   0.0673   0.0683   0.0693   0.0696   0.0709   0.0713   0.0719
  0.0733   0.0738   0.0746   0.0751   0.0754   0.0764   0.0769   0.0777
  0.0781   0.0785   0.0788   0.0795   0.0801   0.0803   0.0811   0.0821
  0.0840   0.0845   0.0852   0.0856   0.0871   0.0876   0.0888   0.0891
  0.0894   0.0902   0.0915   0.0917   0.0926   0.0930   0.0937   0.0946
  0.0953   0.0955   0.0968   0.0974   0.0987   0.0990   0.0997   0.1004
  0.1009   0.1015   0.1016   0.1023   0.1036   0.1037   0.1048   0.1054
  0.1063   0.1067   0.1073   0.1083   0.1089   0.1097   0.1109   0.1123
  0.1123   0.1127   0.1131   0.1138   0.1146   0.1148   0.1150   0.1161
  0.1165   0.1174   0.1178   0.1184   0.1197   0.1204   0.1207   0.1222
  0.1224   0.1243   0.1247   0.1251   0.1252   0.1262   0.1267   0.1271
  0.1277   0.1297   0.1302   0.1303   0.1308   0.1315   0.1325   0.1325
  0.1337   0.1341   0.1349   0.1354   0.1360   0.1374   0.1382   0.1390
  0.1396   0.1403   0.1412   0.1419   0.1426   0.1432   0.1438   0.1442
  0.1452   0.1454   0.1461   0.1475   0.1482   0.1486   0.1490   0.1500
  0.1505   0.1514   0.1522   0.1525   0.1534   0.1536   0.1547   0.1554
  0.1556   0.1564   0.1569   0.1573   0.1579   0.1582   0.1593   0.1598
  0.1603   0.1611   0.1619   0.1631   0.1636   0.1649   0.1653   0.1654
  0.1665   0.1669   0.1676   0.1691   0.1698   0.1701   0.1707   0.1714
  0.1719   0.1730   0.1742   0.1743   0.1747   0.1754   0.1762   0.1765
  0.1773   0.1782   0.1786   0.1799   0.1805   0.1810   0.1817   0.1825
  0.1829   0.1838   0.1842   0.1849   0.1857   0.1860   0.1864   0.1873
  0.1877   0.1881   0.1892   0.1903   0.1907   0.1912   0.1916   0.1917
  0.1924   0.1930   0.1939   0.1940   0.1952   0.1954   0.1963   0.1966
  0.1977   0.1982   0.1986   0.2000   0.2008   0.2019   0.2025   0.2030
  0.2034   0.2037   0.2044   0.2053   0.2058   0.2066   0.2069   0.2074
  0.2085   0.2089   0.2096   0.2101   0.2109   0.2118   0.2131   0.2136
  0.2138   0.2143   0.2150   0.2159   0.2165   0.2172   0.2179   0.2189
  0.2195   0.2201   0.2205   0.2221   0.2230   0.2240   0.2246   0.2253
  0.2260   0.2267   0.2274   0.2277   0.2280   0.2288   0.2295   0.2308
  0.2319   0.2325   0.2334   0.2339   0.2345   0.2357   0.2363   0.2372
  0.2374   0.2381   0.2393   0.2398   0.2413   0.2418   0.2419   0.2423
  0.2434   0.2441   0.2447   0.2462   0.2466   0.2467   0.2471   0.2475
  0.2488   0.2498   0.2502   0.2506   0.2512   0.2531   0.2543   0.2550
  0.2553   0.2561   0.2568   0.2574   0.2581   0.2593   0.2597   0.2604
  0.2624   0.2629   0.2632   0.2645   0.2653   0.2659   0.2673   0.2676
  0.2680   0.2691   0.2697   0.2701   0.2710   0.2724   0.2732   0.2734
  0.2745   0.2766   0.2768   0.2773   0.2778   0.2790   0.2796   0.2800
  0.2808   0.2818   0.2827   0.2834   0.2847   0.2854   0.2856   0.2874
  0.2878   0.2884   0.2896   0.2906   0.2911   0.2924   0.2936   0.2938
  0.2950   0.2955   0.2965   0.2980   0.2986   0.2993   0.3006   0.3011
  0.3022   0.3034   0.3038   0.3048   0.3059   0.3062   0.3068   0.3077
  0.3092   0.3096   0.3104   0.3119   0.3122   0.3124   0.3145   0.3151
  0.3166   0.3168   0.3184   0.3195   0.3203   0.3213   0.3219   0.3235
  0.3238   0.3244   0.3254   0.3260   0.3268   0.3283   0.3287   0.3300
  0.3309   0.3317   0.3331   0.3351   0.3357   0.3373   0.3382   0.3383
  0.3393   0.3404   0.3419   0.3427   0.3434   0.3446   0.3449   0.3454
  0.3461   0.3474   0.3478   0.3492   0.3506   0.3516   0.3524   0.3537
  0.3554   0.3559   0.3565   0.3568   0.3578   0.3589   0.3599   0.3600
  0.3618   0.3628   0.3642   0.3654   0.3658   0.3669   0.3673   0.3675
  0.3690   0.3703   0.3704   0.3717   0.3728   0.3734   0.3738   0.3761
  0.3768   0.3771   0.3781   0.3791   0.3803   0.3806   0.3817   0.3826
  0.3836   0.3851   0.3861   0.3871   0.3873   0.3887   0.3896   0.3902
  0.3904   0.3910   0.3931   0.3942   0.3952   0.3955   0.3959   0.3975
  0.3980   0.3983   0.3994   0.4013   0.4026   0.4030   0.4032   0.4050
  0.4058   0.4067   0.4077   0.4089   0.4094   0.4102   0.4113   0.4125
  0.4144   0.4146   0.4152   0.4154   0.4163   0.4172   0.4195   0.4207
  0.4211   0.4221   0.4239   0.4245   0.4254   0.4265   0.4283   0.4290
  0.4306   0.4311   0.4333   0.4341   0.4349   0.4372   0.4381   0.4383
  0.4389   0.4410   0.4419   0.4430   0.4449   0.4452   0.4463   0.4476
  0.4483   0.4494   0.4511   0.4524   0.4549   0.4550   0.4570   0.4574
  0.4593   0.4606   0.4611   0.4626   0.4646   0.4651   0.4661   0.4675
  0.4702   0.4716   0.4730   0.4733   0.4753   0.4761   0.4780   0.4799
  0.4812   0.4820   0.4843   0.4857   0.4871   0.4899   0.4908   0.4921
  0.4930   0.4934   0.4957   0.4981   0.4998   0.5014   0.5032   0.5051
  0.5059   0.5074   0.5079   0.5101   0.5136   0.5145   0.5160   0.5184
  0.5204   0.5224   0.5235   0.5270   0.5289   0.5297   0.5331   0.5337
  0.5350   0.5383   0.5388   0.5410   0.5425   0.5432   0.5441   0.5461
  0.5494   0.5509   0.5523   0.5528   0.5550   0.5560   0.5581   0.5608
  0.5617   0.5644   0.5656   0.5661   0.5694   0.5705   0.5738   0.5747
  0.5752   0.5773   0.5792   0.5796   0.5810   0.5837   0.5844   0.5858
  0.5881   0.5908   0.5915   0.5938   0.5952   0.5966   0.5976   0.5990
  0.6004   0.6015   0.6031   0.6044   0.6055   0.6084   0.6094   0.6101
  0.6127   0.6130   0.6141   0.6163   0.6174   0.6183   0.6194   0.6210
  0.6216   0.6233   0.6237   0.6270   0.6288   0.6300   0.6305   0.6315
  0.6328   0.6356   0.6361   0.6371   0.6374   0.6391   0.6402   0.6414
  0.6427   0.6442   0.6448   0.6469   0.6496   0.6497   0.6504   0.6526
  0.6540   0.6550   0.6558   0.6578   0.6580   0.6602   0.6606   0.6626
  0.6631   0.6641   0.6668   0.6679   0.6698   0.6713   0.6726   0.6732
  0.6741   0.6758   0.6767   0.6770   0.6799   0.6803   0.6821   0.6839
  0.6845   0.6860   0.6862   0.6885   0.6888   0.6906   0.6914   0.6918
  0.6937   0.6943   0.6949   0.6971   0.6996   0.7005   0.7014   0.7027
  0.7041   0.7059   0.7079   0.7089   0.7100   0.7109   0.7113   0.7143
  0.7151   0.7170   0.7176   0.7200   0.7213   0.7224   0.7246   0.7264
  0.7284   0.7294   0.7300   0.7328   0.7341   0.7350   0.7353   0.7368
  0.7393   0.7398   0.7412   0.7434   0.7456   0.7461   0.7490   0.7499
  0.7510   0.7524   0.7549   0.7577   0.7583   0.7604   0.7610   0.7616
  0.7632   0.7643   0.7650   0.7686   0.7693   0.7705   0.7719   0.7732
  0.7753   0.7763   0.7770   0.7799   0.7826   0.7842   0.7857   0.7862
  0.7893   0.7895   0.7923   0.7932   0.7954   0.7972   0.7980   0.8007
  0.8026   0.8034   0.8047   0.8067   0.8087   0.8095   0.8122   0.8131
  0.8149   0.8175   0.8189   0.8207   0.8214   0.8219   0.8244   0.8252
  0.8257   0.8273   0.8281   0.8299   0.8315   0.8336   0.8358   0.8370
  0.8374   0.8395   0.8407   0.8420   0.8432   0.8439   0.8458   0.8461
  0.8480   0.8488   0.8514   0.8523   0.8540   0.8547   0.8575   0.8611
  0.8622   0.8630   0.8645   0.8648   0.8659   0.8682   0.8688   0.8709
  0.8716   0.8726   0.8742   0.8762   0.8789   0.8794   0.8803   0.8823
  0.8846   0.8847   0.8859   0.8868   0.8882   0.8891   0.8908   0.8928
  0.8946   0.8972   0.8975   0.8991   0.8996   0.9003   0.9013   0.9052
  0.9058   0.9064   0.9087   0.9107   0.9113   0.9121   0.9136   0.9143
  0.9166   0.9172   0.9181   0.9191   0.9201   0.9244   0.9253   0.9275
  0.9287   0.9292   0.9326   0.9334   0.9344   0.9347   0.9362   0.9369
  0.9388   0.9400   0.9424   0.9431   0.9440   0.9447   0.9460   0.9482
  0.9488   0.9501   0.9518   0.9537   0.9549   0.9557   0.9569   0.9571
  0.9585   0.9601   0.9607   0.9623   0.9633   0.9648   0.9665   0.9670
  0.9682   0.9689   0.9708   0.9720   0.9742   0.9745   0.9752   0.9771
  0.9784   0.9802   0.9809   0.9823   0.9835   0.9843   0.9856   0.9865
  0.9877   0.9897   0.9909   0.9920   0.9928   0.9947   0.9965   0.9977
  0.9981   0.9999   1.0004   1.0013   1.0014   1.0032   1.0035   1.0043
  1.0057   1.0065   1.0075   1.0086   1.0114   1.0117   1.0131   1.0135
  1.0166   1.0169   1.0179   1.0190   1.0200   1.0209   1.0214   1.0236
  1.0244   1.0264   1.0282   1.0297   1.0306   1.0315   1.0327   1.0333
  1.0352   1.0361   1.0375   1.0396   1.0413   1.0427   1.0439   1.0449
  1.0458   1.0473   1.0481   1.0502   1.0507   1.0526   1.0542   1.0560
  1.0563   1.0582   1.0599   1.0617   1.0625   1.0635   1.0641   1.0673
  1.0684   1.0704   1.0710   1.0726   1.0735   1.0750   1.0784   1.0801
  1.0809   1.0822   1.0840   1.0849   1.0873   1.0876   1.0892   1.0899
  1.0907   1.0929   1.0950   1.0965   1.0978   1.0996   1.1004   1.1018
  1.1025   1.1043   1.1045   1.1063   1.1075   1.1102   1.1107   1.1131
  1.1149   1.1168   1.1175   1.1205   1.1220   1.1233   1.1252   1.1274
  1.1285   1.1294   1.1308   1.1316   1.1336   1.1348   1.1361   1.1384
  1.1394   1.1411   1.1426   1.1432   1.1453   1.1458   1.1475   1.1483
  1.1499   1.1505   1.1514   1.1540   1.1544   1.1568   1.1575   1.1584
  1.1592   1.1609   1.1628   1.1633   1.1643   1.1664   1.1677   1.1691
  1.1708   1.1719   1.1732   1.1746   1.1776   1.1781   1.1798   1.1812
  1.1828   1.1840   1.1856   1.1865   1.1885   1.1913   1.1940   1.1951
  1.1976   1.1992   1.2025   1.2028   1.2055   1.2080   1.2085   1.2093
  1.2120   1.2130   1.2139   1.2170   1.2180   1.2216   1.2223   1.2240
  1.2253   1.2260   1.2288   1.2295   1.2331   1.2348   1.2356   1.2366
  1.2386   1.2422   1.2437   1.2461   1.2496   1.2516   1.2532   1.2557
  1.2582   1.2588   1.2620   1.2637   1.2686   1.2692   1.2722   1.2747
  1.2774   1.2805   1.2827   1.2829   1.2873   1.2879   1.2893   1.2959
  1.2978   1.3000   1.3035   1.3040   1.3057   1.3084   1.3131   1.3136
  1.3167   1.3179   1.3197   1.3225   1.3252   1.3268   1.3291   1.3314
  1.3322   1.3344   1.3360   1.3392   1.3405   1.3446   1.3459   1.3478
  1.3508   1.3543   1.3551   1.3564   1.3603   1.3604   1.3615   1.3640
  1.3676   1.3677   1.3685   1.3713   1.3733   1.3748   1.3760   1.3781
  1.3797   1.3824   1.3830   1.3854   1.3869   1.3892   1.3898   1.3914
  1.3960   1.3967   1.3983   1.3993   1.4007   1.4014   1.4035   1.4044
  1.4053   1.4065   1.4077   1.4103   1.4107   1.4146   1.4147   1.4165
  1.4184   1.4227   1.4244   1.4264   1.4285   1.4292   1.4303   1.4334
  1.4337   1.4356   1.4365   1.4375   1.4394   1.4404   1.4412   1.4473
  1.4482   1.4497   1.4506   1.4522   1.4536   1.4562   1.4579   1.4610
  1.4624   1.4640   1.4649   1.4675   1.4698   1.4732   1.4744   1.4770
  1.4786   1.4799   1.4824   1.4842   1.4847   1.4859   1.4895   1.4917
  1.4938   1.4964   1.4986   1.4999   1.5016   1.5063   1.5077   1.5116
  1.5136   1.5137   1.5152   1.5185   1.5198   1.5220   1.5236   1.5269
  1.5306   1.5314   1.5344   1.5357   1.5388   1.5403   1.5432   1.5455
  1.5477   1.5503   1.5528   1.5586   1.5597   1.5620   1.5671   1.5684
  1.5734   1.5777   1.5834   1.5839   1.5880   1.5934   1.5982   1.5990
  1.6023   1.6071   1.6087   1.6123   1.6174   1.6205   1.6257   1.6268
  1.6308   1.6339   1.6344   1.6364   1.6452   1.6502   1.6511   1.6513
  1.6609   1.6615   1.6623   1.6643   1.6680   1.6693   1.6726   1.6747
  1.6771   1.6802   1.6806   1.6831   1.6846   1.6859   1.6869   1.6874
  1.6904   1.6917   1.6922   1.6932   1.6953   1.6969   1.6983   1.7000
  1.7029   1.7053   1.7057   1.7070   1.7078   1.7101   1.7107   1.7115
  1.7128   1.7138   1.7152   1.7174   1.7176   1.7198   1.7203   1.7231
  1.7244   1.7256   1.7271   1.7278   1.7283   1.7307   1.7311   1.7341
  1.7355   1.7366   1.7387   1.7395   1.7414   1.7445   1.7467   1.7481
  1.7488   1.7495   1.7503   1.7514   1.7529   1.7538   1.7555   1.7568
  1.7587   1.7602   1.7611   1.7628   1.7642   1.7651   1.7673   1.7718
  1.7725   1.7736   1.7749   1.7766   1.7796   1.7802   1.7835   1.7840
  1.7844   1.7886   1.7902   1.7913   1.7942   1.7963   1.7973   1.8001
  1.8007   1.8028   1.8057   1.8084   1.8122   1.8131   1.8147   1.8176
  1.8231   1.8277   1.8330   1.8355   1.8375   1.8381   1.8426   1.8441
  1.8457   1.8517   1.8540   1.8583   1.8610   1.8625   1.8631   1.8658
  1.8694   1.8719   1.8736   1.8746   1.8770   1.8786   1.8802   1.8822
  1.8837   1.8860   1.8892   1.8898   1.8905   1.8921   1.8931   1.8950
  1.8972   1.8990   1.9004   1.9021   1.9029   1.9044   1.9046   1.9062
  1.9075   1.9080   1.9098   1.9100   1.9127   1.9138   1.9151   1.9187
  1.9195   1.9200   1.9216   1.9225   1.9245   1.9255   1.9278   1.9294
  1.9305   1.9325   1.9331   1.9372   1.9378   1.9389   1.9402   1.9418
  1.9427   1.9435   1.9445   1.9460   1.9498   1.9545   1.9561   1.9604
  1.9610   1.9644   1.9700   1.9720   1.9774   1.9812   1.9879   1.9934
  2.0010   2.0066   2.0095   2.0245   2.0270   2.0281   2.0311   2.0383
  2.0428   2.0485   2.0492   2.0504   2.0553   2.0617   2.0627   2.0641
  2.0680   2.0696   2.0709   2.0724   2.0738   2.0740   2.0763   2.0775
  2.0780   2.0797   2.0804   2.0837   2.0865   2.0879   2.0888   2.0916
  2.0937   2.0951   2.0956   2.0990   2.1002   2.1012   2.1052   2.1085
  2.1099   2.1107   2.1113   2.1127   2.1136   2.1175   2.1192   2.1200
  2.1217   2.1231   2.1241   2.1273   2.1280   2.1316   2.1332   2.1365
  2.1391   2.1428   2.1445   2.1459   2.1551   2.1573   2.1627   2.1641
  2.1708   2.1837   2.1863   2.1888   2.1907   2.1926   2.1938   2.1974
  2.1994   2.2017   2.2082   2.2096   2.2113   2.2126   2.2139   2.2161
  2.2171   2.2186   2.2210   2.2219   2.2227   2.2232   2.2255   2.2260
  2.2281   2.2290   2.2299   2.2317   2.2320   2.2349   2.2360   2.2361
  2.2373   2.2396   2.2411   2.2431   2.2448   2.2453   2.2471   2.2482
  2.2487   2.2522   2.2550   2.2577   2.2589   2.2601   2.2625   2.2631
  2.2642   2.2649   2.2672   2.2682   2.2686   2.2689   2.2702   2.2712
  2.2720   2.2737   2.2755   2.2761   2.2769   2.2775   2.2792   2.2806
  2.2807   2.2818   2.2826   2.2837   2.2848   2.2865   2.2874   2.2878
  2.2895   2.2908   2.2926   2.2932   2.2934   2.2944   2.2950   2.2959
  2.2979   2.2993   2.3002   2.3016   2.3034   2.3047   2.3056   2.3076
  2.3083   2.3103   2.3115   2.3120   2.3132   2.3143   2.3153   2.3166
  2.3173   2.3182   2.3190   2.3206   2.3209   2.3240   2.3246   2.3258
  2.3277   2.3295   2.3302   2.3317   2.3331   2.3345   2.3366   2.3381
  2.3382   2.3409   2.3421   2.3431   2.3463   2.3472   2.3482   2.3493
  2.3500   2.3518   2.3531   2.3548   2.3581   2.3611   2.3633   2.3643
  2.3656   2.3686   2.3705   2.3716   2.3742   2.3748   2.3805   2.3819
  2.3870   2.3889   2.3911   2.3929   2.3991   2.4045   2.4073   2.4131
  2.4156   2.4243   2.4280   2.4409   2.4500   2.4793   2.4907   2.5181
  2.5613   2.5674   2.6045   2.6913   2.7400   2.7613   2.7701   2.8043
  2.8083   2.8254   2.8303   2.8310   2.8398   2.8470   2.8498   2.8510
  2.8539   2.8547   2.8566   2.8578   2.8602   2.8645   2.8658   2.8680
  2.8726   2.8755   2.8809   2.8816   2.8890   2.8927   2.8954   2.8985
  2.9022   2.9073   2.9104   2.9578   3.1128   3.2646   3.9317   3.9581
  3.9620   3.9715   3.9728   3.9754   3.9827   3.9845   3.9856   3.9920
  3.9936   3.9947   3.9975   3.9988   4.0012   4.0048   4.0084   4.0105
  4.0162   4.0201   4.0294   4.0322   4.0398   4.0504   4.2036   4.2178
  4.2273   4.2294   4.2373   4.2385   4.2429   4.2460   4.2526   4.2551
  4.2554   4.2571   4.2583   4.2631   4.2692   4.2719   4.2730   4.2749
  4.2773   4.2813   4.2827   4.2852   4.2880   4.2939   4.2960   4.2994
  4.3022   4.3063   4.3091   4.3129   4.3171   4.3191   4.3214   4.3246
  4.3298   4.3314   4.3317   4.3351   4.3398   4.3412   4.3433   4.3451
  4.3472   4.3527   4.3538   4.3585   4.3625   4.3647   4.3655   4.3716
  4.3724   4.3752   4.3831   4.3881   4.3945   4.3989   4.4058   4.4095
  4.4179   4.4215   4.4232   4.4262   4.4347   4.4426   4.4505   4.4593
  4.4707   4.4763   4.4913   4.5061   4.5189   4.5292   4.5487   4.5840
  4.6094   4.6346   4.6755   4.7339   4.7578   4.7899   4.9314
 --------------------------------------------------------------
 
          Ground-State Mulliken Net Atomic Charges

     Atom                 Charge (a.u.)
  ----------------------------------------
      1 C                    -0.102085
      2 C                    -0.758468
      3 C                    -0.109715
      4 C                    -0.339482
      5 C                    -0.557475
      6 C                    -0.424494
      7 H                     0.213996
      8 H                     0.226661
      9 H                     0.196220
     10 H                     0.206044
     11 H                     0.191335
     12 H                     0.202086
     13 H                     0.178982
     14 H                     0.227667
     15 H                     0.171670
     16 H                     0.213121
     17 H                     0.224734
     18 N                    -0.382125
     19 H                     0.462739
     20 C                     0.313484
     21 H                     0.180358
     22 O                    -0.535251
     23 C                    -0.858102
     24 H                     0.250555
     25 H                     0.247490
     26 H                     0.310254
     27 S                     0.700325
     28 C                    -0.884969
     29 H                     0.246355
     30 H                     0.270207
     31 H                     0.242936
     32 O                    -0.590259
     33 C                    -0.859730
     34 H                     0.255033
     35 H                     0.286286
     36 H                     0.278117
     37 S                     0.899477
     38 C                    -1.002834
     39 H                     0.305719
     40 H                     0.247759
     41 H                     0.260357
     42 O                    -0.672928
     43 C                    -0.984598
     44 H                     0.242512
     45 H                     0.299953
     46 H                     0.258992
     47 S                     1.049334
     48 C                    -0.941837
     49 H                     0.259209
     50 H                     0.272056
     51 H                     0.248400
     52 O                    -0.677487
     53 C                    -0.943108
     54 H                     0.266895
     55 H                     0.235830
     56 H                     0.288665
     57 S                     1.112376
     58 C                    -0.948347
     59 H                     0.245632
     60 H                     0.243546
     61 H                     0.272895
     62 O                    -0.754724
     63 C                    -0.776572
     64 H                     0.232546
     65 H                     0.265246
     66 H                     0.233199
     67 S                     0.902709
     68 C                    -1.042119
     69 H                     0.255969
     70 H                     0.248620
     71 H                     0.299573
     72 O                    -0.691255
     73 C                    -1.004401
     74 H                     0.232031
     75 H                     0.248278
     76 H                     0.294025
     77 S                     1.124616
     78 C                    -0.888535
     79 H                     0.284725
     80 H                     0.225555
     81 H                     0.255025
     82 O                    -0.720586
     83 C                    -0.842699
     84 H                     0.266370
     85 H                     0.287392
     86 H                     0.237565
     87 S                     0.567550
     88 C                    -0.859566
     89 H                     0.284527
     90 H                     0.280377
     91 H                     0.296181
     92 O                    -0.613178
     93 C                    -1.026794
     94 H                     0.237873
     95 H                     0.273798
     96 H                     0.272998
     97 S                     1.276135
     98 C                    -0.993369
     99 H                     0.303206
    100 H                     0.241358
    101 H                     0.271239
    102 O                    -0.769227
    103 C                    -1.013587
    104 H                     0.265753
    105 H                     0.245513
    106 H                     0.260014
    107 S                     1.256595
    108 C                    -0.973922
    109 H                     0.277786
    110 H                     0.271739
    111 H                     0.265259
    112 O                    -0.757372
    113 C                    -0.878357
    114 H                     0.274645
    115 H                     0.238300
    116 H                     0.236883
    117 S                     1.082884
    118 C                    -1.007468
    119 H                     0.254548
    120 H                     0.279804
    121 H                     0.234556
    122 O                    -0.734666
    123 C                    -0.835384
    124 H                     0.269787
    125 H                     0.244368
    126 H                     0.266833
    127 S                     0.753138
    128 C                    -0.783501
    129 H                     0.257947
    130 H                     0.237438
    131 H                     0.270826
    132 O                    -0.670369
    133 C                    -0.783254
    134 H                     0.267664
    135 H                     0.268124
    136 H                     0.273109
    137 S                     0.509781
    138 C                    -0.674219
    139 H                     0.237992
    140 H                     0.248109
    141 H                     0.254381
    142 O                    -0.657968
    143 C                    -0.844302
    144 H                     0.223832
    145 H                     0.263958
    146 H                     0.249312
    147 S                     0.896065
    148 C                    -0.801852
    149 H                     0.273782
    150 H                     0.275953
    151 H                     0.235189
    152 O                    -0.711455
    153 C                    -1.121273
    154 H                     0.234208
    155 H                     0.226733
    156 H                     0.280039
    157 S                     1.338075
    158 C                    -0.967230
    159 H                     0.279669
    160 H                     0.282140
    161 H                     0.248979
    162 O                    -0.746500
    163 C                    -0.910329
    164 H                     0.227697
    165 H                     0.282771
    166 H                     0.257292
    167 S                     1.081534
    168 C                    -0.902266
    169 H                     0.253255
    170 H                     0.250778
    171 H                     0.257071
    172 O                    -0.687144
    173 C                    -0.671718
    174 H                     0.229762
    175 H                     0.279831
    176 H                     0.272215
    177 S                     0.667083
    178 C                    -0.929928
    179 H                     0.224035
    180 H                     0.303978
    181 H                     0.262427
    182 O                    -0.601757
    183 C                    -0.863085
    184 H                     0.258171
    185 H                     0.268038
    186 H                     0.285608
    187 S                     0.872632
    188 C                    -0.837654
    189 H                     0.248443
    190 H                     0.258952
    191 H                     0.266097
    192 O                    -0.750204
    193 C                    -0.791431
    194 H                     0.248612
    195 H                     0.251721
    196 H                     0.250479
    197 S                     0.831446
    198 C                    -0.848521
    199 H                     0.265872
    200 H                     0.268863
    201 H                     0.245160
    202 O                    -0.713852
    203 C                    -0.798844
    204 H                     0.286534
    205 H                     0.271288
    206 H                     0.230379
    207 S                     0.903219
    208 C                    -0.882490
    209 H                     0.259096
    210 H                     0.222901
    211 H                     0.246451
    212 O                    -0.680923
    213 C                    -0.788468
    214 H                     0.320583
    215 H                     0.273256
    216 H                     0.217636
    217 S                     0.596291
    218 C                    -0.807661
    219 H                     0.264659
    220 H                     0.227463
    221 H                     0.265320
    222 O                    -0.677449
    223 C                    -0.839558
    224 H                     0.247448
    225 H                     0.252127
    226 H                     0.256544
    227 S                     0.736810
    228 C                    -0.778830
    229 H                     0.249368
    230 H                     0.280067
    231 H                     0.262666
    232 O                    -0.670637
    233 C                    -0.794241
    234 H                     0.275736
    235 H                     0.231294
    236 H                     0.242689
    237 S                     0.845175
    238 C                    -0.902935
    239 H                     0.250316
    240 H                     0.219805
    241 H                     0.301663
    242 O                    -0.689284
    243 C                    -1.000357
    244 H                     0.273594
    245 H                     0.322163
    246 H                     0.255439
    247 S                     0.699175
    248 C                    -0.717759
    249 H                     0.248786
    250 H                     0.218871
    251 H                     0.252762
    252 O                    -0.651779
    253 C                    -0.744067
    254 H                     0.251517
    255 H                     0.249598
    256 H                     0.258871
    257 S                     0.420686
    258 C                    -0.731493
    259 H                     0.248319
    260 H                     0.264103
    261 H                     0.256410
    262 O                    -0.559896
  ----------------------------------------
  Sum of atomic charges =     0.000000

 -----------------------------------------------------------------
                    Cartesian Multipole Moments
 -----------------------------------------------------------------
    Charge (ESU x 10^10)
                 0.0000
    Dipole Moment (Debye)
         X       1.4570      Y      14.0045      Z      -7.0519
       Tot      15.7473
    Quadrupole Moments (Debye-Ang)
        XX    -899.9682     XY     358.6364     YY      74.7716
        XZ    -131.4994     YZ     231.5239     ZZ   -1116.6196
    Octopole Moments (Debye-Ang^2)
       XXX  -73090.7450    XXY  -19413.4321    XYY     685.2035
       YYY  -29287.2837    XXZ  -28737.1072    XYZ    6457.5942
       YYZ    -240.0844    XZZ  -26727.1862    YZZ  -18593.3484
       ZZZ  -77290.4459
    Hexadecapole Moments (Debye-Ang^3)
      XXXX ************   XXXY ************   XXYY -881484.9906
      XYYY -822833.1482   YYYY ************   XXXZ ************
      XXYZ -606978.0698   XYYZ  -14566.5814   YYYZ -795567.2353
      XXZZ ************   XYZZ -439692.2912   YYZZ -687222.6020
      XZZZ ************   YZZZ ************   ZZZZ ************
 -----------------------------------------------------------------
Archival summary:
[...]
    3  -0.0065502   0.0321911   0.0029398   0.0349713  -0.0000806  -0.0163965
           85          86          87          88          89          90
    1   0.0305362  -0.0043185   0.0235444  -0.0092167  -0.0198415   0.0001792
    2  -0.0121070  -0.0070859   0.0369304  -0.0000053  -0.0066705   0.0341460
    3   0.0052011   0.0275320   0.0397987  -0.0063284   0.0235370  -0.0053365
           91          92          93          94          95          96
    1  -0.0141703   0.0372034   0.0053579  -0.0048414  -0.0023019   0.0249872
    2  -0.0256776  -0.0088915   0.0039251   0.0163093   0.0281817  -0.0189376
    3  -0.0217006  -0.1016942   0.0041451  -0.0226312   0.0277445   0.0014449
           97          98          99         100         101         102
    1  -0.0525144   0.0000149  -0.0192637  -0.0106781   0.0283350   0.0634120
    2   0.0122134   0.0035200   0.0200476  -0.0289976   0.0080362  -0.0804610
    3  -0.0179341   0.0091680   0.0275521   0.0006684   0.0164702  -0.0390476
          103         104         105         106         107         108
    1  -0.0032920   0.0022192   0.0236747  -0.0268018   0.0298481   0.0032211
    2   0.0058392  -0.0218444   0.0204680   0.0214369  -0.0462769   0.0085666
    3   0.0042534   0.0252768   0.0057463  -0.0129874   0.0029602  -0.0074281
          109         110         111         112         113         114
    1   0.0313427   0.0114833  -0.0292199  -0.1086136  -0.0013587   0.0040497
    2   0.0133826  -0.0179084   0.0167843   0.0021057  -0.0058971  -0.0324148
    3   0.0039870  -0.0237911  -0.0050527  -0.0230316  -0.0017664  -0.0028015
          115         116         117         118         119         120
    1  -0.0276437   0.0069685   0.0020723   0.0053790   0.0209031   0.0118804
    2   0.0095283  -0.0047562   0.0568365  -0.0028969   0.0171770   0.0041819
    3   0.0083497  -0.0360959  -0.0292724   0.0012951  -0.0172873   0.0267348
          121         122         123         124         125         126
    1  -0.0009813  -0.0379403   0.0015544   0.0294437  -0.0039545  -0.0135530
    2  -0.0323881  -0.0093744   0.0042369   0.0022625  -0.0229962   0.0230254
    3   0.0033904   0.1020582  -0.0100175   0.0100835  -0.0275688  -0.0200140
          127         128         129         130         131         132
    1   0.0279619  -0.0086157  -0.0184423  -0.0038096  -0.0136308  -0.0158918
    2  -0.0488227   0.0015044   0.0257555  -0.0314784  -0.0049618   0.0937658
    3   0.0323127  -0.0070756  -0.0167494  -0.0138360   0.0265493   0.0569436
          133         134         135         136         137         138
    1   0.0083661   0.0290581   0.0068418  -0.0180565  -0.0566529   0.0043511
    2   0.0040492   0.0179822  -0.0211286   0.0141817  -0.0235726   0.0084732
    3  -0.0089784  -0.0024375  -0.0179929  -0.0202386  -0.0099106   0.0028778
          139         140         141         142         143         144
    1  -0.0067578   0.0252192  -0.0169790   0.0773974  -0.0048634   0.0143318
    2   0.0000086   0.0187291   0.0166933  -0.0547550  -0.0010278   0.0042752
    3   0.0316900  -0.0007638  -0.0223809   0.0545792   0.0095063   0.0342269
          145         146         147         148         149         150
    1  -0.0377169   0.0135284  -0.0092852   0.0027160   0.0211943  -0.0018168
    2  -0.0027968  -0.0242895   0.0499003   0.0007966   0.0188141  -0.0205189
    3  -0.0005109   0.0003837   0.0017176  -0.0108409  -0.0301851   0.0150223
          151         152         153         154         155         156
    1  -0.0263855   0.1033517  -0.0017421  -0.0270114  -0.0032121   0.0161467
    2   0.0164559  -0.0439983   0.0002511  -0.0141218   0.0303413  -0.0221151
    3  -0.0145929   0.0100015  -0.0072546   0.0049550  -0.0164900  -0.0139519
          157         158         159         160         161         162
    1  -0.0175560   0.0145245   0.0254704  -0.0061869   0.0031358   0.0192487
    2   0.0331078   0.0029726  -0.0162347  -0.0173236   0.0350037  -0.1071617
    3   0.0350677  -0.0025260   0.0174567  -0.0296360   0.0040918   0.0104561
          163         164         165         166         167         168
    1  -0.0021791   0.0172706  -0.0060571  -0.0172910   0.0305479   0.0061275
    2   0.0058185   0.0021215   0.0307044  -0.0235526  -0.0496674   0.0038111
    3   0.0049314   0.0296671  -0.0023777   0.0144811   0.0001069  -0.0003632
          169         170         171         172         173         174
    1  -0.0126904   0.0346066   0.0033724  -0.0869565  -0.0068502  -0.0168044
    2   0.0243784  -0.0007411  -0.0072169   0.0156785   0.0035315   0.0219171
    3   0.0097218   0.0080186  -0.0290508  -0.0644635  -0.0044464   0.0130028
          175         176         177         178         179         180
    1  -0.0197496  -0.0175862   0.0251010   0.0036606  -0.0224218   0.0109067
    2  -0.0155146  -0.0210203  -0.0560873   0.0013581   0.0186897  -0.0232404
    3  -0.0244621   0.0143408  -0.0059339   0.0068348   0.0125308   0.0213302
          181         182         183         184         185         186
    1   0.0212353   0.0253294   0.0050152  -0.0179800   0.0055428   0.0295933
    2   0.0186187   0.0862465  -0.0074075  -0.0242795  -0.0052459  -0.0113124
    3  -0.0009911  -0.0746933  -0.0016291   0.0017987  -0.0342939   0.0140834
          187         188         189         190         191         192
    1   0.0202031   0.0023857  -0.0197220  -0.0117029   0.0336739  -0.1054404
    2   0.0423458  -0.0030982   0.0209223  -0.0290827  -0.0131764  -0.0313213
    3  -0.0102007   0.0083339   0.0167377   0.0023025   0.0106516  -0.0161168
          193         194         195         196         197         198
    1  -0.0070295   0.0008579  -0.0325677  -0.0017428   0.0552921  -0.0020024
    2  -0.0006539  -0.0337768   0.0043011   0.0105791  -0.0091833  -0.0067047
    3  -0.0011087  -0.0145970   0.0005713  -0.0295901  -0.0167988   0.0084313
          199         200         201         202         203         204
    1  -0.0036032  -0.0288436   0.0147400  -0.0289813  -0.0068712  -0.0367249
    2   0.0207983  -0.0150633  -0.0330994   0.0906905   0.0042846  -0.0142008
    3   0.0216152   0.0107142  -0.0006648   0.0533944   0.0055883   0.0046014
          205         206         207         208         209         210
    1  -0.0034056  -0.0120401  -0.0120166   0.0027713   0.0031218  -0.0275722
    2   0.0265894   0.0046620  -0.0536403   0.0009336   0.0318946  -0.0064023
    3   0.0222161  -0.0270887  -0.0235473   0.0070258   0.0091893   0.0203212
          211         212         213         214         215         216
    1   0.0272472   0.0762580  -0.0004108  -0.0133388   0.0304210   0.0048920
    2  -0.0207039   0.0652449   0.0049390   0.0103859   0.0052987   0.0324440
    3  -0.0037470  -0.0467837   0.0081662   0.0252724   0.0124971  -0.0177249
          217         218         219         220         221         222
    1   0.0283768  -0.0079565  -0.0023201  -0.0071724  -0.0140685  -0.0278211
    2  -0.0155371  -0.0002912   0.0273646   0.0190516  -0.0318296  -0.0551926
    3  -0.0354912  -0.0024444   0.0240268  -0.0299936  -0.0095318   0.0925634
          223         224         225         226         227         228
    1  -0.0004026   0.0268534  -0.0186800  -0.0019033   0.0517543  -0.0009603
    2   0.0011258   0.0145772   0.0237452  -0.0192675  -0.0256415   0.0016174
    3   0.0079529  -0.0070883   0.0240170   0.0277026  -0.0246386  -0.0040340
          229         230         231         232         233         234
    1  -0.0283216   0.0166970  -0.0079064  -0.0846280  -0.0029787   0.0046027
    2   0.0155638   0.0311743  -0.0086087  -0.0588396   0.0055597  -0.0223593
    3   0.0066927  -0.0039302  -0.0299136   0.0347030   0.0064481   0.0205427
          235         236         237         238         239         240
    1   0.0209149  -0.0297344   0.0537448  -0.0103461  -0.0339564   0.0129749
    2   0.0254693   0.0130931  -0.0052530   0.0009395   0.0058011   0.0239046
    3   0.0117782   0.0000583  -0.0113401  -0.0037925   0.0067488  -0.0124202
          241         242         243         244         245         246
    1  -0.0082423  -0.0594173  -0.0006277   0.0281515  -0.0026322  -0.0221158
    2  -0.0187955  -0.0864052   0.0130787  -0.0013689   0.0219873   0.0122069
    3  -0.0253650   0.0366013   0.0006814   0.0112974  -0.0256746   0.0241087
          247         248         249         250         251         252
    1  -0.0569518  -0.0005987  -0.0164108   0.0064365   0.0317419   0.0667344
    2  -0.0057297  -0.0031214   0.0044233  -0.0303529  -0.0040440  -0.0135976
    3  -0.0003752   0.0066297   0.0255840   0.0070877  -0.0033107  -0.0845056
          253         254         255         256         257         258
    1   0.0004259   0.0288325  -0.0040873  -0.0172533   0.0245080  -0.0077830
    2   0.0042570  -0.0010260   0.0332413  -0.0085891   0.0198598   0.0013767
    3   0.0071112   0.0116964  -0.0065513   0.0264602  -0.0491267   0.0027749
          259         260         261         262
    1  -0.0131786  -0.0222719  -0.0264647   0.0067895
    2   0.0298755  -0.0195365  -0.0081971  -0.1067215
    3  -0.0152950  -0.0117886   0.0255495   0.0392475
  --- DONE ESP SUMMARY ---
Archival summary:
1\1\n0096.mhg0\SP\ProcedureUnspecified\6-31+G*\242448h22\ymao\FriMar1207:02:402021FriMar1207:02:402021\0\\#,ProcedureUnspecified,6-31+G*,\\0,1\S\O,1,1.49713\C,1,1.80699,2,102.308\H,3,1.09202,1,111.825,2,-77.3344,0\H,3,1.09278,1,100.558,2,31.3061,0\H,3,1.09348,1,114.925,2,155.898,0\C,1,1.80776,2,103.991,3,98.2464,0\H,7,1.09238,1,107.692,2,47.3511,0\H,7,1.09281,1,108.841,2,-65.4131,0\H,7,1.09326,1,110.512,2,172.991,0\H,10,2.02404,7,132.169,1,-55.623,0\C,11,1.09287,10,115.016,7,-42.7627,0\H,12,1.09284,11,109.49,10,-77.2525,0\H,12,1.09328,11,106.888,10,50.2494,0\S,12,1.80656,11,113.676,10,160.324,0\O,15,1.4973,12,108.409,11,58.3576,0\C,15,1.80598,12,96.8428,11,166.091,0\H,17,1.09283,15,109.548,12,94.5221,0\H,17,1.09308,15,104.312,12,-147.081,0\H,17,1.09331,15,109.532,12,-25.4919,0\H,20,2.19522,17,102.549,15,104.036,0\C,21,1.09303,20,163.012,17,127.895,0\H,22,1.09236,21,105.63,20,64.119,0\H,22,1.09328,21,107.383,20,-67.5726,0\S,22,1.8062,21,107.952,20,173.676,0\O,25,1.49662,22,105.424,21,164.445,0\C,25,1.80672,22,93.4221,21,59.3065,0\H,27,1.09275,25,110.078,22,162.961,0\H,27,1.09332,25,110.607,22,-83.5202,0\H,27,1.09352,25,117.733,22,44.2841,0\H,23,2.06897,22,148.033,21,156.308,0\C,31,1.09324,23,107.292,22,-110.14,0\H,32,1.09259,31,105.223,23,-170.047,0\H,32,1.09295,31,106.815,23,68.2456,0\S,32,1.8074,31,114.54,23,-55.5055,0\O,35,1.49627,32,110.85,31,79.2806,0\C,35,1.80647,32,103.505,31,-169.726,0\H,37,1.09273,35,110.265,32,56.2348,0\H,37,1.09278,35,113.215,32,-173.528,0\H,37,1.09325,35,104.737,32,-56.0187,0\H,26,2.24901,25,121.342,22,-81.4587,0\C,41,1.09275,26,158.224,25,-122.13,0\H,42,1.09279,41,118.968,26,1.73866,0\H,42,1.09281,41,113.631,26,126.116,0\S,42,1.80722,41,105.088,26,-119.303,0\O,45,1.49672,42,107.516,41,-179.403,0\C,45,1.80729,42,98.9172,41,-69.9039,0\H,47,1.09273,45,110.005,42,169.883,0\H,47,1.09293,45,112.094,42,-74.1232,0\H,47,1.09305,45,110.607,42,56.0109,0\H,4,2.27722,3,102.019,1,-170.69,0\C,51,1.09348,4,113.125,3,131.52,0\H,52,1.09297,51,108.59,4,3.33104,0\H,52,1.09357,51,111.213,4,118.419,0\S,52,1.80718,51,109.17,4,-110.712,0\O,55,1.49724,52,105.782,51,57.9232,0\C,55,1.80689,52,94.8462,51,169.417,0\H,57,1.09286,55,107.143,52,-177.67,0\H,57,1.0929,55,115.073,52,63.7497,0\H,57,1.09323,55,107.568,52,-57.5326,0\H,2,2.37146,1,138.278,3,-108.183,0\C,61,1.09265,2,156.221,1,-90.8559,0\H,62,1.09228,61,114.739,2,123.89,0\H,62,1.09319,61,114.224,2,-0.97548,0\S,62,1.80687,61,106.473,2,-117.102,0\O,65,1.49669,62,102.139,61,-170.869,0\C,65,1.80702,62,98.0588,61,88.5763,0\H,67,1.09217,65,106.07,62,-35.9148,0\H,67,1.09239,65,114.067,62,-158.107,0\H,67,1.09354,65,106.829,62,78.0758,0\Gh,68,2.1135,67,169.609,65,-166.957,0\Gh,71,1.09701,68,120.844,67,37.5372,0\Gh,72,1.09635,71,105.745,68,-81.671,0\Gh,72,1.53714,71,111.916,68,30.555,0\Gh,74,1.09664,72,115.611,71,-47.5313,0\Gh,74,1.09719,72,106.848,71,68.0741,0\Gh,72,1.53765,71,109.829,68,158.47,0\Gh,77,1.0968,72,103.262,71,-74.1802,0\Gh,77,1.09712,72,116.069,71,43.2254,0\Gh,74,1.53767,72,109.193,71,-175.575,0\Gh,80,1.09568,74,111.767,72,-170.371,0\Gh,80,1.09695,74,115.494,72,68.9275,0\Gh,80,1.5375,74,109.178,72,-53.4671,0\Gh,83,1.0968,80,107.464,74,172.165,0\Gh,83,1.09716,80,116.634,74,-71.6677,0\Gh,83,1.53799,80,113.35,74,56.6147,0\Gh,86,1.09668,83,108.099,80,63.8928,0\Gh,86,1.46199,83,108.851,80,178.853,0\Gh,88,1.01308,86,120.402,83,96.1516,0\Gh,88,1.37884,86,124.814,83,-98.2842,0\Gh,90,1.10539,88,116.194,86,-171.217,0\Gh,90,1.21752,88,122.276,86,0.920878,0\H,82,2.06533,80,128.793,74,19.5823,0\C,93,1.09362,82,153.463,80,-28.8121,0\H,94,1.09293,93,111.878,82,-50.0288,0\H,94,1.09355,93,118.369,82,75.3058,0\S,94,1.80717,93,108.971,82,-158.496,0\O,97,1.49688,94,108.223,93,73.4213,0\C,97,1.80663,94,93.7854,93,-177.137,0\H,99,1.09276,97,106.987,94,100.257,0\H,99,1.09307,97,108.824,94,-20.7567,0\H,99,1.09352,97,105.109,94,-134.355,0\H,85,2.2337,83,132.633,80,-158.452,0\C,103,1.09264,85,110.569,83,-167.743,0\H,104,1.09234,103,106.876,85,89.7607,0\H,104,1.09304,103,113.892,85,-144.593,0\S,104,1.80674,103,112.699,85,-31.5438,0\O,107,1.49712,104,104.399,103,170.555,0\C,107,1.8066,104,94.2522,103,-81.2893,0\H,109,1.09245,107,102.216,104,170.559,0\H,109,1.0928,107,105.852,104,56.3843,0\H,109,1.09328,107,102.831,104,-69.7927,0\H,82,2.28698,80,150.682,74,-155.203,0\C,113,1.09334,82,137.944,80,37.0565,0\H,114,1.09289,113,110.427,82,-38.4868,0\H,114,1.09324,113,117.434,82,74.2175,0\S,114,1.8062,113,106.666,82,-156.875,0\O,117,1.49728,114,100.095,113,152.531,0\C,117,1.80746,114,99.2643,113,-94.8656,0\H,119,1.09229,117,107.714,114,60.8655,0\H,119,1.09267,117,109.948,114,173.449,0\H,119,1.09315,117,116.033,114,-61.2112,0\H,116,2.2448,114,129.522,113,35.8437,0\C,123,1.09388,116,135.152,114,-131.517,0\H,124,1.09214,123,102.317,116,-128.837,0\H,124,1.09355,123,111.478,116,116.471,0\S,124,1.80682,123,105.228,116,-4.96233,0\O,127,1.49678,124,91.3959,123,156.338,0\C,127,1.80675,124,91.6283,123,-102.049,0\H,129,1.0925,127,115.219,124,76.0601,0\H,129,1.09289,127,102.658,124,-48.6367,0\H,129,1.09301,127,111.472,124,-159.422,0\H,92,2.29207,90,160.529,88,-132.151,0\C,133,1.09252,92,124.365,90,-102.545,0\H,134,1.09308,133,102.72,92,-124.59,0\H,134,1.09331,133,110.839,92,-7.66475,0\S,134,1.80742,133,114.941,92,115.341,0\O,137,1.49649,134,104.326,133,62.8339,0\C,137,1.80711,134,91.3407,133,-38.0997,0\H,139,1.09259,137,114.025,134,60.8389,0\H,139,1.09274,137,108.93,134,-62.5028,0\H,139,1.09356,137,106.141,134,-175.113,0\O,89,2.30066,88,149.627,86,105.01,0\S,143,1.49763,89,152.808,88,-100.074,0\C,144,1.80607,143,108.488,89,-100.213,0\H,145,1.09222,144,103.243,143,56.9488,0\H,145,1.09305,144,110.416,143,-177.745,0\H,145,1.09352,144,104.395,143,-50.6203,0\C,144,1.80727,143,104.422,89,159.149,0\H,149,1.09182,144,109.495,143,88.0528,0\H,149,1.09312,144,109.482,143,-152.039,0\H,149,1.09319,144,105.744,143,-36.3237,0\H,75,2.39217,74,105.582,72,167.036,0\C,153,1.09285,75,102.963,74,176.451,0\H,154,1.09233,153,108.961,75,-163.319,0\H,154,1.09287,153,110.319,75,-47.6319,0\S,154,1.80714,153,108.356,75,82.3724,0\O,157,1.49724,154,112.902,153,71.1819,0\C,157,1.80689,154,95.6264,153,-173.417,0\H,159,1.09258,157,108.011,154,-167.551,0\H,159,1.09276,157,104.65,154,69.144,0\H,159,1.0929,157,106.177,154,-49.2155,0\H,161,2.16348,159,101.356,157,176.304,0\C,163,1.09283,161,141.828,159,173.174,0\H,164,1.09265,163,115.256,161,-112.668,0\H,164,1.09285,163,109.571,161,115.447,0\S,164,1.80776,163,106.188,161,5.79728,0\O,167,1.49697,164,113.807,163,-40.462,0\C,167,1.80677,164,98.2156,163,59.4564,0\H,169,1.09241,167,109.014,164,-24.991,0\H,169,1.09276,167,110.544,164,99.0311,0\H,169,1.09304,167,108.481,164,-149.112,0\H,140,2.39628,139,133.917,137,-174.767,0\C,173,1.0924,140,161.207,139,91.5693,0\H,174,1.09331,173,113.08,140,42.3192,0\H,174,1.0935,173,107.805,140,-78.6268,0\S,174,1.80712,173,105.524,140,162.578,0\O,177,1.4966,174,110.215,173,176.334,0\C,177,1.80666,174,98.6465,173,76.1121,0\H,179,1.09276,177,110.304,174,31.9983,0\H,179,1.09285,177,108.218,174,-85.7587,0\H,179,1.09333,177,111.042,174,149.745,0\O,91,2.4102,90,114.836,88,-148.966,0\S,183,1.49698,91,153.338,90,38.9568,0\C,184,1.80678,183,105.158,91,-176.348,0\H,185,1.09281,184,103.245,183,67.1186,0\H,185,1.09298,184,111.117,183,-177.887,0\H,185,1.0932,184,112.825,183,-53.2247,0\C,184,1.80713,183,107.134,91,79.7029,0\H,189,1.09277,184,107.879,183,-60.576,0\H,189,1.09286,184,104.697,183,66.546,0\H,189,1.09329,184,104.186,183,179.965,0\H,111,2.46936,109,123.058,107,110.147,0\C,193,1.09295,111,153.584,109,-64.791,0\H,194,1.09283,193,111.089,111,161.269,0\H,194,1.09289,193,111.253,111,-69.0091,0\S,194,1.80707,193,109.067,111,47.4917,0\O,197,1.49767,194,102.415,193,-38.8835,0\C,197,1.80721,194,92.9958,193,63.5295,0\H,199,1.09255,197,105.372,194,84.2598,0\H,199,1.09273,197,107.984,194,-159.399,0\H,199,1.0934,197,118.54,194,-47.6023,0\O,193,2.36036,111,68.8509,109,170.762,0\S,203,1.49664,193,111.482,111,121.022,0\C,204,1.80646,203,101.46,193,88.9456,0\H,205,1.09306,204,110.307,203,-92.3948,0\H,205,1.09323,204,108.826,203,26.4566,0\H,205,1.09332,204,110.982,203,145.438,0\C,204,1.8072,203,102.043,193,-170.761,0\H,209,1.09251,204,108.367,203,92.6403,0\H,209,1.09307,204,108.57,203,-145.52,0\H,209,1.09336,204,109.795,203,-20.7587,0\O,113,2.47366,82,82.5722,80,-88.8376,0\S,213,1.49772,113,131.922,82,-59.313,0\C,214,1.80638,213,101.316,113,-52.3254,0\H,215,1.09262,214,110.395,213,98.0836,0\H,215,1.09279,214,110.443,213,-133.964,0\H,215,1.0929,214,110.682,213,-21.9599,0\C,214,1.80675,213,99.7597,113,-148.255,0\H,219,1.0928,214,107.76,213,-148.302,0\H,219,1.09292,214,109.131,213,93.4636,0\H,219,1.09319,214,110.893,213,-34.9783,0\H,158,2.50757,157,101.341,154,-76.119,0\C,223,1.0931,158,167.9,157,-26.6698,0\H,224,1.09339,223,106.907,158,-22.3397,0\H,224,1.0934,223,105.962,158,88.3366,0\S,224,1.80676,223,119.337,158,-136.309,0\O,227,1.49715,224,98.2793,223,70.9966,0\C,227,1.80735,224,93.3209,223,-27.4166,0\H,229,1.09285,227,109.048,224,51.6142,0\H,229,1.09329,227,110.274,224,175.348,0\H,229,1.09387,227,107.933,224,-66.5809,0\H,186,2.5504,185,101.843,184,-98.0206,0\C,233,1.09283,186,101.193,185,-103.02,0\H,234,1.09282,233,109.402,186,-27.6911,0\H,234,1.09339,233,110.49,186,97.4256,0\S,234,1.80655,233,108.888,186,-142.464,0\O,237,1.49722,234,111.353,233,-80.3929,0\C,237,1.80732,234,93.1902,233,176.384,0\H,239,1.09198,237,110.041,234,-67.4549,0\H,239,1.09284,237,107.27,234,166.158,0\H,239,1.09314,237,99.684,234,49.893,0\H,238,2.36468,237,103.231,234,27.9505,0\C,243,1.09297,238,162.344,237,-73.5497,0\H,244,1.09244,243,111.667,238,-138.188,0\H,244,1.09288,243,111.277,238,94.9579,0\S,244,1.80684,243,108.789,238,-19.7358,0\O,247,1.49683,244,100.933,243,-150.661,0\C,247,1.8075,244,96.091,243,-49.147,0\H,249,1.09273,247,109.223,244,64.4683,0\H,249,1.09292,247,108.684,244,-63.7459,0\H,249,1.09298,247,109.507,244,178.821,0\H,245,2.33372,244,140.468,243,-179.029,0\C,253,1.0928,245,153.377,244,14.942,0\H,254,1.09231,253,116.315,245,-168.309,0\H,254,1.0937,253,110.032,245,-49.4991,0\S,254,1.80673,253,106.055,245,71.6391,0\O,257,1.4964,254,104.082,253,-170.816,0\C,257,1.80668,254,96.7915,253,-66.9637,0\H,259,1.09241,257,112.699,254,-159.769,0\H,259,1.09312,257,106.725,254,80.1633,0\H,259,1.09377,257,107.795,254,-39.0713,0\\\@

 Total job time:  61.70s(wall), 186.88s(cpu) 
 Fri Mar 12 07:02:40 2021

        *************************************************************
        *                                                           *
        *  Thank you very much for using Q-Chem.  Have a nice day.  *
        *                                                           *
        *************************************************************


