                  Welcome to Q-Chem
     A Quantum Leap Into The Future Of Chemistry


 Q-Chem 5.2 (devel), Q-Chem, Inc., Pleasanton, CA (2019)

 Yihan Shao,  Zhengting Gan,  E. Epifanovsky,  A. T. B. Gilbert,  M. Wormit,  
 J. Kussmann,  A. W. Lange,  A. Behn,  Jia Deng,  Xintian Feng,  D. Ghosh,  
 M. Goldey,  P. R. Horn,  L. D. Jacobson,  I. Kaliman,  T. Kus,  A. Landau,  
 Jie Liu,  E. I. Proynov,  R. M. Richard,  R. P. Steele,  E. J. Sundstrom,  
 H. L. Woodcock III,  P. M. Zimmerman,  D. Zuev,  B. Alam,  B. Albrecht,  
 E. Alguire,  S. A. Baeppler,  D. Barton,  Z. Benda,  Y. A. Bernard,  
 E. J. Berquist,  K. B. Bravaya,  H. Burton,  K. Carter-Fenk,  D. Casanova,  
 Chun-Min Chang,  Yunqing Chen,  A. Chien,  K. D. Closser,  M. P. Coons,  
 S. Coriani,  S. Dasgupta,  A. L. Dempwolff,  M. Diedenhofen,  Hainam Do,  
 R. G. Edgar,  Po-Tung Fang,  S. Faraji,  S. Fatehi,  Qingguo Feng,  
 J. Fosso-Tande,  J. Gayvert,  Qinghui Ge,  A. Ghysels,  G. Gidofalvi,  
 J. Gomes,  J. Gonthier,  A. Gunina,  D. Hait,  M. W. D. Hanson-Heine,  
 P. H. P. Harbach,  A. W. Hauser,  M. F. Herbst,  J. E. Herr,  
 E. G. Hohenstein,  Z. C. Holden,  Kerwin Hui,  B. C. Huynh,  T.-C. Jagau,  
 Hyunjun Ji,  B. Kaduk,  K. Khistyaev,  Jaehoon Kim,  P. Klunzinger,  K. Koh,  
 D. Kosenkov,  L. Koulias,  T. Kowalczyk,  C. M. Krauter,  A. Kunitsa,  
 Ka Un Lao,  A. Laurent,  K. V. Lawler,  Joonho Lee,  D. Lefrancois,  
 S. Lehtola,  D. S. Levine,  Yi-Pei Li,  You-Sheng Lin,  Fenglai Liu,  
 Kuan-Yu Liu,  E. Livshits,  M. Loipersberger,  A. Luenser,  P. Manohar,  
 E. Mansoor,  S. F. Manzer,  Shan-Ping Mao,  Yuezhi Mao,  N. Mardirossian,  
 A. V. Marenich,  T. Markovich,  L. A. Martinez-Martinez,  S. A. Maurer,  
 N. J. Mayhall,  S. C. McKenzie,  J.-M. Mewes,  P. Morgante,  A. F. Morrison,  
 J. W. Mullinax,  K. Nanda,  T. S. Nguyen-Beck,  R. Olivares-Amaya,  
 J. A. Parkhill,  S. K. Paul,  F. Pavosevic,  Zheng Pei,  T. M. Perrine,  
 F. Plasser,  P. Pokhilko,  S. Prager,  A. Prociuk,  E. Ramos,  B. Rana,  
 D. R. Rehn,  F. Rob,  M. Scheurer,  M. Schneider,  N. Sergueev,  
 S. M. Sharada,  S. Sharma,  D. W. Small,  T. Stauch,  C. J. Stein,  
 T. Stein,  Yu-Chuan Su,  S. P. Veccham,  Zhen Tao,  A. J. W. Thom,  
 A. Tkatchenko,  T. Tsuchimochi,  N. M. Tubman,  L. Vogt,  M. L. Vidal,  
 O. Vydrov,  M. A. Watson,  J. Wenzel,  M. de Wergifosse,  T. A. Wesolowski,  
 A. White,  J. Witte,  A. Yamada,  Jun Yang,  K. Yao,  S. Yeganeh,  
 S. R. Yost,  Zhi-Qiang You,  A. Zech,  Igor Ying Zhang,  Xing Zhang,  
 Yan Zhao,  Ying Zhu,  B. R. Brooks,  G. K. L. Chan,  C. J. Cramer,  
 M. S. Gordon,  W. J. Hehre,  A. Klamt,  M. W. Schmidt,  C. D. Sherrill,  
 D. G. Truhlar,  A. Aspuru-Guzik,  R. Baer,  A. T. Bell,  N. A. Besley,  
 Jeng-Da Chai,  A. E. DePrince, III,  R. A. DiStasio Jr.,  A. Dreuw,  
 B. D. Dunietz,  T. R. Furlani,  Chao-Ping Hsu,  Yousung Jung,  Jing Kong,  
 D. S. Lambrecht,  WanZhen Liang,  C. Ochsenfeld,  V. A. Rassolov,  
 L. V. Slipchenko,  J. E. Subotnik,  T. Van Voorhis,  J. M. Herbert,  
 A. I. Krylov,  P. M. W. Gill,  M. Head-Gordon

 Contributors to earlier versions of Q-Chem not listed above: 
 R. D. Adamson,  B. Austin,  J. Baker,  G. J. O. Beran,  K. Brandhorst,  
 S. T. Brown,  E. F. C. Byrd,  A. K. Chakraborty,  C.-L. Cheng,  
 Siu Hung Chien,  D. M. Chipman,  D. L. Crittenden,  H. Dachsel,  
 R. J. Doerksen,  A. D. Dutoi,  L. Fusti-Molnar,  W. A. Goddard III,  
 A. Golubeva-Zadorozhnaya,  S. R. Gwaltney,  G. Hawkins,  A. Heyden,  
 S. Hirata,  G. Kedziora,  F. J. Keil,  C. Kelley,  Jihan Kim,  R. A. King,  
 R. Z. Khaliullin,  P. P. Korambath,  W. Kurlancheek,  A. M. Lee,  M. S. Lee,  
 S. V. Levchenko,  Ching Yeh Lin,  D. Liotard,  R. C. Lochan,  I. Lotan,  
 P. E. Maslen,  N. Nair,  D. P. O'Neill,  D. Neuhauser,  E. Neuscamman,  
 C. M. Oana,  R. Olson,  B. Peters,  R. Peverati,  P. A. Pieniazek,  
 Y. M. Rhee,  J. Ritchie,  M. A. Rohrdanz,  E. Rosta,  N. J. Russ,  
 H. F. Schaefer III,  N. E. Schultz,  N. Shenvi,  A. C. Simmonett,  A. Sodt,  
 D. Stuck,  K. S. Thanthiriwatte,  V. Vanovschi,  Tao Wang,  A. Warshel,  
 C. F. Williams,  Q. Wu,  X. Xu,  W. Zhang

 Please cite Q-Chem as follows:
 Y. Shao et al., Mol. Phys. 113, 184-215 (2015)
 DOI: 10.1080/00268976.2014.952696

 Q-Chem 5.2.2 for Intel X86 EM64T Linux

 Parts of Q-Chem use Armadillo 9.800.1 (Horizon Scraper).
 http://arma.sourceforge.net/

 Q-Chem begins on Thu Mar 11 13:37:36 2021  

Host: n0080.mhg0
0

     Scratch files written to /local/scratch/users/ymao/r7.00_frame_0065_almo_B3LYP_dp.in20210311133734//

Checking the input file for inconsistencies... 	...done.

--------------------------------------------------------------
User input:
--------------------------------------------------------------
$molecule
0 1
--
0 1
C    28.79300   22.82700   25.12900  
C    28.60200   23.86400   26.24700  
C    28.63700   25.31000   25.72600  
C    27.67400   25.51000   24.54400  
C    27.87800   24.53600   23.37200  
C    27.82100   23.12300   23.97400  
H    28.48500   25.99600   26.56800  
H    27.62400   23.69900   26.71700  
H    29.85600   22.87700   24.86400  
H    28.57000   21.84700   25.56900  
H    26.64400   25.41000   24.90600  
H    27.84500   26.55000   24.24000  
H    27.17500   24.70300   22.54700  
H    28.84700   24.82300   22.94600  
H    26.81600   22.91600   24.36200  
H    28.08600   22.49700   23.11300  
H    29.64000   25.54600   25.34900  
N    29.63800   23.72300   27.26800  
H    30.61100   23.70500   26.98800  
C    29.43600   24.00400   28.60300  
H    30.36100   23.84300   29.18600  
O    28.32300   24.22900   29.04400  
--
0 1
C    27.51200   30.64300   22.64400  
H    28.34700   30.59600   21.93900  
H    27.37700   31.65800   23.02600  
H    27.57400   29.81300   23.35300  
S    26.18500   30.13500   21.52800  
C    25.03500   29.82900   22.88700  
H    25.44600   29.04700   23.53100  
H    24.85100   30.71700   23.49800  
H    24.10800   29.51600   22.40100  
O    26.64400   28.76100   21.14900  
C    25.83700   26.80100   29.74500  
H    26.18000   25.84600   29.33800  
H    25.16500   27.27100   29.02300  
H    26.72500   27.43000   29.84900  
S    25.10200   26.46800   31.36200  
C    24.33900   24.88100   30.95600  
H    24.72400   24.32300   30.09900  
H    24.37600   24.28000   31.86900  
H    23.31600   25.21100   30.75800  
O    23.96700   27.44000   31.45100  
C    30.30100   27.20900   29.82600  
H    31.06700   26.55500   30.25100  
H    29.50500   26.48400   29.63900  
H    30.54900   27.56600   28.82300  
S    29.81300   28.51100   30.98000  
C    29.06600   27.43300   32.22300  
H    28.80800   26.62400   31.53500  
H    29.73000   27.05900   33.00700  
H    28.10400   27.82800   32.56000  
O    28.55700   28.98200   30.31600  
C    32.09300   24.12300   34.03300  
H    31.11000   24.26800   34.48600  
H    32.27400   23.04700   34.10300  
H    32.84700   24.80000   34.44300  
S    32.00300   24.55100   32.27900  
C    33.51700   23.65100   31.87700  
H    33.18500   22.61600   31.76100  
H    33.96800   23.96700   30.93300  
H    34.28200   23.65200   32.65800  
O    32.40600   25.99200   32.34400  
C    31.41600   19.37700   23.82600  
H    31.16900   19.27800   24.88700  
H    32.25600   18.72500   23.57500  
H    31.69600   20.39800   23.55400  
S    30.08400   18.89600   22.70300  
C    30.97600   19.39900   21.21400  
H    31.83800   18.74400   21.06800  
H    30.25500   19.32800   20.39500  
H    31.34900   20.42500   21.25700  
O    28.92500   19.82200   22.90000  
C    23.08100   20.60900   32.79500  
H    23.68300   19.70500   32.67400  
H    23.63800   21.29800   33.43500  
H    22.17800   20.34900   33.35300  
S    22.81300   21.45900   31.22300  
C    21.58400   22.64400   31.81400  
H    22.11000   23.32500   32.48700  
H    21.21500   23.09100   30.88700  
H    20.82700   22.00000   32.26900  
O    21.95200   20.52300   30.43500  
C    33.83700   17.08000   28.87200  
H    34.80700   16.59700   29.01200  
H    33.61100   17.49600   29.85700  
H    32.99400   16.42400   28.64200  
S    34.01000   18.30500   27.55500  
C    33.44800   17.33800   26.13500  
H    32.38400   17.21800   25.91700  
H    33.78600   17.79600   25.20200  
H    33.88400   16.33600   26.16500  
O    35.46500   18.36000   27.20700  
C    30.74400   19.16100   30.97800  
H    31.79100   18.91600   30.77900  
H    30.49800   19.38800   32.01900  
H    30.07900   18.40600   30.55200  
S    30.16800   20.63100   30.10100  
C    31.15300   20.19800   28.65000  
H    30.83500   19.20400   28.32400  
H    30.94000   20.97800   27.91500  
H    32.22300   20.18000   28.87100  
O    31.07000   21.67300   30.68500  
C    29.10200   22.22000   19.89800  
H    28.03900   22.07600   19.69200  
H    29.44500   21.47300   20.61800  
H    29.31500   23.19000   20.35400  
S    30.01600   22.05400   18.34700  
C    29.38300   20.43300   17.85800  
H    29.75500   19.59000   18.44600  
H    28.29700   20.52900   17.93900  
H    29.55100   20.35600   16.78100  
O    31.41100   21.82400   18.83700  
C    26.26700   23.17200   34.33200  
H    25.77000   22.62900   35.14000  
H    26.99800   23.88200   34.72800  
H    25.53500   23.74100   33.75300  
S    27.29600   22.14800   33.25600  
C    28.07900   23.42600   32.24600  
H    27.22300   23.91700   31.77700  
H    28.63500   24.08300   32.91900  
H    28.69400   22.96800   31.46700  
O    26.51300   21.54900   32.13000  
C    21.34700   19.13300   26.07500  
H    21.02000   18.09000   26.07700  
H    22.31700   19.32100   25.60700  
H    21.55800   19.55700   27.06000  
S    20.20700   20.21700   25.18700  
C    20.83000   19.72900   23.56300  
H    20.50800   18.71800   23.30000  
H    20.52400   20.47100   22.82100  
H    21.91200   19.88400   23.56500  
O    20.96700   21.48900   25.39700  
C    34.30000   28.04600   25.80700  
H    34.00100   27.88900   26.84700  
H    33.72500   28.89300   25.42400  
H    33.98400   27.17500   25.22800  
S    36.08800   28.29300   25.72200  
C    36.21300   27.83900   23.97700  
H    35.99600   28.71200   23.35600  
H    37.25300   27.55500   23.79500  
H    35.47600   27.06000   23.76700  
O    36.67100   27.05400   26.32600  
C    28.66600   28.86600   26.67900  
H    28.59700   29.95200   26.57300  
H    27.85000   28.33300   26.18400  
H    28.72900   28.62900   27.74400  
S    30.36400   28.51900   26.17000  
C    31.24900   29.91300   26.90400  
H    31.04800   30.71300   26.18600  
H    30.73700   30.29100   27.79300  
H    32.32100   29.73900   27.02400  
O    30.35700   28.85400   24.71100  
C    26.20800   18.49700   33.16900  
H    26.89100   18.06800   33.90600  
H    25.97800   19.55800   33.29500  
H    25.28400   17.91900   33.08300  
S    27.12300   18.46000   31.61200  
C    25.73000   18.42500   30.46100  
H    25.17500   17.48400   30.47000  
H    24.99600   19.19900   30.70100  
H    26.18100   18.57000   29.47600  
O    27.61200   17.05800   31.42300  
C    31.79800   25.39600   19.07500  
H    32.39200   25.69800   19.94200  
H    31.41000   24.37900   18.97900  
H    32.34100   25.61100   18.15000  
S    30.40900   26.55100   19.11700  
C    29.92400   26.26700   20.83400  
H    28.99600   26.81800   21.00400  
H    29.75600   25.19500   20.96400  
H    30.75400   26.54400   21.49000  
O    29.33800   25.76900   18.42300  
C    36.38000   21.58000   24.80900  
H    36.31000   21.93600   25.84000  
H    37.24100   20.90800   24.78500  
H    36.38300   22.38900   24.07400  
S    34.86300   20.64000   24.53000  
C    35.15700   20.21700   22.79800  
H    35.95400   19.47200   22.85800  
H    34.24700   19.80800   22.35300  
H    35.51500   21.11900   22.29400  
O    33.81600   21.71000   24.52400  
C    25.73600   31.64000   26.92900  
H    26.34700   32.35600   27.48300  
H    26.42300   30.85100   26.61400  
H    25.10600   32.06600   26.14400  
S    24.40200   31.11900   28.03200  
C    25.62800   30.23800   29.02500  
H    25.21900   29.41700   29.61800  
H    26.32500   29.77700   28.32000  
H    26.18500   30.87100   29.72100  
O    23.73800   30.12200   27.13400  
C    22.24400   22.91500   21.89200  
H    22.72400   22.45100   21.02700  
H    22.82900   23.78900   22.18700  
H    22.13000   22.21500   22.72500  
S    20.57500   23.45600   21.46000  
C    19.96000   24.12300   23.02200  
H    20.34100   23.46700   23.80900  
H    20.42300   25.10300   23.16300  
H    18.87200   24.20900   23.08100  
O    19.81100   22.19400   21.20400  
C    23.99900   26.88700   26.17800  
H    24.72100   27.37600   26.83700  
H    24.33800   27.20100   25.18700  
H    22.99000   27.26900   26.35300  
S    23.87100   25.08500   26.16100  
C    22.56800   24.89200   24.92400  
H    22.28600   23.85200   24.74400  
H    21.69900   25.46300   25.26100  
H    22.89200   25.34600   23.98400  
O    23.23000   24.77400   27.47800  
C    33.09900   29.36800   22.28200  
H    33.51900   28.71500   21.51200  
H    33.68700   29.47200   23.19800  
H    32.12300   29.01400   22.62100  
S    32.83000   31.04600   21.66800  
C    31.67700   31.55700   22.96200  
H    30.88100   30.80800   22.95000  
H    32.22700   31.65300   23.90200  
H    31.38600   32.58500   22.73200  
O    31.89100   30.68400   20.55900  
C    25.36100   19.78400   23.77000  
H    25.29200   18.85500   24.34100  
H    26.21600   20.43900   23.95300  
H    24.46600   20.38400   23.95200  
S    25.42400   19.30900   22.02800  
C    25.81900   20.92800   21.33200  
H    25.61700   20.83200   20.26200  
H    25.11400   21.64800   21.75500  
H    26.86400   21.16400   21.54800  
O    23.97100   19.22900   21.67600  
C    26.46400   21.51700   28.86200  
H    27.46500   21.08400   28.92800  
H    26.40400   22.59900   29.00600  
H    25.83400   21.01800   29.60300  
S    25.65000   21.05500   27.31600  
C    23.95000   21.33600   27.86000  
H    23.91200   22.40200   28.09500  
H    23.23900   21.14300   27.05200  
H    23.85800   20.73300   28.76700  
O    25.99000   19.59800   27.28000  
C    24.45200   26.10100   22.08200  
H    24.96400   27.05100   22.25300  
H    23.37700   26.24300   22.21500  
H    24.83100   25.31100   22.73600  
S    24.81200   25.67000   20.36500  
C    23.90200   27.09100   19.71900  
H    23.05400   27.38400   20.34500  
H    24.59500   27.92500   19.58400  
H    23.46100   26.73700   18.78400  
O    23.85800   24.53700   20.14400  
C    32.69800   23.48400   22.08100  
H    31.77500   23.87800   21.64700  
H    33.37300   23.26800   21.24900  
H    32.52300   22.59000   22.68600  
S    33.40900   24.88100   22.97900  
C    31.94100   25.08100   24.01200  
H    32.21300   25.70500   24.86800  
H    31.16000   25.49300   23.36900  
H    31.62900   24.06600   24.27100  
O    33.13100   26.06100   22.10000  
C    28.27500   18.15100   26.11000  
H    28.73400   18.46900   25.17100  
H    27.22700   17.95500   25.86900  
H    28.36800   19.01700   26.77000  
S    29.12700   16.69100   26.75000  
C    28.32800   16.92400   28.35400  
H    27.24700   17.03200   28.22800  
H    28.46600   16.10400   29.06300  
H    28.73500   17.84800   28.77200  
O    30.44800   17.33400   27.03800  
C    25.63500   22.24300   15.47300  
H    24.96500   21.38000   15.42600  
H    25.24500   23.04600   14.84200  
H    26.66500   22.01700   15.18500  
S    25.49300   22.68900   17.21800  
C    26.82200   23.91300   17.19500  
H    27.64900   23.29100   16.84100  
H    26.65500   24.76600   16.53300  
H    27.07300   24.24200   18.20600  
O    26.18000   21.58300   17.95800  
C    34.57900   24.36900   26.33300  
H    35.59800   24.02400   26.52400  
H    34.02800   23.77700   25.59800  
H    34.64600   25.42900   26.07500  
S    33.86700   24.43000   27.99300  
C    33.62600   22.63900   28.00100  
H    34.63800   22.25200   28.14700  
H    32.95100   22.35100   28.81100  
H    33.17600   22.40700   27.03300  
O    32.48000   24.96200   27.80700  
$end

$rem
JOBTYPE  SP
METHOD  B3LYP
BASIS  6-31+G(D)
SYMMETRY  FALSE
SYM_IGNORE  TRUE
MEM_TOTAL  16000
MEM_STATIC  8000
MAX_SUB_FILE_NUM  16000
BASIS_LIN_DEP_THRESH  6
THRESH  14
SCF_CONVERGENCE  8
GEN_SCFMAN  TRUE
SCF_GUESS  FRAGMO
FD_MAT_VEC_PROD  FALSE
XC_GRID  000075000302
NL_GRID  1
MAX_SCF_CYCLES  200
FRGM_METHOD  STOLL
SCFMI_MODE  1
$end

$development
almo_efield  1
$end

$rem_frgm
SCF_CONVERGENCE  4
$end

--------------------------------------------------------------
 ----------------------------------------------------------------
             Standard Nuclear Orientation (Angstroms)
    I     Atom           X                Y                Z
 ----------------------------------------------------------------
    1      C      28.7930000000    22.8270000000    25.1290000000
    2      C      28.6020000000    23.8640000000    26.2470000000
    3      C      28.6370000000    25.3100000000    25.7260000000
    4      C      27.6740000000    25.5100000000    24.5440000000
    5      C      27.8780000000    24.5360000000    23.3720000000
    6      C      27.8210000000    23.1230000000    23.9740000000
    7      H      28.4850000000    25.9960000000    26.5680000000
    8      H      27.6240000000    23.6990000000    26.7170000000
    9      H      29.8560000000    22.8770000000    24.8640000000
   10      H      28.5700000000    21.8470000000    25.5690000000
   11      H      26.6440000000    25.4100000000    24.9060000000
   12      H      27.8450000000    26.5500000000    24.2400000000
   13      H      27.1750000000    24.7030000000    22.5470000000
   14      H      28.8470000000    24.8230000000    22.9460000000
   15      H      26.8160000000    22.9160000000    24.3620000000
   16      H      28.0860000000    22.4970000000    23.1130000000
   17      H      29.6400000000    25.5460000000    25.3490000000
   18      N      29.6380000000    23.7230000000    27.2680000000
   19      H      30.6110000000    23.7050000000    26.9880000000
   20      C      29.4360000000    24.0040000000    28.6030000000
   21      H      30.3610000000    23.8430000000    29.1860000000
   22      O      28.3230000000    24.2290000000    29.0440000000
   23      C      27.5120000000    30.6430000000    22.6440000000
   24      H      28.3470000000    30.5960000000    21.9390000000
   25      H      27.3770000000    31.6580000000    23.0260000000
   26      H      27.5740000000    29.8130000000    23.3530000000
   27      S      26.1850000000    30.1350000000    21.5280000000
   28      C      25.0350000000    29.8290000000    22.8870000000
   29      H      25.4460000000    29.0470000000    23.5310000000
   30      H      24.8510000000    30.7170000000    23.4980000000
   31      H      24.1080000000    29.5160000000    22.4010000000
   32      O      26.6440000000    28.7610000000    21.1490000000
   33      C      25.8370000000    26.8010000000    29.7450000000
   34      H      26.1800000000    25.8460000000    29.3380000000
   35      H      25.1650000000    27.2710000000    29.0230000000
   36      H      26.7250000000    27.4300000000    29.8490000000
   37      S      25.1020000000    26.4680000000    31.3620000000
   38      C      24.3390000000    24.8810000000    30.9560000000
   39      H      24.7240000000    24.3230000000    30.0990000000
   40      H      24.3760000000    24.2800000000    31.8690000000
   41      H      23.3160000000    25.2110000000    30.7580000000
   42      O      23.9670000000    27.4400000000    31.4510000000
   43      C      30.3010000000    27.2090000000    29.8260000000
   44      H      31.0670000000    26.5550000000    30.2510000000
   45      H      29.5050000000    26.4840000000    29.6390000000
   46      H      30.5490000000    27.5660000000    28.8230000000
   47      S      29.8130000000    28.5110000000    30.9800000000
   48      C      29.0660000000    27.4330000000    32.2230000000
   49      H      28.8080000000    26.6240000000    31.5350000000
   50      H      29.7300000000    27.0590000000    33.0070000000
   51      H      28.1040000000    27.8280000000    32.5600000000
   52      O      28.5570000000    28.9820000000    30.3160000000
   53      C      32.0930000000    24.1230000000    34.0330000000
   54      H      31.1100000000    24.2680000000    34.4860000000
   55      H      32.2740000000    23.0470000000    34.1030000000
   56      H      32.8470000000    24.8000000000    34.4430000000
   57      S      32.0030000000    24.5510000000    32.2790000000
   58      C      33.5170000000    23.6510000000    31.8770000000
   59      H      33.1850000000    22.6160000000    31.7610000000
   60      H      33.9680000000    23.9670000000    30.9330000000
   61      H      34.2820000000    23.6520000000    32.6580000000
   62      O      32.4060000000    25.9920000000    32.3440000000
   63      C      31.4160000000    19.3770000000    23.8260000000
   64      H      31.1690000000    19.2780000000    24.8870000000
   65      H      32.2560000000    18.7250000000    23.5750000000
   66      H      31.6960000000    20.3980000000    23.5540000000
   67      S      30.0840000000    18.8960000000    22.7030000000
   68      C      30.9760000000    19.3990000000    21.2140000000
   69      H      31.8380000000    18.7440000000    21.0680000000
   70      H      30.2550000000    19.3280000000    20.3950000000
   71      H      31.3490000000    20.4250000000    21.2570000000
   72      O      28.9250000000    19.8220000000    22.9000000000
   73      C      23.0810000000    20.6090000000    32.7950000000
   74      H      23.6830000000    19.7050000000    32.6740000000
   75      H      23.6380000000    21.2980000000    33.4350000000
   76      H      22.1780000000    20.3490000000    33.3530000000
   77      S      22.8130000000    21.4590000000    31.2230000000
   78      C      21.5840000000    22.6440000000    31.8140000000
   79      H      22.1100000000    23.3250000000    32.4870000000
   80      H      21.2150000000    23.0910000000    30.8870000000
   81      H      20.8270000000    22.0000000000    32.2690000000
   82      O      21.9520000000    20.5230000000    30.4350000000
   83      C      33.8370000000    17.0800000000    28.8720000000
   84      H      34.8070000000    16.5970000000    29.0120000000
   85      H      33.6110000000    17.4960000000    29.8570000000
   86      H      32.9940000000    16.4240000000    28.6420000000
   87      S      34.0100000000    18.3050000000    27.5550000000
   88      C      33.4480000000    17.3380000000    26.1350000000
   89      H      32.3840000000    17.2180000000    25.9170000000
   90      H      33.7860000000    17.7960000000    25.2020000000
   91      H      33.8840000000    16.3360000000    26.1650000000
   92      O      35.4650000000    18.3600000000    27.2070000000
   93      C      30.7440000000    19.1610000000    30.9780000000
   94      H      31.7910000000    18.9160000000    30.7790000000
   95      H      30.4980000000    19.3880000000    32.0190000000
   96      H      30.0790000000    18.4060000000    30.5520000000
   97      S      30.1680000000    20.6310000000    30.1010000000
   98      C      31.1530000000    20.1980000000    28.6500000000
   99      H      30.8350000000    19.2040000000    28.3240000000
  100      H      30.9400000000    20.9780000000    27.9150000000
  101      H      32.2230000000    20.1800000000    28.8710000000
  102      O      31.0700000000    21.6730000000    30.6850000000
  103      C      29.1020000000    22.2200000000    19.8980000000
  104      H      28.0390000000    22.0760000000    19.6920000000
  105      H      29.4450000000    21.4730000000    20.6180000000
  106      H      29.3150000000    23.1900000000    20.3540000000
  107      S      30.0160000000    22.0540000000    18.3470000000
  108      C      29.3830000000    20.4330000000    17.8580000000
  109      H      29.7550000000    19.5900000000    18.4460000000
  110      H      28.2970000000    20.5290000000    17.9390000000
  111      H      29.5510000000    20.3560000000    16.7810000000
  112      O      31.4110000000    21.8240000000    18.8370000000
  113      C      26.2670000000    23.1720000000    34.3320000000
  114      H      25.7700000000    22.6290000000    35.1400000000
  115      H      26.9980000000    23.8820000000    34.7280000000
  116      H      25.5350000000    23.7410000000    33.7530000000
  117      S      27.2960000000    22.1480000000    33.2560000000
  118      C      28.0790000000    23.4260000000    32.2460000000
  119      H      27.2230000000    23.9170000000    31.7770000000
  120      H      28.6350000000    24.0830000000    32.9190000000
  121      H      28.6940000000    22.9680000000    31.4670000000
  122      O      26.5130000000    21.5490000000    32.1300000000
  123      C      21.3470000000    19.1330000000    26.0750000000
  124      H      21.0200000000    18.0900000000    26.0770000000
  125      H      22.3170000000    19.3210000000    25.6070000000
  126      H      21.5580000000    19.5570000000    27.0600000000
  127      S      20.2070000000    20.2170000000    25.1870000000
  128      C      20.8300000000    19.7290000000    23.5630000000
  129      H      20.5080000000    18.7180000000    23.3000000000
  130      H      20.5240000000    20.4710000000    22.8210000000
  131      H      21.9120000000    19.8840000000    23.5650000000
  132      O      20.9670000000    21.4890000000    25.3970000000
  133      C      34.3000000000    28.0460000000    25.8070000000
  134      H      34.0010000000    27.8890000000    26.8470000000
  135      H      33.7250000000    28.8930000000    25.4240000000
  136      H      33.9840000000    27.1750000000    25.2280000000
  137      S      36.0880000000    28.2930000000    25.7220000000
  138      C      36.2130000000    27.8390000000    23.9770000000
  139      H      35.9960000000    28.7120000000    23.3560000000
  140      H      37.2530000000    27.5550000000    23.7950000000
  141      H      35.4760000000    27.0600000000    23.7670000000
  142      O      36.6710000000    27.0540000000    26.3260000000
  143      C      28.6660000000    28.8660000000    26.6790000000
  144      H      28.5970000000    29.9520000000    26.5730000000
  145      H      27.8500000000    28.3330000000    26.1840000000
  146      H      28.7290000000    28.6290000000    27.7440000000
  147      S      30.3640000000    28.5190000000    26.1700000000
  148      C      31.2490000000    29.9130000000    26.9040000000
  149      H      31.0480000000    30.7130000000    26.1860000000
  150      H      30.7370000000    30.2910000000    27.7930000000
  151      H      32.3210000000    29.7390000000    27.0240000000
  152      O      30.3570000000    28.8540000000    24.7110000000
  153      C      26.2080000000    18.4970000000    33.1690000000
  154      H      26.8910000000    18.0680000000    33.9060000000
  155      H      25.9780000000    19.5580000000    33.2950000000
  156      H      25.2840000000    17.9190000000    33.0830000000
  157      S      27.1230000000    18.4600000000    31.6120000000
  158      C      25.7300000000    18.4250000000    30.4610000000
  159      H      25.1750000000    17.4840000000    30.4700000000
  160      H      24.9960000000    19.1990000000    30.7010000000
  161      H      26.1810000000    18.5700000000    29.4760000000
  162      O      27.6120000000    17.0580000000    31.4230000000
  163      C      31.7980000000    25.3960000000    19.0750000000
  164      H      32.3920000000    25.6980000000    19.9420000000
  165      H      31.4100000000    24.3790000000    18.9790000000
  166      H      32.3410000000    25.6110000000    18.1500000000
  167      S      30.4090000000    26.5510000000    19.1170000000
  168      C      29.9240000000    26.2670000000    20.8340000000
  169      H      28.9960000000    26.8180000000    21.0040000000
  170      H      29.7560000000    25.1950000000    20.9640000000
  171      H      30.7540000000    26.5440000000    21.4900000000
  172      O      29.3380000000    25.7690000000    18.4230000000
  173      C      36.3800000000    21.5800000000    24.8090000000
  174      H      36.3100000000    21.9360000000    25.8400000000
  175      H      37.2410000000    20.9080000000    24.7850000000
  176      H      36.3830000000    22.3890000000    24.0740000000
  177      S      34.8630000000    20.6400000000    24.5300000000
  178      C      35.1570000000    20.2170000000    22.7980000000
  179      H      35.9540000000    19.4720000000    22.8580000000
  180      H      34.2470000000    19.8080000000    22.3530000000
  181      H      35.5150000000    21.1190000000    22.2940000000
  182      O      33.8160000000    21.7100000000    24.5240000000
  183      C      25.7360000000    31.6400000000    26.9290000000
  184      H      26.3470000000    32.3560000000    27.4830000000
  185      H      26.4230000000    30.8510000000    26.6140000000
  186      H      25.1060000000    32.0660000000    26.1440000000
  187      S      24.4020000000    31.1190000000    28.0320000000
  188      C      25.6280000000    30.2380000000    29.0250000000
  189      H      25.2190000000    29.4170000000    29.6180000000
  190      H      26.3250000000    29.7770000000    28.3200000000
  191      H      26.1850000000    30.8710000000    29.7210000000
  192      O      23.7380000000    30.1220000000    27.1340000000
  193      C      22.2440000000    22.9150000000    21.8920000000
  194      H      22.7240000000    22.4510000000    21.0270000000
  195      H      22.8290000000    23.7890000000    22.1870000000
  196      H      22.1300000000    22.2150000000    22.7250000000
  197      S      20.5750000000    23.4560000000    21.4600000000
  198      C      19.9600000000    24.1230000000    23.0220000000
  199      H      20.3410000000    23.4670000000    23.8090000000
  200      H      20.4230000000    25.1030000000    23.1630000000
  201      H      18.8720000000    24.2090000000    23.0810000000
  202      O      19.8110000000    22.1940000000    21.2040000000
  203      C      23.9990000000    26.8870000000    26.1780000000
  204      H      24.7210000000    27.3760000000    26.8370000000
  205      H      24.3380000000    27.2010000000    25.1870000000
  206      H      22.9900000000    27.2690000000    26.3530000000
  207      S      23.8710000000    25.0850000000    26.1610000000
  208      C      22.5680000000    24.8920000000    24.9240000000
  209      H      22.2860000000    23.8520000000    24.7440000000
  210      H      21.6990000000    25.4630000000    25.2610000000
  211      H      22.8920000000    25.3460000000    23.9840000000
  212      O      23.2300000000    24.7740000000    27.4780000000
  213      C      33.0990000000    29.3680000000    22.2820000000
  214      H      33.5190000000    28.7150000000    21.5120000000
  215      H      33.6870000000    29.4720000000    23.1980000000
  216      H      32.1230000000    29.0140000000    22.6210000000
  217      S      32.8300000000    31.0460000000    21.6680000000
  218      C      31.6770000000    31.5570000000    22.9620000000
  219      H      30.8810000000    30.8080000000    22.9500000000
  220      H      32.2270000000    31.6530000000    23.9020000000
  221      H      31.3860000000    32.5850000000    22.7320000000
  222      O      31.8910000000    30.6840000000    20.5590000000
  223      C      25.3610000000    19.7840000000    23.7700000000
  224      H      25.2920000000    18.8550000000    24.3410000000
  225      H      26.2160000000    20.4390000000    23.9530000000
  226      H      24.4660000000    20.3840000000    23.9520000000
  227      S      25.4240000000    19.3090000000    22.0280000000
  228      C      25.8190000000    20.9280000000    21.3320000000
  229      H      25.6170000000    20.8320000000    20.2620000000
  230      H      25.1140000000    21.6480000000    21.7550000000
  231      H      26.8640000000    21.1640000000    21.5480000000
  232      O      23.9710000000    19.2290000000    21.6760000000
  233      C      26.4640000000    21.5170000000    28.8620000000
  234      H      27.4650000000    21.0840000000    28.9280000000
  235      H      26.4040000000    22.5990000000    29.0060000000
  236      H      25.8340000000    21.0180000000    29.6030000000
  237      S      25.6500000000    21.0550000000    27.3160000000
  238      C      23.9500000000    21.3360000000    27.8600000000
  239      H      23.9120000000    22.4020000000    28.0950000000
  240      H      23.2390000000    21.1430000000    27.0520000000
  241      H      23.8580000000    20.7330000000    28.7670000000
  242      O      25.9900000000    19.5980000000    27.2800000000
  243      C      24.4520000000    26.1010000000    22.0820000000
  244      H      24.9640000000    27.0510000000    22.2530000000
  245      H      23.3770000000    26.2430000000    22.2150000000
  246      H      24.8310000000    25.3110000000    22.7360000000
  247      S      24.8120000000    25.6700000000    20.3650000000
  248      C      23.9020000000    27.0910000000    19.7190000000
  249      H      23.0540000000    27.3840000000    20.3450000000
  250      H      24.5950000000    27.9250000000    19.5840000000
  251      H      23.4610000000    26.7370000000    18.7840000000
  252      O      23.8580000000    24.5370000000    20.1440000000
  253      C      32.6980000000    23.4840000000    22.0810000000
  254      H      31.7750000000    23.8780000000    21.6470000000
  255      H      33.3730000000    23.2680000000    21.2490000000
  256      H      32.5230000000    22.5900000000    22.6860000000
  257      S      33.4090000000    24.8810000000    22.9790000000
  258      C      31.9410000000    25.0810000000    24.0120000000
  259      H      32.2130000000    25.7050000000    24.8680000000
  260      H      31.1600000000    25.4930000000    23.3690000000
  261      H      31.6290000000    24.0660000000    24.2710000000
  262      O      33.1310000000    26.0610000000    22.1000000000
  263      C      28.2750000000    18.1510000000    26.1100000000
  264      H      28.7340000000    18.4690000000    25.1710000000
  265      H      27.2270000000    17.9550000000    25.8690000000
  266      H      28.3680000000    19.0170000000    26.7700000000
  267      S      29.1270000000    16.6910000000    26.7500000000
  268      C      28.3280000000    16.9240000000    28.3540000000
  269      H      27.2470000000    17.0320000000    28.2280000000
  270      H      28.4660000000    16.1040000000    29.0630000000
  271      H      28.7350000000    17.8480000000    28.7720000000
  272      O      30.4480000000    17.3340000000    27.0380000000
  273      C      25.6350000000    22.2430000000    15.4730000000
  274      H      24.9650000000    21.3800000000    15.4260000000
  275      H      25.2450000000    23.0460000000    14.8420000000
  276      H      26.6650000000    22.0170000000    15.1850000000
  277      S      25.4930000000    22.6890000000    17.2180000000
  278      C      26.8220000000    23.9130000000    17.1950000000
  279      H      27.6490000000    23.2910000000    16.8410000000
  280      H      26.6550000000    24.7660000000    16.5330000000
  281      H      27.0730000000    24.2420000000    18.2060000000
  282      O      26.1800000000    21.5830000000    17.9580000000
  283      C      34.5790000000    24.3690000000    26.3330000000
  284      H      35.5980000000    24.0240000000    26.5240000000
  285      H      34.0280000000    23.7770000000    25.5980000000
  286      H      34.6460000000    25.4290000000    26.0750000000
  287      S      33.8670000000    24.4300000000    27.9930000000
  288      C      33.6260000000    22.6390000000    28.0010000000
  289      H      34.6380000000    22.2520000000    28.1470000000
  290      H      32.9510000000    22.3510000000    28.8110000000
  291      H      33.1760000000    22.4070000000    27.0330000000
  292      O      32.4800000000    24.9620000000    27.8070000000
 ----------------------------------------------------------------
 Nuclear Repulsion Energy =       48473.34748173 hartrees
 There are      602 alpha and      602 beta electrons
 Requested basis set is 6-31+G(d)
 There are 962 shells and 2681 basis functions

 Total QAlloc Memory Limit  16000 MB
 Mega-Array Size      7821 MB
 MEM_STATIC part      8000 MB
 A cutoff of  1.0D-14 yielded 181472 shell pairs
 There are   1564319 function pairs
 Smallest overlap matrix eigenvalue = 3.92E-07
 Linear dependence detected in AO basis
 Tighter screening thresholds may be required for diffuse basis sets
 Use S2THRESH > 14 and THRESH = 14 in case of SCF convergence issues
 Number of orthogonalized atomic orbitals = 2679
 Maximum deviation from orthogonality = 9.866E-11

 Scale SEOQF with 1.000000e-03/1.000000e-03/1.000000e-03

 Standard Electronic Orientation quadrupole field applied
 Nucleus-field energy     =    -0.0000000295 hartrees
Attempting to make child job directory: /local/scratch/users/ymao/r7.00_frame_0065_almo_B3LYP_dp.in20210311133734//Frg1/
Attempting to make child job directory: /local/scratch/users/ymao/r7.00_frame_0065_almo_B3LYP_dp.in20210311133734//Frg2/
Creating input file /local/scratch/users/ymao/r7.00_frame_0065_almo_B3LYP_dp.in20210311133734/Frg1.input
using default PutDataFrgm: nothing
calling putenv with: QCSCRATCH=/local/scratch/users/ymao/r7.00_frame_0065_almo_B3LYP_dp.in20210311133734/ 
Spawning Job For Fragment 0
Done Job For Fragment 0
calling putenv with: QCSCRATCH=/local/scratch/users/ymao 
calling putenv with: QCTHREADS=8 
Creating input file /local/scratch/users/ymao/r7.00_frame_0065_almo_B3LYP_dp.in20210311133734/Frg2.input
using default PutDataFrgm: nothing
calling putenv with: QCSCRATCH=/local/scratch/users/ymao/r7.00_frame_0065_almo_B3LYP_dp.in20210311133734/ 
Spawning Job For Fragment 1
Done Job For Fragment 1
calling putenv with: QCSCRATCH=/local/scratch/users/ymao 
calling putenv with: QCTHREADS=8 
 Time for running child jobs:  CPU 0.84 s  wall 23444.74 s

 -----------------------------------------------------------------------
  General SCF calculation program by
  Eric Jon Sundstrom, Paul Horn, Yuezhi Mao, Dmitri Zuev, Alec White,
  David Stuck, Shaama M.S., Shane Yost, Joonho Lee, David Small,
  Daniel Levine, Susi Lehtola, Hugh Burton, Evgeny Epifanovsky,
  Bang C. Huynh
 -----------------------------------------------------------------------
Performing Restricted Closed Shell SCFMI
Doing General SCFMI
 Exchange:     0.2000 Hartree-Fock + 0.0800 Slater + 0.7200 B88
 Correlation:  0.1900 VWN1RPA + 0.8100 LYP
 Using Euler-Maclaurin-Lebedev (75,302) quadrature formula
performing fock build before subrot guess so that all methods have access
Printing subrot_rss_gen Method Specification:
Occupied Subspace Method is 0
Virtual Subspace Method is 0
Energy prior to optimization (guess energy) = -15340.715183814733
Begin Timing: Total SCF Calculation
begin iterations for algorithm: DIIS         
the SCF tolerance is set to 1.00e-08
    1  -15340.7151838147      3.53e-05     00000 
    2  -15340.7180468810      4.44e-05     00000 
    3  -15340.7226692578      1.68e-05     00000 
    4  -15340.7233224450      6.11e-06     00000 
    5  -15340.7234342652      2.72e-06     00000 
    6  -15340.7234542167      1.71e-06     00000 
    7  -15340.7234605865      1.15e-06     00000 
    8  -15340.7234639781      5.43e-07     00000 
    9  -15340.7234646435      3.17e-07     00000 
   10  -15340.7234648075      2.34e-07     00000 
   11  -15340.7234649194      1.35e-07     00000 
   12  -15340.7234649638      7.08e-08     00000 
   13  -15340.7234649773      3.86e-08     00000 
   14  -15340.7234649807      2.78e-08     00000 
   15  -15340.7234649819      1.72e-08     00000 
   16  -15340.7234649822      8.66e-09     00000 Convergence criterion met
write pseudocanon occs and virts to disk
write pseudocanon orbital energies to disk
Timing for Total SCF: 47063.00s (wall), 375645.51s (cpu)
SCFMI Energy  -15340.7234649822
<S^2>            0.00000
 Total energy in the final basis set =   -15340.7234649822
    ==================================================
        The end of Object-Oriented SCFman: SCFMI      
    ==================================================
 
 --------------------------------------------------------------
 
                    Orbital Energies (a.u.)
 --------------------------------------------------------------
 
 Alpha MOs
 -- Occupied --
-89.0232 -89.0223 -89.0177 -89.0153 -89.0141 -89.0095 -89.0090 -89.0090
-89.0090 -89.0088 -89.0084 -89.0079 -89.0050 -89.0048 -89.0017 -88.9983
-88.9968 -88.9952 -88.9949 -88.9894 -88.9873 -88.9867 -88.9832 -88.9787
-88.9725 -88.9663 -88.9637 -19.1433 -19.1389 -19.1362 -19.1313 -19.1284
-19.1284 -19.1274 -19.1260 -19.1243 -19.1212 -19.1206 -19.1201 -19.1188
-19.1183 -19.1172 -19.1123 -19.1104 -19.1084 -19.1078 -19.1070 -19.1058
-19.1044 -19.1031 -19.0954 -19.0914 -19.0835 -19.0808 -19.0754 -14.3680
-10.2952 -10.2505 -10.2470 -10.2433 -10.2412 -10.2363 -10.2343 -10.2320
-10.2305 -10.2302 -10.2300 -10.2281 -10.2276 -10.2270 -10.2265 -10.2265
-10.2253 -10.2245 -10.2239 -10.2237 -10.2218 -10.2210 -10.2203 -10.2200
-10.2183 -10.2178 -10.2178 -10.2178 -10.2170 -10.2148 -10.2143 -10.2128
-10.2115 -10.2110 -10.2106 -10.2097 -10.2092 -10.2090 -10.2085 -10.2051
-10.2034 -10.2024 -10.2012 -10.2007 -10.1993 -10.1985 -10.1966 -10.1963
-10.1955 -10.1936 -10.1922 -10.1920 -10.1918 -10.1918 -10.1894 -10.1892
-10.1881 -10.1862 -10.1814 -10.1789 -10.1786  -8.0693  -8.0685  -8.0637
 -8.0615  -8.0604  -8.0562  -8.0551  -8.0551  -8.0549  -8.0545  -8.0544
 -8.0535  -8.0512  -8.0511  -8.0477  -8.0438  -8.0423  -8.0412  -8.0407
 -8.0364  -8.0332  -8.0330  -8.0294  -8.0253  -8.0189  -8.0123  -8.0101
 -6.0339  -6.0331  -6.0324  -6.0315  -6.0282  -6.0269  -6.0264  -6.0258
 -6.0256  -6.0248  -6.0245  -6.0231  -6.0208  -6.0203  -6.0196  -6.0194
 -6.0193  -6.0192  -6.0190  -6.0190  -6.0187  -6.0182  -6.0180  -6.0179
 -6.0179  -6.0178  -6.0176  -6.0174  -6.0168  -6.0156  -6.0153  -6.0140
 -6.0139  -6.0139  -6.0129  -6.0127  -6.0124  -6.0120  -6.0118  -6.0117
 -6.0108  -6.0108  -6.0091  -6.0089  -6.0083  -6.0071  -6.0065  -6.0056
 -6.0054  -6.0051  -6.0049  -6.0044  -6.0039  -6.0011  -6.0005  -5.9999
 -5.9995  -5.9986  -5.9982  -5.9977  -5.9973  -5.9963  -5.9960  -5.9941
 -5.9940  -5.9924  -5.9905  -5.9903  -5.9896  -5.9881  -5.9867  -5.9832
 -5.9830  -5.9819  -5.9766  -5.9763  -5.9755  -5.9746  -5.9733  -5.9699
 -5.9671  -1.0545  -1.0537  -1.0491  -1.0415  -1.0408  -1.0379  -1.0374
 -1.0364  -1.0363  -1.0355  -1.0337  -1.0335  -1.0321  -1.0291  -1.0280
 -1.0242  -1.0196  -1.0189  -1.0180  -1.0167  -1.0162  -1.0153  -1.0132
 -1.0103  -1.0058  -0.9971  -0.9886  -0.9878  -0.9319  -0.8344  -0.8299
 -0.8260  -0.8219  -0.8182  -0.8162  -0.8141  -0.8139  -0.8130  -0.8104
 -0.8092  -0.8072  -0.8049  -0.8009  -0.7993  -0.7992  -0.7967  -0.7956
 -0.7948  -0.7926  -0.7898  -0.7897  -0.7890  -0.7868  -0.7728  -0.7715
 -0.7697  -0.7647  -0.7567  -0.7558  -0.7540  -0.7511  -0.7501  -0.7419
 -0.7380  -0.7378  -0.7357  -0.7354  -0.7345  -0.7326  -0.7315  -0.7292
 -0.7288  -0.7275  -0.7264  -0.7254  -0.7233  -0.7204  -0.7200  -0.7160
 -0.7138  -0.7129  -0.7106  -0.7043  -0.7016  -0.6975  -0.6970  -0.6451
 -0.6357  -0.6343  -0.6328  -0.6306  -0.6261  -0.6245  -0.6242  -0.6234
 -0.6228  -0.6219  -0.6213  -0.6211  -0.6194  -0.6178  -0.6163  -0.6148
 -0.6143  -0.6096  -0.6067  -0.6054  -0.6016  -0.6000  -0.5981  -0.5943
 -0.5931  -0.5907  -0.5848  -0.5785  -0.5765  -0.5731  -0.5333  -0.5121
 -0.5108  -0.5030  -0.5010  -0.4995  -0.4970  -0.4966  -0.4954  -0.4932
 -0.4931  -0.4917  -0.4911  -0.4903  -0.4901  -0.4891  -0.4881  -0.4874
 -0.4854  -0.4848  -0.4838  -0.4831  -0.4824  -0.4821  -0.4819  -0.4813
 -0.4811  -0.4795  -0.4789  -0.4789  -0.4781  -0.4775  -0.4771  -0.4769
 -0.4758  -0.4757  -0.4746  -0.4743  -0.4740  -0.4736  -0.4731  -0.4724
 -0.4722  -0.4714  -0.4711  -0.4707  -0.4702  -0.4698  -0.4683  -0.4678
 -0.4660  -0.4657  -0.4647  -0.4644  -0.4641  -0.4638  -0.4621  -0.4607
 -0.4600  -0.4594  -0.4592  -0.4589  -0.4586  -0.4580  -0.4577  -0.4566
 -0.4565  -0.4558  -0.4557  -0.4546  -0.4537  -0.4535  -0.4526  -0.4515
 -0.4508  -0.4500  -0.4484  -0.4479  -0.4474  -0.4462  -0.4460  -0.4453
 -0.4439  -0.4432  -0.4429  -0.4422  -0.4404  -0.4394  -0.4383  -0.4378
 -0.4372  -0.4368  -0.4367  -0.4356  -0.4352  -0.4348  -0.4341  -0.4337
 -0.4330  -0.4314  -0.4298  -0.4295  -0.4290  -0.4276  -0.4273  -0.4271
 -0.4256  -0.4251  -0.4249  -0.4246  -0.4238  -0.4236  -0.4225  -0.4216
 -0.4210  -0.4208  -0.4205  -0.4200  -0.4195  -0.4193  -0.4169  -0.4165
 -0.4163  -0.4159  -0.4151  -0.4146  -0.4120  -0.4116  -0.4112  -0.4107
 -0.4104  -0.4100  -0.4100  -0.4079  -0.4074  -0.4062  -0.4057  -0.4047
 -0.4041  -0.4032  -0.4027  -0.4013  -0.3996  -0.3995  -0.3989  -0.3982
 -0.3966  -0.3955  -0.3954  -0.3954  -0.3949  -0.3938  -0.3933  -0.3927
 -0.3923  -0.3906  -0.3889  -0.3867  -0.3857  -0.3855  -0.3851  -0.3844
 -0.3829  -0.3829  -0.3814  -0.3812  -0.3810  -0.3799  -0.3793  -0.3787
 -0.3784  -0.3777  -0.3770  -0.3758  -0.3756  -0.3750  -0.3734  -0.3727
 -0.3723  -0.3707  -0.3702  -0.3689  -0.3680  -0.3656  -0.3648  -0.3610
 -0.3608  -0.3604  -0.3586  -0.3582  -0.3567  -0.3521  -0.3519  -0.3515
 -0.3506  -0.3481  -0.3467  -0.3443  -0.3369  -0.3320  -0.3295  -0.3289
 -0.3269  -0.3091  -0.3063  -0.2984  -0.2925  -0.2920  -0.2892  -0.2863
 -0.2848  -0.2829  -0.2827  -0.2819  -0.2801  -0.2783  -0.2775  -0.2766
 -0.2740  -0.2733  -0.2727  -0.2697  -0.2686  -0.2683  -0.2675  -0.2657
 -0.2653  -0.2634  -0.2631  -0.2611  -0.2603  -0.2574  -0.2567  -0.2551
 -0.2537  -0.2524  -0.2523  -0.2517  -0.2504  -0.2502  -0.2497  -0.2495
 -0.2468  -0.2436  -0.2430  -0.2418  -0.2410  -0.2378  -0.2356  -0.2348
 -0.2340  -0.2334  -0.2326  -0.2275  -0.2255  -0.2249  -0.2242  -0.2133
 -0.2057  -0.1976
 -- Virtual --
 -0.0341  -0.0297  -0.0281  -0.0261  -0.0250  -0.0233  -0.0217  -0.0205
 -0.0191  -0.0171  -0.0153  -0.0148  -0.0144  -0.0117  -0.0104  -0.0094
 -0.0089  -0.0076  -0.0072  -0.0061  -0.0052  -0.0045  -0.0031  -0.0021
 -0.0007  -0.0003   0.0006   0.0015   0.0021   0.0022   0.0028   0.0035
  0.0042   0.0046   0.0050   0.0065   0.0071   0.0075   0.0082   0.0092
  0.0098   0.0101   0.0105   0.0111   0.0122   0.0126   0.0137   0.0143
  0.0147   0.0159   0.0161   0.0171   0.0172   0.0184   0.0193   0.0203
  0.0211   0.0218   0.0222   0.0225   0.0229   0.0235   0.0240   0.0248
  0.0257   0.0259   0.0270   0.0275   0.0288   0.0294   0.0299   0.0301
  0.0308   0.0311   0.0320   0.0326   0.0333   0.0334   0.0343   0.0343
  0.0355   0.0362   0.0369   0.0373   0.0376   0.0389   0.0401   0.0403
  0.0412   0.0417   0.0425   0.0431   0.0445   0.0448   0.0449   0.0453
  0.0460   0.0472   0.0475   0.0481   0.0490   0.0494   0.0499   0.0509
  0.0511   0.0524   0.0531   0.0536   0.0545   0.0549   0.0558   0.0565
  0.0570   0.0578   0.0582   0.0587   0.0592   0.0600   0.0608   0.0611
  0.0624   0.0628   0.0631   0.0636   0.0642   0.0644   0.0657   0.0665
  0.0675   0.0676   0.0686   0.0687   0.0694   0.0702   0.0717   0.0723
  0.0728   0.0733   0.0738   0.0747   0.0750   0.0753   0.0764   0.0767
  0.0775   0.0791   0.0792   0.0795   0.0808   0.0812   0.0820   0.0825
  0.0838   0.0842   0.0846   0.0853   0.0857   0.0868   0.0873   0.0878
  0.0880   0.0892   0.0895   0.0901   0.0908   0.0909   0.0916   0.0920
  0.0922   0.0927   0.0937   0.0944   0.0949   0.0956   0.0959   0.0970
  0.0975   0.0976   0.0988   0.0993   0.1001   0.1006   0.1012   0.1024
  0.1037   0.1043   0.1046   0.1051   0.1059   0.1066   0.1068   0.1082
  0.1088   0.1090   0.1095   0.1102   0.1116   0.1124   0.1128   0.1132
  0.1139   0.1145   0.1149   0.1151   0.1159   0.1166   0.1173   0.1183
  0.1184   0.1188   0.1191   0.1201   0.1207   0.1215   0.1222   0.1234
  0.1237   0.1247   0.1253   0.1256   0.1258   0.1261   0.1269   0.1269
  0.1279   0.1284   0.1289   0.1296   0.1297   0.1305   0.1310   0.1317
  0.1327   0.1329   0.1333   0.1338   0.1346   0.1352   0.1365   0.1370
  0.1376   0.1380   0.1386   0.1390   0.1397   0.1403   0.1410   0.1417
  0.1423   0.1425   0.1428   0.1435   0.1446   0.1449   0.1454   0.1461
  0.1467   0.1476   0.1482   0.1483   0.1491   0.1495   0.1499   0.1509
  0.1520   0.1523   0.1529   0.1530   0.1534   0.1536   0.1552   0.1558
  0.1565   0.1572   0.1574   0.1577   0.1586   0.1588   0.1592   0.1611
  0.1612   0.1615   0.1626   0.1629   0.1634   0.1641   0.1650   0.1655
  0.1666   0.1672   0.1677   0.1680   0.1685   0.1696   0.1700   0.1701
  0.1704   0.1712   0.1716   0.1730   0.1737   0.1738   0.1742   0.1747
  0.1755   0.1760   0.1767   0.1779   0.1781   0.1787   0.1794   0.1809
  0.1814   0.1816   0.1822   0.1828   0.1836   0.1844   0.1848   0.1851
  0.1858   0.1863   0.1879   0.1882   0.1887   0.1894   0.1902   0.1905
  0.1911   0.1916   0.1925   0.1927   0.1932   0.1936   0.1943   0.1944
  0.1955   0.1960   0.1964   0.1970   0.1983   0.1989   0.1996   0.1999
  0.2004   0.2007   0.2012   0.2014   0.2022   0.2028   0.2033   0.2044
  0.2045   0.2053   0.2065   0.2071   0.2074   0.2085   0.2087   0.2098
  0.2102   0.2105   0.2118   0.2127   0.2133   0.2133   0.2142   0.2147
  0.2147   0.2158   0.2164   0.2170   0.2174   0.2182   0.2192   0.2197
  0.2201   0.2205   0.2212   0.2219   0.2225   0.2228   0.2233   0.2243
  0.2250   0.2258   0.2267   0.2271   0.2274   0.2280   0.2287   0.2295
  0.2303   0.2307   0.2312   0.2324   0.2331   0.2339   0.2344   0.2348
  0.2355   0.2361   0.2369   0.2370   0.2376   0.2385   0.2386   0.2392
  0.2398   0.2405   0.2422   0.2423   0.2429   0.2431   0.2447   0.2450
  0.2458   0.2463   0.2470   0.2478   0.2482   0.2490   0.2496   0.2504
  0.2506   0.2510   0.2520   0.2525   0.2533   0.2544   0.2550   0.2556
  0.2562   0.2564   0.2573   0.2585   0.2590   0.2597   0.2603   0.2609
  0.2617   0.2622   0.2633   0.2640   0.2646   0.2651   0.2655   0.2666
  0.2676   0.2681   0.2684   0.2690   0.2699   0.2705   0.2715   0.2723
  0.2730   0.2738   0.2743   0.2747   0.2757   0.2763   0.2773   0.2777
  0.2781   0.2789   0.2797   0.2802   0.2817   0.2833   0.2841   0.2845
  0.2849   0.2860   0.2861   0.2880   0.2891   0.2894   0.2900   0.2914
  0.2919   0.2922   0.2927   0.2935   0.2939   0.2951   0.2963   0.2968
  0.2968   0.2974   0.2990   0.2992   0.3009   0.3013   0.3017   0.3027
  0.3037   0.3045   0.3050   0.3060   0.3070   0.3075   0.3090   0.3091
  0.3102   0.3112   0.3118   0.3131   0.3133   0.3147   0.3152   0.3161
  0.3183   0.3188   0.3195   0.3201   0.3202   0.3207   0.3217   0.3224
  0.3235   0.3242   0.3247   0.3264   0.3278   0.3280   0.3289   0.3292
  0.3297   0.3312   0.3321   0.3327   0.3329   0.3334   0.3338   0.3347
  0.3368   0.3376   0.3387   0.3392   0.3400   0.3402   0.3421   0.3430
  0.3433   0.3437   0.3451   0.3462   0.3472   0.3476   0.3483   0.3489
  0.3504   0.3508   0.3515   0.3522   0.3534   0.3538   0.3548   0.3556
  0.3568   0.3578   0.3586   0.3591   0.3600   0.3609   0.3614   0.3630
  0.3638   0.3640   0.3653   0.3661   0.3669   0.3676   0.3679   0.3687
  0.3695   0.3711   0.3713   0.3727   0.3742   0.3750   0.3763   0.3769
  0.3774   0.3779   0.3790   0.3793   0.3809   0.3820   0.3822   0.3833
  0.3840   0.3844   0.3853   0.3866   0.3883   0.3887   0.3903   0.3903
  0.3915   0.3921   0.3938   0.3942   0.3949   0.3960   0.3970   0.3973
  0.3979   0.3988   0.4009   0.4013   0.4022   0.4030   0.4039   0.4044
  0.4050   0.4057   0.4059   0.4078   0.4089   0.4093   0.4103   0.4107
  0.4122   0.4133   0.4146   0.4163   0.4164   0.4173   0.4179   0.4188
  0.4196   0.4200   0.4228   0.4238   0.4247   0.4253   0.4260   0.4268
  0.4281   0.4283   0.4297   0.4319   0.4321   0.4325   0.4332   0.4354
  0.4366   0.4369   0.4374   0.4390   0.4400   0.4414   0.4428   0.4438
  0.4439   0.4449   0.4480   0.4489   0.4498   0.4505   0.4510   0.4530
  0.4543   0.4550   0.4565   0.4578   0.4585   0.4601   0.4614   0.4636
  0.4638   0.4655   0.4664   0.4672   0.4685   0.4693   0.4709   0.4713
  0.4729   0.4740   0.4760   0.4767   0.4774   0.4790   0.4816   0.4822
  0.4828   0.4839   0.4855   0.4864   0.4876   0.4888   0.4912   0.4921
  0.4942   0.4944   0.4965   0.4972   0.4993   0.5005   0.5017   0.5026
  0.5047   0.5058   0.5068   0.5080   0.5106   0.5124   0.5129   0.5156
  0.5161   0.5168   0.5187   0.5198   0.5218   0.5228   0.5235   0.5250
  0.5268   0.5285   0.5303   0.5314   0.5328   0.5348   0.5362   0.5378
  0.5389   0.5417   0.5433   0.5443   0.5449   0.5469   0.5483   0.5492
  0.5503   0.5533   0.5540   0.5554   0.5572   0.5580   0.5585   0.5616
  0.5646   0.5660   0.5667   0.5689   0.5712   0.5721   0.5735   0.5745
  0.5761   0.5774   0.5796   0.5806   0.5816   0.5830   0.5840   0.5856
  0.5873   0.5874   0.5902   0.5922   0.5926   0.5940   0.5956   0.5974
  0.5994   0.5996   0.6013   0.6017   0.6025   0.6041   0.6049   0.6071
  0.6074   0.6089   0.6101   0.6122   0.6129   0.6146   0.6160   0.6170
  0.6186   0.6196   0.6222   0.6227   0.6244   0.6256   0.6262   0.6278
  0.6283   0.6287   0.6308   0.6327   0.6342   0.6350   0.6364   0.6370
  0.6382   0.6385   0.6400   0.6407   0.6413   0.6428   0.6445   0.6449
  0.6463   0.6482   0.6499   0.6501   0.6520   0.6523   0.6532   0.6546
  0.6571   0.6587   0.6589   0.6602   0.6613   0.6625   0.6638   0.6651
  0.6661   0.6678   0.6688   0.6698   0.6707   0.6719   0.6726   0.6731
  0.6737   0.6749   0.6755   0.6768   0.6770   0.6794   0.6797   0.6807
  0.6814   0.6828   0.6831   0.6838   0.6856   0.6865   0.6873   0.6893
  0.6897   0.6910   0.6922   0.6928   0.6937   0.6943   0.6945   0.6968
  0.6990   0.7003   0.7011   0.7023   0.7042   0.7058   0.7075   0.7089
  0.7092   0.7104   0.7112   0.7133   0.7138   0.7142   0.7159   0.7177
  0.7184   0.7188   0.7217   0.7224   0.7240   0.7250   0.7256   0.7270
  0.7279   0.7296   0.7314   0.7339   0.7359   0.7370   0.7388   0.7393
  0.7406   0.7408   0.7419   0.7439   0.7446   0.7455   0.7476   0.7492
  0.7505   0.7518   0.7546   0.7562   0.7595   0.7601   0.7633   0.7635
  0.7652   0.7677   0.7687   0.7689   0.7701   0.7711   0.7738   0.7747
  0.7766   0.7782   0.7804   0.7808   0.7815   0.7842   0.7845   0.7860
  0.7861   0.7876   0.7899   0.7917   0.7938   0.7947   0.7959   0.7973
  0.7990   0.7994   0.7999   0.8013   0.8031   0.8048   0.8056   0.8068
  0.8085   0.8094   0.8106   0.8123   0.8129   0.8142   0.8155   0.8181
  0.8204   0.8212   0.8225   0.8236   0.8249   0.8278   0.8289   0.8297
  0.8306   0.8318   0.8337   0.8352   0.8371   0.8382   0.8393   0.8401
  0.8424   0.8436   0.8449   0.8463   0.8479   0.8488   0.8497   0.8508
  0.8519   0.8530   0.8538   0.8551   0.8571   0.8587   0.8595   0.8608
  0.8624   0.8632   0.8650   0.8659   0.8675   0.8691   0.8709   0.8720
  0.8725   0.8737   0.8750   0.8765   0.8781   0.8789   0.8795   0.8805
  0.8821   0.8833   0.8841   0.8866   0.8885   0.8893   0.8899   0.8919
  0.8927   0.8943   0.8948   0.8956   0.8975   0.8990   0.8991   0.9005
  0.9012   0.9032   0.9043   0.9057   0.9087   0.9090   0.9109   0.9119
  0.9137   0.9156   0.9168   0.9174   0.9182   0.9189   0.9215   0.9216
  0.9233   0.9239   0.9267   0.9278   0.9284   0.9307   0.9330   0.9334
  0.9349   0.9358   0.9372   0.9375   0.9391   0.9414   0.9418   0.9433
  0.9437   0.9456   0.9461   0.9471   0.9488   0.9499   0.9515   0.9528
  0.9535   0.9548   0.9555   0.9562   0.9578   0.9580   0.9596   0.9606
  0.9621   0.9634   0.9647   0.9651   0.9652   0.9672   0.9691   0.9694
  0.9713   0.9716   0.9731   0.9746   0.9754   0.9762   0.9776   0.9786
  0.9792   0.9801   0.9818   0.9831   0.9842   0.9862   0.9879   0.9893
  0.9895   0.9919   0.9923   0.9926   0.9941   0.9952   0.9959   0.9963
  0.9979   0.9986   0.9990   1.0001   1.0018   1.0032   1.0040   1.0047
  1.0053   1.0066   1.0072   1.0096   1.0106   1.0112   1.0123   1.0129
  1.0135   1.0171   1.0174   1.0189   1.0194   1.0199   1.0225   1.0236
  1.0244   1.0258   1.0269   1.0275   1.0282   1.0293   1.0300   1.0322
  1.0325   1.0341   1.0364   1.0367   1.0384   1.0392   1.0411   1.0418
  1.0431   1.0439   1.0453   1.0476   1.0486   1.0495   1.0518   1.0532
  1.0540   1.0543   1.0550   1.0562   1.0575   1.0595   1.0604   1.0610
  1.0631   1.0637   1.0642   1.0648   1.0668   1.0685   1.0690   1.0703
  1.0714   1.0721   1.0731   1.0750   1.0750   1.0771   1.0779   1.0787
  1.0807   1.0824   1.0830   1.0840   1.0848   1.0869   1.0879   1.0906
  1.0910   1.0932   1.0937   1.0959   1.0966   1.0974   1.1002   1.1014
  1.1015   1.1027   1.1035   1.1054   1.1065   1.1080   1.1087   1.1113
  1.1124   1.1140   1.1152   1.1169   1.1170   1.1182   1.1202   1.1215
  1.1225   1.1233   1.1238   1.1250   1.1264   1.1284   1.1296   1.1311
  1.1326   1.1333   1.1343   1.1348   1.1352   1.1365   1.1380   1.1394
  1.1401   1.1427   1.1441   1.1452   1.1464   1.1489   1.1497   1.1512
  1.1522   1.1533   1.1544   1.1552   1.1568   1.1588   1.1595   1.1610
  1.1628   1.1636   1.1655   1.1659   1.1664   1.1684   1.1701   1.1703
  1.1719   1.1742   1.1749   1.1754   1.1772   1.1801   1.1809   1.1820
  1.1852   1.1862   1.1872   1.1890   1.1907   1.1917   1.1938   1.1953
  1.1958   1.1973   1.1980   1.2004   1.2018   1.2022   1.2037   1.2049
  1.2064   1.2080   1.2097   1.2109   1.2119   1.2138   1.2155   1.2161
  1.2196   1.2213   1.2242   1.2249   1.2293   1.2307   1.2338   1.2352
  1.2367   1.2398   1.2409   1.2422   1.2447   1.2463   1.2478   1.2506
  1.2526   1.2542   1.2555   1.2565   1.2578   1.2618   1.2624   1.2660
  1.2666   1.2679   1.2679   1.2735   1.2736   1.2764   1.2787   1.2806
  1.2846   1.2859   1.2873   1.2897   1.2933   1.2955   1.2968   1.2992
  1.3020   1.3036   1.3043   1.3079   1.3095   1.3123   1.3151   1.3172
  1.3182   1.3196   1.3204   1.3240   1.3244   1.3268   1.3293   1.3313
  1.3348   1.3370   1.3396   1.3424   1.3430   1.3457   1.3491   1.3496
  1.3507   1.3525   1.3537   1.3562   1.3585   1.3610   1.3620   1.3645
  1.3660   1.3698   1.3711   1.3731   1.3732   1.3746   1.3764   1.3782
  1.3792   1.3825   1.3838   1.3855   1.3864   1.3878   1.3900   1.3905
  1.3917   1.3931   1.3949   1.3961   1.3972   1.4016   1.4017   1.4029
  1.4043   1.4052   1.4072   1.4081   1.4097   1.4114   1.4124   1.4130
  1.4134   1.4185   1.4201   1.4206   1.4224   1.4227   1.4242   1.4265
  1.4273   1.4278   1.4284   1.4301   1.4311   1.4316   1.4332   1.4345
  1.4370   1.4387   1.4397   1.4422   1.4441   1.4454   1.4469   1.4482
  1.4485   1.4491   1.4503   1.4518   1.4536   1.4551   1.4569   1.4590
  1.4608   1.4627   1.4654   1.4663   1.4680   1.4709   1.4732   1.4751
  1.4769   1.4791   1.4812   1.4822   1.4859   1.4868   1.4883   1.4896
  1.4914   1.4926   1.4944   1.4946   1.4972   1.4984   1.5027   1.5033
  1.5050   1.5065   1.5075   1.5100   1.5148   1.5178   1.5183   1.5209
  1.5231   1.5262   1.5265   1.5284   1.5314   1.5349   1.5352   1.5373
  1.5389   1.5412   1.5433   1.5446   1.5467   1.5498   1.5518   1.5555
  1.5563   1.5597   1.5629   1.5662   1.5671   1.5719   1.5720   1.5792
  1.5819   1.5834   1.5882   1.5911   1.5922   1.5945   1.5990   1.5996
  1.6009   1.6070   1.6113   1.6161   1.6178   1.6224   1.6282   1.6312
  1.6317   1.6352   1.6426   1.6443   1.6483   1.6524   1.6545   1.6563
  1.6573   1.6595   1.6621   1.6641   1.6655   1.6696   1.6702   1.6732
  1.6743   1.6753   1.6769   1.6773   1.6781   1.6797   1.6809   1.6826
  1.6834   1.6863   1.6878   1.6883   1.6897   1.6910   1.6917   1.6935
  1.6949   1.6959   1.6965   1.6991   1.6995   1.7002   1.7019   1.7028
  1.7046   1.7066   1.7074   1.7079   1.7097   1.7105   1.7124   1.7133
  1.7142   1.7149   1.7163   1.7171   1.7194   1.7200   1.7222   1.7238
  1.7252   1.7264   1.7271   1.7295   1.7305   1.7313   1.7332   1.7339
  1.7351   1.7357   1.7381   1.7394   1.7408   1.7428   1.7443   1.7451
  1.7462   1.7478   1.7489   1.7494   1.7508   1.7513   1.7527   1.7536
  1.7539   1.7555   1.7575   1.7582   1.7595   1.7618   1.7627   1.7648
  1.7660   1.7670   1.7681   1.7692   1.7711   1.7720   1.7728   1.7743
  1.7750   1.7762   1.7785   1.7804   1.7826   1.7843   1.7857   1.7870
  1.7899   1.7908   1.7939   1.7946   1.7969   1.7973   1.7991   1.7993
  1.8016   1.8040   1.8071   1.8077   1.8080   1.8138   1.8152   1.8170
  1.8218   1.8249   1.8278   1.8289   1.8347   1.8371   1.8414   1.8461
  1.8475   1.8508   1.8556   1.8579   1.8582   1.8630   1.8667   1.8686
  1.8701   1.8727   1.8744   1.8765   1.8789   1.8795   1.8817   1.8833
  1.8868   1.8877   1.8880   1.8890   1.8895   1.8919   1.8928   1.8941
  1.8955   1.8976   1.8981   1.8999   1.9004   1.9006   1.9028   1.9037
  1.9045   1.9049   1.9075   1.9079   1.9089   1.9095   1.9119   1.9130
  1.9147   1.9164   1.9168   1.9180   1.9197   1.9197   1.9208   1.9210
  1.9233   1.9246   1.9258   1.9269   1.9278   1.9294   1.9306   1.9325
  1.9349   1.9353   1.9375   1.9385   1.9413   1.9422   1.9452   1.9470
  1.9481   1.9501   1.9523   1.9550   1.9574   1.9596   1.9636   1.9656
  1.9682   1.9714   1.9734   1.9751   1.9779   1.9813   1.9870   1.9944
  2.0028   2.0041   2.0182   2.0237   2.0299   2.0436   2.0445   2.0477
  2.0490   2.0505   2.0546   2.0561   2.0570   2.0599   2.0609   2.0627
  2.0641   2.0664   2.0677   2.0686   2.0704   2.0729   2.0744   2.0766
  2.0776   2.0791   2.0798   2.0800   2.0807   2.0819   2.0833   2.0845
  2.0851   2.0866   2.0880   2.0886   2.0904   2.0917   2.0944   2.0961
  2.0987   2.0989   2.0994   2.1004   2.1014   2.1024   2.1028   2.1040
  2.1057   2.1068   2.1098   2.1108   2.1134   2.1142   2.1161   2.1171
  2.1191   2.1204   2.1229   2.1251   2.1265   2.1282   2.1319   2.1379
  2.1488   2.1551   2.1569   2.1656   2.1671   2.1745   2.1752   2.1775
  2.1790   2.1815   2.1833   2.1880   2.1894   2.1939   2.1970   2.1997
  2.2027   2.2042   2.2067   2.2103   2.2133   2.2150   2.2180   2.2192
  2.2203   2.2213   2.2225   2.2233   2.2245   2.2256   2.2307   2.2310
  2.2318   2.2332   2.2359   2.2371   2.2374   2.2392   2.2395   2.2406
  2.2412   2.2418   2.2420   2.2435   2.2440   2.2451   2.2459   2.2470
  2.2482   2.2498   2.2508   2.2531   2.2547   2.2556   2.2567   2.2572
  2.2577   2.2580   2.2600   2.2620   2.2624   2.2638   2.2640   2.2648
  2.2653   2.2662   2.2674   2.2677   2.2680   2.2699   2.2701   2.2710
  2.2723   2.2729   2.2738   2.2745   2.2768   2.2779   2.2785   2.2800
  2.2804   2.2817   2.2827   2.2836   2.2845   2.2861   2.2865   2.2872
  2.2881   2.2885   2.2888   2.2907   2.2913   2.2931   2.2936   2.2947
  2.2962   2.2977   2.2983   2.2993   2.3003   2.3021   2.3035   2.3047
  2.3058   2.3064   2.3081   2.3084   2.3094   2.3096   2.3101   2.3112
  2.3119   2.3125   2.3145   2.3150   2.3159   2.3184   2.3206   2.3212
  2.3223   2.3238   2.3246   2.3259   2.3265   2.3269   2.3279   2.3299
  2.3305   2.3324   2.3348   2.3372   2.3399   2.3405   2.3411   2.3416
  2.3446   2.3452   2.3495   2.3507   2.3513   2.3533   2.3535   2.3542
  2.3554   2.3573   2.3575   2.3593   2.3615   2.3618   2.3633   2.3648
  2.3672   2.3702   2.3705   2.3715   2.3728   2.3741   2.3781   2.3793
  2.3823   2.3841   2.3858   2.3889   2.3915   2.3917   2.4037   2.4083
  2.4094   2.4165   2.4198   2.4377   2.4488   2.4538   2.4968   2.5304
  2.5428   2.5857   2.6637   2.7089   2.7515   2.7740   2.8205   2.8260
  2.8294   2.8298   2.8324   2.8351   2.8361   2.8397   2.8425   2.8476
  2.8481   2.8493   2.8510   2.8522   2.8542   2.8559   2.8571   2.8599
  2.8616   2.8621   2.8626   2.8634   2.8641   2.8665   2.8718   2.8731
  2.8770   2.8806   2.8835   2.8865   2.9022   2.9489   3.0992   3.2355
  3.9515   3.9598   3.9629   3.9651   3.9688   3.9725   3.9733   3.9754
  3.9759   3.9812   3.9815   3.9867   3.9912   3.9937   3.9948   3.9967
  3.9986   3.9992   4.0014   4.0052   4.0064   4.0103   4.0192   4.0245
  4.0265   4.0276   4.0384   4.2246   4.2298   4.2335   4.2362   4.2396
  4.2442   4.2502   4.2552   4.2581   4.2588   4.2606   4.2629   4.2637
  4.2662   4.2679   4.2712   4.2730   4.2747   4.2772   4.2809   4.2867
  4.2880   4.2892   4.2903   4.2925   4.2978   4.3008   4.3026   4.3038
  4.3088   4.3098   4.3106   4.3115   4.3127   4.3173   4.3204   4.3245
  4.3252   4.3267   4.3306   4.3317   4.3366   4.3378   4.3384   4.3414
  4.3430   4.3466   4.3489   4.3495   4.3545   4.3568   4.3582   4.3625
  4.3658   4.3703   4.3740   4.3790   4.3842   4.3855   4.3872   4.3949
  4.4038   4.4045   4.4071   4.4117   4.4174   4.4203   4.4223   4.4271
  4.4355   4.4414   4.4484   4.4512   4.4654   4.4780   4.4812   4.4858
  4.4917   4.5091   4.5205   4.5238   4.5534   4.5770   4.5890   4.6114
  4.6362   4.7087   4.7445   4.7654   4.9393
 --------------------------------------------------------------
 
          Ground-State Mulliken Net Atomic Charges

     Atom                 Charge (a.u.)
  ----------------------------------------
      1 C                    -0.123487
      2 C                    -0.608146
      3 C                    -0.304966
      4 C                    -0.417783
      5 C                    -0.471063
      6 C                    -0.375551
      7 H                     0.195525
      8 H                     0.235945
      9 H                     0.171673
     10 H                     0.226593
     11 H                     0.202447
     12 H                     0.200992
     13 H                     0.206275
     14 H                     0.184091
     15 H                     0.214456
     16 H                     0.226498
     17 H                     0.211101
     18 N                    -0.368996
     19 H                     0.450145
     20 C                     0.286317
     21 H                     0.209791
     22 O                    -0.551857
     23 C                    -0.699084
     24 H                     0.271822
     25 H                     0.229070
     26 H                     0.251509
     27 S                     0.771196
     28 C                    -0.820603
     29 H                     0.249287
     30 H                     0.247189
     31 H                     0.250022
     32 O                    -0.745328
     33 C                    -1.032531
     34 H                     0.269984
     35 H                     0.267159
     36 H                     0.308107
     37 S                     1.001075
     38 C                    -0.904392
     39 H                     0.275461
     40 H                     0.202225
     41 H                     0.295157
     42 O                    -0.717300
     43 C                    -0.901171
     44 H                     0.302472
     45 H                     0.289310
     46 H                     0.249540
     47 S                     0.997306
     48 C                    -0.883783
     49 H                     0.244075
     50 H                     0.255117
     51 H                     0.285254
     52 O                    -0.785314
     53 C                    -0.986517
     54 H                     0.230063
     55 H                     0.238932
     56 H                     0.275341
     57 S                     1.096553
     58 C                    -0.899424
     59 H                     0.278882
     60 H                     0.255000
     61 H                     0.246631
     62 O                    -0.734340
     63 C                    -0.883032
     64 H                     0.286876
     65 H                     0.227964
     66 H                     0.264481
     67 S                     0.750778
     68 C                    -0.885135
     69 H                     0.239368
     70 H                     0.243586
     71 H                     0.290109
     72 O                    -0.631460
     73 C                    -0.899475
     74 H                     0.246024
     75 H                     0.229316
     76 H                     0.248934
     77 S                     0.919566
     78 C                    -0.830107
     79 H                     0.227597
     80 H                     0.276635
     81 H                     0.249317
     82 O                    -0.685787
     83 C                    -1.077918
     84 H                     0.275176
     85 H                     0.233752
     86 H                     0.275996
     87 S                     1.287155
     88 C                    -0.940835
     89 H                     0.305595
     90 H                     0.238478
     91 H                     0.250729
     92 O                    -0.742258
     93 C                    -0.869705
     94 H                     0.242916
     95 H                     0.252685
     96 H                     0.266420
     97 S                     1.214666
     98 C                    -1.347054
     99 H                     0.300171
    100 H                     0.272860
    101 H                     0.276854
    102 O                    -0.746429
    103 C                    -1.058254
    104 H                     0.282262
    105 H                     0.273522
    106 H                     0.253602
    107 S                     1.115248
    108 C                    -0.943676
    109 H                     0.229983
    110 H                     0.312738
    111 H                     0.245595
    112 O                    -0.693037
    113 C                    -0.900951
    114 H                     0.259859
    115 H                     0.240705
    116 H                     0.256344
    117 S                     0.870616
    118 C                    -0.772690
    119 H                     0.286491
    120 H                     0.208072
    121 H                     0.313406
    122 O                    -0.688901
    123 C                    -0.778248
    124 H                     0.221856
    125 H                     0.240417
    126 H                     0.282732
    127 S                     0.882687
    128 C                    -0.773355
    129 H                     0.225707
    130 H                     0.315192
    131 H                     0.264531
    132 O                    -0.824968
    133 C                    -1.004830
    134 H                     0.272337
    135 H                     0.235131
    136 H                     0.235262
    137 S                     0.878721
    138 C                    -0.814006
    139 H                     0.239016
    140 H                     0.259983
    141 H                     0.254340
    142 O                    -0.714946
    143 C                    -0.888204
    144 H                     0.239243
    145 H                     0.278917
    146 H                     0.291097
    147 S                     0.788664
    148 C                    -0.820717
    149 H                     0.274122
    150 H                     0.270888
    151 H                     0.246338
    152 O                    -0.631168
    153 C                    -1.047860
    154 H                     0.249771
    155 H                     0.257985
    156 H                     0.247137
    157 S                     1.115223
    158 C                    -0.925971
    159 H                     0.269375
    160 H                     0.233864
    161 H                     0.293820
    162 O                    -0.674364
    163 C                    -0.989825
    164 H                     0.279456
    165 H                     0.275831
    166 H                     0.246094
    167 S                     1.170616
    168 C                    -1.003163
    169 H                     0.290280
    170 H                     0.225092
    171 H                     0.273831
    172 O                    -0.754216
    173 C                    -0.726449
    174 H                     0.259473
    175 H                     0.255423
    176 H                     0.259636
    177 S                     0.490516
    178 C                    -0.683645
    179 H                     0.250960
    180 H                     0.261134
    181 H                     0.254203
    182 O                    -0.627760
    183 C                    -0.803014
    184 H                     0.239106
    185 H                     0.237145
    186 H                     0.227833
    187 S                     0.812556
    188 C                    -0.810479
    189 H                     0.298404
    190 H                     0.230926
    191 H                     0.267214
    192 O                    -0.698877
    193 C                    -0.849298
    194 H                     0.308471
    195 H                     0.236738
    196 H                     0.257951
    197 S                     0.756319
    198 C                    -0.775474
    199 H                     0.286323
    200 H                     0.216957
    201 H                     0.256448
    202 O                    -0.678516
    203 C                    -0.669248
    204 H                     0.257836
    205 H                     0.216125
    206 H                     0.274802
    207 S                     0.668391
    208 C                    -0.829436
    209 H                     0.313068
    210 H                     0.265677
    211 H                     0.209686
    212 O                    -0.691669
    213 C                    -0.778988
    214 H                     0.284418
    215 H                     0.180618
    216 H                     0.294694
    217 S                     0.773228
    218 C                    -0.754011
    219 H                     0.279126
    220 H                     0.211412
    221 H                     0.239727
    222 O                    -0.722190
    223 C                    -0.821719
    224 H                     0.248417
    225 H                     0.263254
    226 H                     0.262541
    227 S                     0.718975
    228 C                    -0.806757
    229 H                     0.306995
    230 H                     0.249141
    231 H                     0.237158
    232 O                    -0.712878
    233 C                    -0.707794
    234 H                     0.249272
    235 H                     0.281649
    236 H                     0.254196
    237 S                     0.501873
    238 C                    -0.686091
    239 H                     0.296385
    240 H                     0.283189
    241 H                     0.252905
    242 O                    -0.612264
    243 C                    -1.054172
    244 H                     0.269416
    245 H                     0.248728
    246 H                     0.258564
    247 S                     1.156506
    248 C                    -1.013067
    249 H                     0.234877
    250 H                     0.273467
    251 H                     0.264050
    252 O                    -0.683484
    253 C                    -0.986620
    254 H                     0.269129
    255 H                     0.273470
    256 H                     0.271863
    257 S                     1.191521
    258 C                    -1.023113
    259 H                     0.278781
    260 H                     0.284873
    261 H                     0.243252
    262 O                    -0.707310
    263 C                    -0.946860
    264 H                     0.242803
    265 H                     0.275138
    266 H                     0.271385
    267 S                     0.991165
    268 C                    -0.818999
    269 H                     0.267292
    270 H                     0.277942
    271 H                     0.234066
    272 O                    -0.844375
    273 C                    -0.789082
    274 H                     0.248015
    275 H                     0.236585
    276 H                     0.236243
    277 S                     0.913459
    278 C                    -0.845647
    279 H                     0.237664
    280 H                     0.244094
    281 H                     0.299891
    282 O                    -0.788211
    283 C                    -0.936262
    284 H                     0.240804
    285 H                     0.293840
    286 H                     0.258279
    287 S                     0.894520
    288 C                    -0.895480
    289 H                     0.237417
    290 H                     0.294084
    291 H                     0.276976
    292 O                    -0.698825
  ----------------------------------------
  Sum of atomic charges =     0.000000

 -----------------------------------------------------------------
                    Cartesian Multipole Moments
 -----------------------------------------------------------------
    Charge (ESU x 10^10)
                 0.0000
    Dipole Moment (Debye)
         X      13.6306      Y       2.7567      Z      12.3827
       Tot      18.6205
    Quadrupole Moments (Debye-Ang)
        XX    -264.0062     XY     346.4401     YY    -796.9711
        XZ     666.9481     YZ     346.9488     ZZ    -281.3671
    Octopole Moments (Debye-Ang^2)
       XXX  -54468.4382    XXY   -7141.2014    XYY  -17372.1348
       YYY  -60835.5426    XXZ    1279.0061    XYZ   16382.1699
       YYZ  -14447.8484    XZZ    -819.0826    YZZ   -6256.1599
       ZZZ  -45375.4728
    Hexadecapole Moments (Debye-Ang^3)
      XXXX ************   XXXY ************   XXYY -958411.7334
      XYYY ************   YYYY ************   XXXZ ************
      XXYZ   19268.9659   XYYZ -272052.3354   YYYZ ************
      XXZZ -538866.8884   XYZZ  -22580.6839   YYZZ -792803.6983
      XZZZ ************   YZZZ ************   ZZZZ ************
 -----------------------------------------------------------------
Archival summary:
[...]
    2  -0.0039238  -0.0082821   0.0247809  -0.0245028   0.0492137  -0.0024054
    3   0.0001264   0.0305674  -0.0143369  -0.0147631   0.0095727  -0.0085565
          139         140         141         142         143         144
    1  -0.0075207   0.0264913  -0.0124278   0.0459247  -0.0029538  -0.0129416
    2   0.0230520  -0.0148341  -0.0259789  -0.0902893   0.0040145   0.0313614
    3  -0.0243269  -0.0042210  -0.0122966   0.0450318   0.0071645  -0.0049287
          145         146         147         148         149         150
    1  -0.0123934  -0.0173068   0.0189581   0.0002674   0.0040643  -0.0059955
    2  -0.0196236  -0.0015823  -0.0571148   0.0100548   0.0222249   0.0055943
    3  -0.0210297   0.0366837   0.0175026   0.0004399  -0.0276618   0.0350089
          151         152         153         154         155         156
    1   0.0269969  -0.0005144  -0.0039347   0.0150662  -0.0057592  -0.0232752
    2  -0.0068567   0.0211804   0.0006187  -0.0112507   0.0291918  -0.0228752
    3   0.0064451  -0.1077250   0.0043645   0.0264171   0.0113826   0.0007615
          157         158         159         160         161         162
    1   0.0314717  -0.0067173  -0.0060632  -0.0194263  -0.0000403   0.0364910
    2   0.0443058  -0.0001560  -0.0346316   0.0251644   0.0073061  -0.1033614
    3  -0.0071821  -0.0083802   0.0049968  -0.0009811  -0.0334740  -0.0148640
          163         164         165         166         167         168
    1   0.0050668   0.0285876  -0.0059982   0.0192095   0.0149442  -0.0003808
    2  -0.0049809  -0.0069621  -0.0298860   0.0040529   0.0497940  -0.0003516
    3   0.0019094   0.0268243   0.0059733  -0.0248536  -0.0099197   0.0089092
          169         170         171         172         173         174
    1  -0.0252727  -0.0110745   0.0207909  -0.0787280   0.0057275  -0.0006952
    2   0.0167745  -0.0313658   0.0148165  -0.0563656   0.0046199   0.0152135
    3   0.0091471   0.0009611   0.0237839  -0.0515692   0.0016601   0.0263268
          175         176         177         178         179         180
    1   0.0293235   0.0055853  -0.0027821   0.0021931   0.0232776  -0.0234051
    2  -0.0158241   0.0272410  -0.0502500   0.0009165  -0.0254469  -0.0091180
    3  -0.0042516  -0.0158805   0.0348323  -0.0058464  -0.0105824  -0.0150658
          181         182         183         184         185         186
    1   0.0057973  -0.0785517   0.0022334   0.0183381   0.0069444  -0.0000818
    2   0.0229868   0.0768306   0.0034234   0.0323805  -0.0273011   0.0184340
    3  -0.0223342   0.0025508  -0.0030148   0.0075784  -0.0143021  -0.0345942
          187         188         189         190         191         192
    1  -0.0209523   0.0064893  -0.0200787   0.0226849   0.0178174  -0.0528768
    2   0.0411222  -0.0089082  -0.0163226  -0.0153227   0.0199262  -0.0704857
    3   0.0247860   0.0062432   0.0191066  -0.0115710   0.0191651  -0.0661165
          193         194         195         196         197         198
    1   0.0095894   0.0107346   0.0219886   0.0030088   0.0031443   0.0008599
    2  -0.0046080  -0.0107101   0.0200493  -0.0237253   0.0441367  -0.0018764
    3   0.0031060  -0.0251173   0.0017505   0.0210862  -0.0452034   0.0098512
          199         200         201         202         203         204
    1  -0.0005616   0.0086113  -0.0300810  -0.0571413  -0.0043688   0.0135497
    2  -0.0219138   0.0317357  -0.0026123  -0.0919325   0.0109451   0.0050900
    3   0.0295987   0.0051153  -0.0056468  -0.0233813  -0.0025659   0.0266480
          205         206         207         208         209         210
    1   0.0038984  -0.0256814   0.0498820  -0.0091465  -0.0049801  -0.0288886
    2   0.0140655   0.0196653  -0.0263802  -0.0007074  -0.0319412   0.0107202
    3  -0.0339917   0.0103423  -0.0183415  -0.0065604   0.0040747   0.0134822
          211         212         213         214         215         216
    1   0.0086615  -0.0491603  -0.0035310   0.0111975   0.0248339  -0.0284744
    2   0.0095000  -0.0229645  -0.0084848  -0.0191671  -0.0097876  -0.0192665
    3  -0.0273630   0.0952161   0.0040090  -0.0178397   0.0247612   0.0040276
          217         218         219         220         221         222
    1   0.0416170  -0.0050716  -0.0258535   0.0105102  -0.0188600  -0.0682396
    2   0.0260129  -0.0016271  -0.0169370  -0.0049365   0.0260191  -0.0278579
    3  -0.0049561   0.0031590   0.0068754   0.0342728  -0.0117098  -0.0834335
          223         224         225         226         227         228
    1  -0.0001687   0.0048971   0.0323937  -0.0289810   0.0371206   0.0015909
    2   0.0042757  -0.0194160   0.0103252   0.0144611  -0.0357812   0.0066772
    3   0.0046694   0.0251880   0.0182772  -0.0017318  -0.0104443  -0.0051632
          229         230         231         232         233         234
    1  -0.0015525  -0.0194356   0.0330255  -0.1063132  -0.0018514   0.0286519
    2   0.0042034   0.0225040   0.0115123  -0.0066707  -0.0043128  -0.0120040
    3  -0.0336205   0.0095479   0.0050853  -0.0277590   0.0063047  -0.0045571
          235         236         237         238         239         240
    1   0.0022487  -0.0091084   0.0134958  -0.0094145  -0.0146439  -0.0236316
    2   0.0209807  -0.0114801   0.0380767  -0.0002799   0.0339700  -0.0069168
    3   0.0050373   0.0315770  -0.0467606   0.0033609   0.0058481  -0.0192557
          241         242         243         244         245         246
    1  -0.0234767   0.0276801   0.0014302   0.0198299  -0.0304367   0.0141237
    2  -0.0206951  -0.1057289   0.0035927   0.0254465   0.0001521  -0.0222233
    3   0.0197348  -0.0079238   0.0042382   0.0104200  -0.0019802   0.0181132
          247         248         249         250         251         252
    1   0.0530290  -0.0029632  -0.0231525   0.0207413  -0.0092161  -0.0681371
    2  -0.0005525   0.0062928   0.0054542   0.0248405  -0.0073005  -0.0842424
    3  -0.0117333  -0.0053574   0.0192943  -0.0074189  -0.0305129  -0.0169916
          253         254         255         256         257         258
    1  -0.0059904  -0.0262005   0.0139423   0.0002447   0.0414525  -0.0090204
    2  -0.0069692   0.0058217  -0.0113814  -0.0222182  -0.0122717  -0.0016224
    3  -0.0047470  -0.0142312  -0.0263317   0.0221453   0.0289314   0.0068785
          259         260         261         262         263         264
    1  -0.0085501  -0.0193420  -0.0165630  -0.0205771  -0.0070933   0.0117944
    2   0.0124480   0.0194575  -0.0284143   0.0869018   0.0111035   0.0079562
    3   0.0302219  -0.0137062   0.0282949  -0.0611478  -0.0067944  -0.0294244
          265         266         267         268         269         270
    1  -0.0325827  -0.0033300  -0.0136736  -0.0054326  -0.0310444   0.0082588
    2   0.0026871   0.0183454  -0.0404085   0.0000068   0.0055052  -0.0209481
    3  -0.0002485   0.0218449  -0.0236942   0.0102430  -0.0029915   0.0229307
          271         272         273         274         275         276
    1   0.0120188   0.0961324   0.0006336  -0.0135501  -0.0130677   0.0287888
    2   0.0216163   0.0463174  -0.0027670  -0.0290266   0.0225949  -0.0121432
    3   0.0094723   0.0195702  -0.0048530  -0.0135998  -0.0205750  -0.0061997
          277         278         279         280         281         282
    1  -0.0522526   0.0099048   0.0331891  -0.0016570   0.0083401   0.0465446
    2   0.0244462   0.0043181  -0.0054955   0.0271592   0.0137620  -0.0804508
    3   0.0124124   0.0014080  -0.0078686  -0.0172157   0.0270236   0.0558889
          283         284         285         286         287         288
    1   0.0000235   0.0325894  -0.0170158   0.0107201   0.0337445  -0.0086267
    2   0.0022572  -0.0066235  -0.0212603   0.0224966   0.0126652  -0.0040460
    3  -0.0080550  -0.0085101  -0.0153817  -0.0137929   0.0337697  -0.0012895
          289         290         291         292
    1   0.0227899  -0.0200963  -0.0137775  -0.1070928
    2  -0.0265195  -0.0037004  -0.0133172   0.0349082
    3   0.0018434   0.0230683  -0.0273805  -0.0135872
  --- DONE ESP SUMMARY ---
Archival summary:
1\1\n0080.mhg0\SP\ProcedureUnspecified\6-31+G*\272754h22\ymao\FriMar1211:09:082021FriMar1211:09:082021\0\\#,ProcedureUnspecified,6-31+G*,\\0,1\S\O,1,1.49658\C,1,1.8069,2,111.863\H,3,1.09226,1,104.435,2,165.564,0\H,3,1.09303,1,104.077,2,49.1695,0\H,3,1.09345,1,111.213,2,-78.2198,0\C,1,1.80725,2,99.6209,3,101.901,0\H,7,1.09263,1,111.285,2,44.686,0\H,7,1.09315,1,101.747,2,-69.9336,0\H,7,1.09319,1,109.937,2,174.285,0\H,9,2.28399,7,154.272,1,70.6215,0\C,11,1.09336,9,102.237,7,17.9925,0\H,12,1.09251,11,105.479,9,-150.502,0\H,12,1.093,11,112.39,9,-31.431,0\S,12,1.80734,11,111.341,9,85.6408,0\O,15,1.49681,12,98.8151,11,158.155,0\C,15,1.80633,12,99.144,11,49.1407,0\H,17,1.09257,15,104.877,12,154.747,0\H,17,1.09293,15,103.053,12,-83.6802,0\H,17,1.09328,15,110.456,12,33.9566,0\H,14,2.24929,12,127.219,11,-160.393,0\C,21,1.09366,14,118.167,12,-90.441,0\H,22,1.09276,21,105.883,14,95.6699,0\H,22,1.09277,21,109.19,14,-22.5292,0\S,22,1.80707,21,110.335,14,-139.243,0\O,25,1.49714,22,99.4395,21,149.244,0\C,25,1.80751,22,90.0988,21,51.2382,0\H,27,1.09249,25,109.963,22,165.645,0\H,27,1.0928,25,112.715,22,49.318,0\H,27,1.09307,25,112.654,22,-77.1168,0\H,26,2.24013,25,130.095,22,164.55,0\C,31,1.09271,26,137.392,25,-155.35,0\H,32,1.09293,31,100.186,26,-144.523,0\H,32,1.09316,31,107.048,26,104.554,0\S,32,1.80758,31,121.213,26,-22.8541,0\O,35,1.49705,32,98.0027,31,-169.189,0\C,35,1.80694,32,100.377,31,82.1008,0\H,37,1.09261,35,107.944,32,95.1929,0\H,37,1.09265,35,109.115,32,-32.3215,0\H,37,1.09287,35,114.75,32,-149.791,0\H,24,2.29915,22,135.978,21,128.288,0\C,41,1.09258,24,145.626,22,159.139,0\H,42,1.09349,41,112.192,24,131.173,0\H,42,1.09354,41,110.915,24,-97.6039,0\S,42,1.80605,41,100.311,24,22.6649,0\O,45,1.4968,42,100.659,41,179.703,0\C,45,1.80641,42,91.2059,41,-81.1865,0\H,47,1.0927,45,105.243,42,178.493,0\H,47,1.09273,45,112.051,42,-62.2255,0\H,47,1.09336,45,107.387,42,57.7791,0\H,49,2.29059,47,106.876,45,-80.7982,0\C,51,1.09301,49,117.737,47,-111.862,0\H,52,1.0924,51,110.263,49,55.5093,0\H,52,1.09327,51,112.298,49,-74.3148,0\S,52,1.80716,51,110.29,49,171.21,0\O,55,1.49713,52,103.248,51,-59.3157,0\C,55,1.80728,52,91.3267,51,-165.312,0\H,57,1.09264,55,102.563,52,-78.5107,0\H,57,1.09284,55,115.938,52,47.1635,0\H,57,1.093,55,102.018,52,170.908,0\H,60,2.05041,57,154.628,55,-94.8378,0\C,61,1.09258,60,111.503,57,147.057,0\H,62,1.09303,61,106.255,60,-167.447,0\H,62,1.09346,61,108.088,60,-52.3135,0\S,62,1.80698,61,111.73,60,68.3156,0\O,65,1.4966,62,104.673,61,-61.6144,0\C,65,1.80742,62,94.5606,61,38.8348,0\H,67,1.09275,65,108.54,62,-34.2679,0\H,67,1.0931,65,109.521,62,84.6801,0\H,67,1.09333,65,106.963,62,-159.036,0\H,63,2.29062,62,111.339,61,115.535,0\C,71,1.09264,63,125.694,62,-127.997,0\H,72,1.09332,71,115.164,63,177.961,0\H,72,1.09358,71,111.65,63,-67.3229,0\S,72,1.80699,71,113.72,63,47.4116,0\O,75,1.49698,72,103.035,71,-93.634,0\C,75,1.80629,72,101.405,71,159.827,0\H,77,1.09287,75,100.297,72,-72.3689,0\H,77,1.09315,75,118.715,72,165.067,0\H,77,1.09334,75,102.875,72,39.248,0\H,63,2.30038,62,122.875,61,-54.4431,0\C,81,1.09344,63,142.71,62,98.0076,0\H,82,1.09216,81,104.558,63,14.7193,0\H,82,1.09348,81,116.114,63,-108.718,0\S,82,1.80694,81,106.045,63,126.351,0\O,85,1.49755,82,96.9212,81,-173.153,0\C,85,1.80692,82,96.5616,81,-70.7188,0\H,87,1.09287,85,106.571,82,-179.141,0\H,87,1.09305,85,105.251,82,-54.6708,0\H,87,1.09331,85,108.635,82,69.9966,0\H,58,2.30966,57,121.411,55,111.893,0\C,91,1.09298,58,126.41,57,63.0152,0\H,92,1.09247,91,105.757,58,146.297,0\H,92,1.09303,91,113.167,58,18.2614,0\S,92,1.8063,91,105.154,58,-97.5553,0\O,95,1.49705,92,102.476,91,69.4844,0\C,95,1.80698,92,97.6562,91,177.922,0\H,97,1.09243,95,110.033,92,-168.278,0\H,97,1.09263,95,103.042,92,72.1273,0\H,97,1.09352,95,107.574,92,-44.5566,0\H,6,2.31111,3,126.265,1,119.017,0\C,101,1.09294,6,113.799,3,-147.368,0\H,102,1.09306,101,115.232,6,147.805,0\H,102,1.09328,101,98.4991,6,24.3433,0\S,102,1.80643,101,109.394,6,-84.1154,0\O,105,1.49656,102,96.9253,101,50.6055,0\C,105,1.80656,102,93.5646,101,151.55,0\H,107,1.09305,105,107.543,102,-54.0088,0\H,107,1.09305,105,109.288,102,-162.247,0\H,107,1.09315,105,111.378,102,72.8866,0\H,61,2.32958,60,76.8177,57,4.29267,0\C,111,1.09366,61,132.071,60,-95.6034,0\H,112,1.09232,111,115.047,61,-99.6597,0\H,112,1.093,111,114.543,61,136.284,0\S,112,1.80613,111,107.98,61,19.2752,0\O,115,1.49744,112,95.5996,111,-91.5669,0\C,115,1.80653,112,92.8685,111,163.902,0\H,117,1.09293,115,106.748,112,171.088,0\H,117,1.0934,115,104.53,112,58.0537,0\H,117,1.09357,115,114.845,112,-65.4204,0\H,113,2.19091,112,144.914,111,100.76,0\C,121,1.0936,113,122.248,112,138.41,0\H,122,1.09256,121,115.06,113,92.9829,0\H,122,1.09284,121,107.084,113,-29.8955,0\S,122,1.80665,121,109.058,113,-146.489,0\O,125,1.49673,122,99.5811,121,164.755,0\C,125,1.80696,122,97.3522,121,61.3573,0\H,127,1.09273,125,108.905,122,77.7181,0\H,127,1.09349,125,102.862,122,-52.1882,0\H,127,1.09394,125,105.997,122,-167.987,0\H,124,2.14164,122,156.365,121,-140.367,0\C,131,1.0928,124,171.886,122,8.81851,0\H,132,1.09231,131,112.668,124,-88.2365,0\H,132,1.09273,131,105.704,124,151.781,0\S,132,1.80791,131,109.934,124,32.9728,0\O,135,1.49634,132,101.8,131,74.1297,0\C,135,1.80761,132,97.8964,131,-177.516,0\H,137,1.09274,135,106.02,132,159.51,0\H,137,1.09306,135,115.272,132,-71.9675,0\H,137,1.09324,135,104.423,132,50.6654,0\H,139,2.0291,137,134.439,135,34.9464,0\C,141,1.09345,139,150.872,137,-84.327,0\H,142,1.09242,141,112.412,139,-65.0871,0\H,142,1.09254,141,108.395,139,53.4628,0\S,142,1.80715,141,105.879,139,175.475,0\O,145,1.49652,142,108.573,141,-59.7706,0\C,145,1.80741,142,94.2501,141,-171.364,0\H,147,1.09257,145,105.37,142,-63.9476,0\H,147,1.09308,145,106.424,142,50.1919,0\H,147,1.09386,145,114.341,142,175.113,0\Gh,124,2.21201,122,109.556,121,71.8001,0\Gh,151,1.09673,124,139.037,122,107.52,0\Gh,152,1.09669,151,103.551,124,-15.8248,0\Gh,152,1.53695,151,115.182,124,109.65,0\Gh,154,1.097,152,110.242,151,-179.192,0\Gh,154,1.09701,152,102.02,151,-58.8714,0\Gh,152,1.53749,151,104.332,124,-134.358,0\Gh,157,1.09633,152,108.577,151,169.613,0\Gh,157,1.09693,152,111.634,151,49.513,0\Gh,157,1.53769,152,114.864,151,-68.3167,0\Gh,160,1.09666,157,114.962,152,-179.291,0\Gh,160,1.09719,157,106.284,152,65.2329,0\Gh,160,1.53739,157,111.628,152,-54.5268,0\Gh,163,1.09755,160,107.867,157,-68.6297,0\Gh,163,1.46138,160,108.142,157,174.162,0\Gh,165,1.01265,163,119.321,160,-72.3412,0\Gh,165,1.37913,163,123.56,160,87.6556,0\Gh,167,1.10519,165,111,163,-178.991,0\Gh,167,1.21814,165,121.46,163,9.4677,0\Gh,163,1.53681,160,112.662,157,51.3627,0\Gh,170,1.09667,163,105.396,160,73.7384,0\Gh,170,1.09715,163,106.602,160,-169.883,0\H,80,2.3529,77,115.858,75,165.601,0\C,173,1.09257,80,149.533,77,140.706,0\H,174,1.0922,173,105.539,80,0.639409,0\H,174,1.09298,173,115.902,80,129.884,0\S,174,1.80765,173,115.583,80,-117.36,0\O,177,1.4971,174,98.8151,173,-60.3342,0\C,177,1.80701,174,88.5755,173,47.4691,0\H,179,1.09223,177,114.253,174,-156.284,0\H,179,1.09332,177,114.406,174,80.8908,0\H,179,1.09332,177,106.484,174,-39.9059,0\H,180,2.22761,179,126.029,177,95.0455,0\C,183,1.0926,180,102.885,179,113.999,0\H,184,1.09316,183,108.359,180,-43.6316,0\H,184,1.09331,183,108.827,180,-158.996,0\S,184,1.80715,183,114.859,180,80.5405,0\O,187,1.49697,184,104,183,-23.388,0\C,187,1.80709,184,97.6153,183,84.507,0\H,189,1.09272,187,118.418,184,20.966,0\H,189,1.09299,187,99.8306,184,-98.2607,0\H,189,1.09368,187,106.305,184,146.935,0\H,183,2.2331,180,102.767,179,-37.9026,0\C,193,1.09302,183,134.467,180,-130.633,0\H,194,1.09299,193,110.91,183,71.9317,0\H,194,1.09343,193,102.308,183,-171.582,0\S,194,1.80662,193,119.915,183,-52.9202,0\O,197,1.49736,194,103.251,193,71.4134,0\C,197,1.80699,194,99.4429,193,-179.824,0\H,199,1.09249,197,113.616,194,-178.794,0\H,199,1.09302,197,109.306,194,58.8589,0\H,199,1.09306,197,107.844,194,-56.5268,0\H,201,2.04186,199,176.338,197,-138.219,0\C,203,1.09246,201,106.386,199,173.45,0\H,204,1.09265,203,109.21,201,-106.998,0\H,204,1.09337,203,111.235,201,16.9342,0\S,204,1.8065,203,110.049,201,137.952,0\O,207,1.49755,204,101.176,203,-51.2379,0\C,207,1.80684,204,92.9702,203,52.4269,0\H,209,1.09271,207,104.738,204,-145.607,0\H,209,1.09272,207,108.966,204,92.7232,0\H,209,1.094,207,113.356,204,-31.374,0\H,200,2.19214,199,117.807,197,160.435,0\C,213,1.0931,200,120.727,199,37.7685,0\H,214,1.09299,213,110.813,200,-145.831,0\H,214,1.093,213,107.311,200,-25.5578,0\S,214,1.80637,213,106.398,200,89.1212,0\O,217,1.49729,214,106.58,213,71.9142,0\C,217,1.80689,214,102.609,213,-38.2312,0\H,219,1.0923,217,108.644,214,-63.233,0\H,219,1.09267,217,110.099,214,178.004,0\H,219,1.09402,217,106.103,214,56.4503,0\H,192,2.27668,189,146.943,187,-35.1124,0\C,223,1.09308,192,154.487,189,-88.6569,0\H,224,1.09303,223,110.223,192,-117.385,0\H,224,1.09329,223,107.552,192,121.441,0\S,224,1.80698,223,111.157,192,10.9135,0\O,227,1.49658,224,112.142,223,-38.442,0\C,227,1.80734,224,100.297,223,61.4528,0\H,229,1.09257,227,107.545,224,59.8166,0\H,229,1.0926,227,102.605,224,-59.7156,0\H,229,1.09308,227,110.226,224,-175.521,0\O,140,2.36495,137,158.273,135,26.8886,0\S,233,1.4976,140,137.376,137,37.2276,0\C,234,1.80668,233,105.004,140,54.6302,0\H,235,1.09312,234,112.307,233,-51.7685,0\H,235,1.09319,234,110.373,233,-174.432,0\H,235,1.09356,234,100.846,233,69.6929,0\C,234,1.80692,233,99.7387,140,-43.882,0\H,239,1.09241,234,111.175,233,-64.1036,0\H,239,1.09259,234,115.097,233,168.406,0\H,239,1.09368,234,100.081,233,49.0049,0\H,78,2.36783,77,125.855,75,-10.0992,0\C,243,1.09314,78,112.976,77,-165.75,0\H,244,1.0928,243,102.997,78,61.5173,0\H,244,1.0932,243,113.149,78,168.952,0\S,244,1.80695,243,114.326,78,-61.4583,0\O,247,1.49675,244,99.7908,243,64.294,0\C,247,1.80697,244,96.9556,243,164.099,0\H,249,1.09288,247,96.094,244,-26.3431,0\H,249,1.09318,247,111.118,244,-134.695,0\H,249,1.09336,247,116.505,244,89.5751,0\H,133,2.37847,132,112.591,131,-87.5095,0\C,253,1.09288,133,113.637,132,-174.745,0\H,254,1.09287,253,113.457,133,-104.365,0\H,254,1.09312,253,112.9,133,19.6242,0\S,254,1.80599,253,109.06,133,135.879,0\O,257,1.49717,254,99.7621,253,177.521,0\C,257,1.8067,254,98.2516,253,73.8065,0\H,259,1.09249,257,106.968,254,-43.5563,0\H,259,1.09263,257,106.412,254,-170.708,0\H,259,1.09277,257,109.481,254,71.4536,0\H,19,2.38207,17,103.45,15,102.933,0\C,263,1.09282,19,123.567,17,172.328,0\H,264,1.09287,263,108.354,19,-126.838,0\H,264,1.09296,263,107.793,19,-12.7882,0\S,264,1.80707,263,111.992,19,104.362,0\O,267,1.49612,264,104.433,263,66.91,0\C,267,1.80664,264,97.1715,263,170.286,0\H,269,1.09241,267,106.432,264,68.4585,0\H,269,1.09307,267,102.759,264,-54.3425,0\H,269,1.0933,267,102.733,264,-169.789,0\H,205,2.4186,204,153.33,203,50.5151,0\C,273,1.09324,205,101.778,204,-112.925,0\H,274,1.09247,273,112.094,205,37.7304,0\H,274,1.09349,273,108.36,205,159.035,0\S,274,1.80638,273,108.966,205,-77.7011,0\O,277,1.4974,274,103.305,273,40.742,0\C,277,1.80678,274,92.8953,273,-61.1825,0\H,279,1.09287,277,112.725,274,-77.2189,0\H,279,1.09335,277,103.223,274,52.4967,0\H,279,1.09383,277,98.6546,274,165.524,0\O,246,2.54765,244,145.071,243,136.903,0\S,283,1.4977,246,92.0369,244,126.585,0\C,284,1.8066,283,105.276,246,111.823,0\H,285,1.09288,284,113.203,283,-59.0826,0\H,285,1.09312,284,103.932,283,-175.889,0\H,285,1.09325,284,115.277,283,67.5811,0\C,284,1.80771,283,99.9212,246,-152.038,0\H,289,1.09203,284,109.041,283,92.4773,0\H,289,1.09314,284,104.574,283,-28.0836,0\H,289,1.09336,284,107.66,283,-154.512,0\\\@

 Total job time:  66.92s(wall), 230.03s(cpu) 
 Fri Mar 12 11:09:08 2021

        *************************************************************
        *                                                           *
        *  Thank you very much for using Q-Chem.  Have a nice day.  *
        *                                                           *
        *************************************************************


