                  Welcome to Q-Chem
     A Quantum Leap Into The Future Of Chemistry


 Q-Chem 5.2 (devel), Q-Chem, Inc., Pleasanton, CA (2019)

 Yihan Shao,  Zhengting Gan,  E. Epifanovsky,  A. T. B. Gilbert,  M. Wormit,  
 J. Kussmann,  A. W. Lange,  A. Behn,  Jia Deng,  Xintian Feng,  D. Ghosh,  
 M. Goldey,  P. R. Horn,  L. D. Jacobson,  I. Kaliman,  T. Kus,  A. Landau,  
 Jie Liu,  E. I. Proynov,  R. M. Richard,  R. P. Steele,  E. J. Sundstrom,  
 H. L. Woodcock III,  P. M. Zimmerman,  D. Zuev,  B. Alam,  B. Albrecht,  
 E. Alguire,  S. A. Baeppler,  D. Barton,  Z. Benda,  Y. A. Bernard,  
 E. J. Berquist,  K. B. Bravaya,  H. Burton,  K. Carter-Fenk,  D. Casanova,  
 Chun-Min Chang,  Yunqing Chen,  A. Chien,  K. D. Closser,  M. P. Coons,  
 S. Coriani,  S. Dasgupta,  A. L. Dempwolff,  M. Diedenhofen,  Hainam Do,  
 R. G. Edgar,  Po-Tung Fang,  S. Faraji,  S. Fatehi,  Qingguo Feng,  
 J. Fosso-Tande,  J. Gayvert,  Qinghui Ge,  A. Ghysels,  G. Gidofalvi,  
 J. Gomes,  J. Gonthier,  A. Gunina,  D. Hait,  M. W. D. Hanson-Heine,  
 P. H. P. Harbach,  A. W. Hauser,  M. F. Herbst,  J. E. Herr,  
 E. G. Hohenstein,  Z. C. Holden,  Kerwin Hui,  B. C. Huynh,  T.-C. Jagau,  
 Hyunjun Ji,  B. Kaduk,  K. Khistyaev,  Jaehoon Kim,  P. Klunzinger,  K. Koh,  
 D. Kosenkov,  L. Koulias,  T. Kowalczyk,  C. M. Krauter,  A. Kunitsa,  
 Ka Un Lao,  A. Laurent,  K. V. Lawler,  Joonho Lee,  D. Lefrancois,  
 S. Lehtola,  D. S. Levine,  Yi-Pei Li,  You-Sheng Lin,  Fenglai Liu,  
 Kuan-Yu Liu,  E. Livshits,  M. Loipersberger,  A. Luenser,  P. Manohar,  
 E. Mansoor,  S. F. Manzer,  Shan-Ping Mao,  Yuezhi Mao,  N. Mardirossian,  
 A. V. Marenich,  T. Markovich,  L. A. Martinez-Martinez,  S. A. Maurer,  
 N. J. Mayhall,  S. C. McKenzie,  J.-M. Mewes,  P. Morgante,  A. F. Morrison,  
 J. W. Mullinax,  K. Nanda,  T. S. Nguyen-Beck,  R. Olivares-Amaya,  
 J. A. Parkhill,  S. K. Paul,  F. Pavosevic,  Zheng Pei,  T. M. Perrine,  
 F. Plasser,  P. Pokhilko,  S. Prager,  A. Prociuk,  E. Ramos,  B. Rana,  
 D. R. Rehn,  F. Rob,  M. Scheurer,  M. Schneider,  N. Sergueev,  
 S. M. Sharada,  S. Sharma,  D. W. Small,  T. Stauch,  C. J. Stein,  
 T. Stein,  Yu-Chuan Su,  S. P. Veccham,  Zhen Tao,  A. J. W. Thom,  
 A. Tkatchenko,  T. Tsuchimochi,  N. M. Tubman,  L. Vogt,  M. L. Vidal,  
 O. Vydrov,  M. A. Watson,  J. Wenzel,  M. de Wergifosse,  T. A. Wesolowski,  
 A. White,  J. Witte,  A. Yamada,  Jun Yang,  K. Yao,  S. Yeganeh,  
 S. R. Yost,  Zhi-Qiang You,  A. Zech,  Igor Ying Zhang,  Xing Zhang,  
 Yan Zhao,  Ying Zhu,  B. R. Brooks,  G. K. L. Chan,  C. J. Cramer,  
 M. S. Gordon,  W. J. Hehre,  A. Klamt,  M. W. Schmidt,  C. D. Sherrill,  
 D. G. Truhlar,  A. Aspuru-Guzik,  R. Baer,  A. T. Bell,  N. A. Besley,  
 Jeng-Da Chai,  A. E. DePrince, III,  R. A. DiStasio Jr.,  A. Dreuw,  
 B. D. Dunietz,  T. R. Furlani,  Chao-Ping Hsu,  Yousung Jung,  Jing Kong,  
 D. S. Lambrecht,  WanZhen Liang,  C. Ochsenfeld,  V. A. Rassolov,  
 L. V. Slipchenko,  J. E. Subotnik,  T. Van Voorhis,  J. M. Herbert,  
 A. I. Krylov,  P. M. W. Gill,  M. Head-Gordon

 Contributors to earlier versions of Q-Chem not listed above: 
 R. D. Adamson,  B. Austin,  J. Baker,  G. J. O. Beran,  K. Brandhorst,  
 S. T. Brown,  E. F. C. Byrd,  A. K. Chakraborty,  C.-L. Cheng,  
 Siu Hung Chien,  D. M. Chipman,  D. L. Crittenden,  H. Dachsel,  
 R. J. Doerksen,  A. D. Dutoi,  L. Fusti-Molnar,  W. A. Goddard III,  
 A. Golubeva-Zadorozhnaya,  S. R. Gwaltney,  G. Hawkins,  A. Heyden,  
 S. Hirata,  G. Kedziora,  F. J. Keil,  C. Kelley,  Jihan Kim,  R. A. King,  
 R. Z. Khaliullin,  P. P. Korambath,  W. Kurlancheek,  A. M. Lee,  M. S. Lee,  
 S. V. Levchenko,  Ching Yeh Lin,  D. Liotard,  R. C. Lochan,  I. Lotan,  
 P. E. Maslen,  N. Nair,  D. P. O'Neill,  D. Neuhauser,  E. Neuscamman,  
 C. M. Oana,  R. Olson,  B. Peters,  R. Peverati,  P. A. Pieniazek,  
 Y. M. Rhee,  J. Ritchie,  M. A. Rohrdanz,  E. Rosta,  N. J. Russ,  
 H. F. Schaefer III,  N. E. Schultz,  N. Shenvi,  A. C. Simmonett,  A. Sodt,  
 D. Stuck,  K. S. Thanthiriwatte,  V. Vanovschi,  Tao Wang,  A. Warshel,  
 C. F. Williams,  Q. Wu,  X. Xu,  W. Zhang

 Please cite Q-Chem as follows:
 Y. Shao et al., Mol. Phys. 113, 184-215 (2015)
 DOI: 10.1080/00268976.2014.952696

 Q-Chem 5.2.2 for Intel X86 EM64T Linux

 Parts of Q-Chem use Armadillo 9.800.1 (Horizon Scraper).
 http://arma.sourceforge.net/

 Q-Chem begins on Thu Mar 11 13:37:41 2021  

Host: n0092.mhg0
0

     Scratch files written to /local/scratch/users/ymao/r7.00_frame_0057_almo_B3LYP_dp.in20210311133738//

Checking the input file for inconsistencies... 	...done.

--------------------------------------------------------------
User input:
--------------------------------------------------------------
$molecule
0 1
--
0 1
C    24.10700   21.53000   27.17400  
C    24.96700   22.04700   28.33900  
C    26.40200   22.41800   27.93100  
C    26.43500   23.28700   26.66300  
C    25.54500   22.77700   25.51700  
C    24.11400   22.57200   26.04200  
H    27.01400   22.91600   28.69300  
H    24.52300   23.01400   28.60300  
H    24.53500   20.61300   26.75100  
H    23.06900   21.32800   27.46500  
H    26.01200   24.26700   26.91400  
H    27.48600   23.31300   26.35100  
H    25.54400   23.57100   24.76000  
H    25.96500   21.87800   25.05000  
H    23.52400   23.47300   26.24700  
H    23.49300   22.17400   25.23100  
H    27.03700   21.54400   27.74400  
N    24.95500   21.14100   29.48700  
H    25.73200   20.50600   29.62400  
C    23.85500   20.92600   30.29000  
H    23.93700   20.10300   31.02300  
O    22.84100   21.58000   30.11900  
--
0 1
C    25.41200   25.97000   29.53200  
H    26.16000   26.39500   30.20700  
H    25.63100   24.90100   29.47400  
H    25.61700   26.50600   28.60200  
S    23.67800   26.24600   29.95900  
C    23.08500   25.58200   28.38700  
H    22.84300   24.51700   28.38400  
H    22.22100   26.24400   28.28900  
H    23.81400   25.86100   27.62200  
O    23.35900   27.70600   29.87100  
C    21.61400   18.98400   20.56300  
H    22.11500   19.10100   19.59800  
H    20.53300   18.83600   20.51100  
H    21.87800   19.81500   21.22200  
S    22.32500   17.45800   21.22200  
C    23.38900   17.16300   19.79200  
H    22.81100   17.12700   18.86500  
H    24.09100   18.00000   19.74200  
H    23.90300   16.21700   19.98100  
O    21.20000   16.47600   21.12400  
C    22.70400   25.38100   35.16100  
H    22.63400   26.29200   34.56000  
H    21.91300   24.70300   34.83200  
H    22.48300   25.67100   36.19100  
S    24.35800   24.67100   35.00100  
C    24.26500   23.47000   36.34800  
H    23.52800   22.68700   36.15000  
H    25.25700   23.04700   36.52100  
H    23.87700   24.06300   37.18000  
O    25.22600   25.73500   35.59700  
C    30.71700   25.48900   30.56800  
H    30.16000   24.93200   31.32500  
H    30.10900   25.27000   29.68600  
H    31.72400   25.07300   30.48100  
S    30.83600   27.25500   30.93500  
C    31.36700   26.92000   32.62900  
H    30.63100   26.42400   33.26700  
H    32.29300   26.34400   32.56300  
H    31.55400   27.87900   33.11800  
O    29.39900   27.65900   31.05300  
C    33.65700   21.11100   33.07500  
H    34.21800   20.17300   33.09800  
H    34.25000   22.01100   33.26100  
H    32.85000   20.94200   33.79200  
S    32.91100   21.17000   31.43000  
C    31.85200   22.55700   31.90000  
H    32.50600   23.43100   31.83500  
H    30.97900   22.51000   31.24500  
H    31.47700   22.46000   32.92200  
O    32.00800   19.97900   31.35000  
C    31.47700   23.80000   26.74200  
H    32.09200   23.37700   25.94400  
H    30.54800   24.23700   26.36700  
H    32.06400   24.56000   27.26500  
S    31.07200   22.51000   27.94100  
C    29.94500   21.65500   26.81700  
H    30.54400   21.19200   26.02900  
H    29.29500   20.84200   27.15200  
H    29.26600   22.37400   26.35100  
O    29.96900   23.07000   28.78300  
C    23.05100   18.68000   35.72600  
H    23.40600   19.27400   36.57200  
H    22.32700   17.89000   35.94000  
H    23.99200   18.19700   35.44900  
S    22.45800   19.76200   34.40700  
C    22.71100   18.58700   33.05700  
H    22.15900   18.99600   32.20700  
H    23.80000   18.60100   32.96000  
H    22.26100   17.61000   33.24600  
O    23.60700   20.67600   34.11700  
C    31.26100   18.13500   27.84200  
H    31.21800   18.17700   26.75100  
H    30.73800   17.19800   28.05200  
H    30.72800   18.91400   28.39400  
S    32.97500   17.85800   28.34000  
C    33.62100   19.48800   27.90500  
H    33.43600   20.25300   28.66400  
H    34.68400   19.39500   27.66700  
H    33.03300   19.83500   27.05100  
O    33.55600   17.00300   27.25700  
C    29.01600   17.95200   31.48100  
H    28.99700   16.85900   31.45800  
H    30.04200   18.32700   31.49300  
H    28.63400   18.30300   32.44300  
S    28.05400   18.69800   30.14600  
C    28.85600   20.31700   30.11900  
H    28.43600   20.93700   29.32300  
H    28.70100   20.76000   31.10600  
H    29.90900   20.23800   29.84000  
O    26.69100   19.06600   30.64300  
C    24.22200   22.54700   19.43700  
H    24.38000   23.57500   19.77600  
H    24.79600   22.37900   18.52200  
H    23.14800   22.35900   19.36100  
S    24.80000   21.71200   20.93200  
C    26.53000   22.00200   20.49700  
H    27.14300   21.48700   21.24100  
H    26.71100   21.46000   19.56600  
H    26.72200   23.06200   20.31000  
O    24.60100   20.24700   20.69500  
C    26.63800   19.97500   35.14400  
H    26.33300   20.00600   34.09500  
H    27.08800   19.01500   35.40700  
H    25.80000   20.07400   35.83900  
S    27.89500   21.24700   35.40600  
C    29.06200   20.26900   34.43200  
H    29.08800   19.25700   34.84400  
H    28.72700   20.29400   33.39200  
H    30.04600   20.67900   34.67400  
O    28.48900   20.90800   36.73800  
C    19.50000   22.77300   22.12800  
H    19.17700   23.68700   21.62200  
H    18.94400   22.56300   23.04500  
H    20.55900   22.88200   22.37500  
S    19.34300   21.33100   21.05100  
C    20.52200   21.91200   19.81200  
H    20.30500   22.76500   19.16400  
H    21.40800   22.18000   20.39400  
H    20.85900   21.07100   19.20100  
O    17.99900   21.43000   20.40000  
C    20.25300   28.96300   24.69800  
H    21.22000   29.47000   24.64900  
H    20.19300   28.22400   23.89500  
H    19.41800   29.65100   24.54300  
S    19.98900   28.16800   26.29900  
C    20.32000   29.61500   27.33000  
H    19.41700   30.23000   27.37600  
H    20.63300   29.21900   28.29900  
H    21.05000   30.20600   26.77000  
O    21.25300   27.37400   26.41700  
C    26.67700   29.32100   25.42900  
H    27.42500   28.82100   24.80900  
H    26.57000   30.39100   25.23300  
H    27.08100   29.22600   26.44000  
S    25.08200   28.47200   25.46100  
C    24.21200   29.28800   26.81900  
H    24.81300   29.21900   27.72900  
H    24.08100   30.36200   26.66600  
H    23.29100   28.70800   26.92300  
O    25.35500   27.10300   25.99900  
C    28.69000   26.49800   27.74100  
H    28.75000   26.89400   28.75900  
H    27.78400   26.76400   27.19000  
H    28.90100   25.42600   27.76500  
S    30.13500   27.08900   26.83200  
C    30.05300   28.81400   27.36300  
H    29.15100   29.33200   27.02800  
H    30.05000   28.89400   28.45300  
H    30.97900   29.18600   26.91800  
O    29.72500   27.14700   25.39300  
C    25.75800   16.35700   32.43800  
H    25.54800   17.23900   31.82700  
H    25.81500   16.69600   33.47500  
H    26.72000   15.91100   32.17200  
S    24.47300   15.10600   32.21700  
C    25.16300   14.37100   30.71800  
H    26.04200   13.82500   31.06900  
H    24.38700   13.77000   30.23600  
H    25.42600   15.17300   30.02300  
O    23.30000   15.88300   31.70500  
C    25.42500   28.17200   20.04700  
H    25.64300   29.00000   19.36800  
H    26.34500   27.63400   20.29300  
H    24.70300   27.48300   19.60000  
S    24.69600   28.85300   21.55400  
C    23.39600   29.77400   20.70100  
H    22.97600   30.61000   21.26600  
H    23.73000   30.19000   19.74700  
H    22.57900   29.10000   20.43000  
O    25.82200   29.79300   21.85400  
C    21.38500   19.57900   24.79400  
H    21.74900   19.84600   23.79900  
H    20.68600   20.26900   25.27400  
H    22.29900   19.62000   25.39200  
S    20.77600   17.87800   24.77000  
C    19.44800   18.09200   23.56400  
H    19.87000   17.99900   22.56000  
H    18.78200   17.22700   23.61700  
H    19.03900   19.09800   23.68700  
O    20.10600   17.80800   26.10700  
C    30.25500   19.83300   21.52700  
H    31.28200   20.16700   21.69300  
H    29.68400   20.62300   22.02100  
H    30.11700   18.84500   21.97300  
S    30.01900   19.87100   19.73600  
C    28.44500   18.98400   19.71000  
H    27.80600   19.37300   20.50700  
H    27.92300   19.10200   18.75700  
H    28.61100   17.93400   19.96400  
O    31.04900   18.90300   19.24400  
C    28.52600   23.33300   23.57700  
H    27.84200   22.95200   22.81400  
H    28.92800   22.50400   24.16600  
H    27.97800   24.06400   24.17700  
S    29.87100   24.19100   22.72700  
C    28.80800   25.52400   22.12800  
H    28.13300   25.07000   21.39700  
H    28.35900   26.07800   22.95600  
H    29.51000   26.21700   21.65800  
O    30.19000   23.34600   21.53300  
C    19.42900   23.19200   31.11600  
H    18.80100   23.02100   31.99400  
H    18.93000   23.86200   30.41200  
H    19.71800   22.29500   30.56200  
S    20.91500   24.00700   31.74300  
C    21.24400   22.76000   33.00900  
H    21.38100   21.78700   32.53000  
H    22.09500   23.08600   33.61300  
H    20.43500   22.60400   33.72700  
O    20.23100   24.95300   32.68100  
C    24.89400   19.21200   23.63000  
H    24.66500   20.23800   23.92800  
H    24.49600   19.01900   22.63000  
H    24.65200   18.48900   24.41300  
S    26.68100   19.34100   23.39900  
C    26.69000   17.64700   22.77000  
H    27.71100   17.52900   22.39700  
H    26.43000   16.88100   23.50400  
H    26.04900   17.53900   21.89100  
O    27.22900   19.38700   24.79100  
C    18.43800   19.80000   29.13000  
H    18.73300   19.37700   28.16600  
H    17.61200   19.24000   29.57600  
H    18.18100   20.85800   29.03200  
S    19.87000   19.56800   30.20700  
C    19.85900   17.77100   30.01800  
H    18.97900   17.45900   30.58600  
H    19.68300   17.50700   28.97200  
H    20.77700   17.27600   30.34400  
O    19.40400   19.73600   31.62000  
C    18.70700   24.60900   25.27900  
H    17.86500   23.92400   25.40300  
H    18.34400   25.63700   25.36400  
H    19.29400   24.35600   24.39200  
S    19.84200   24.44700   26.67600  
C    20.60400   22.83800   26.36800  
H    19.84100   22.13200   26.02900  
H    21.39700   22.96700   25.62700  
H    20.92200   22.42700   27.32900  
O    18.86400   24.20300   27.78300  
C    22.68000   26.03200   21.69500  
H    23.76600   25.92800   21.77600  
H    22.19800   25.77100   20.75000  
H    22.40900   27.04400   22.00400  
S    21.98300   25.06300   23.05200  
C    22.95200   25.72100   24.42800  
H    22.69600   26.78100   24.49200  
H    22.59000   25.28300   25.36200  
H    24.02800   25.56900   24.31000  
O    22.73900   23.78200   22.88900  
C    27.38900   25.40000   32.65400  
H    28.25500   26.04600   32.48700  
H    26.49300   25.86400   32.23500  
H    27.27300   25.36500   33.74100  
S    27.81600   23.74300   32.07300  
C    26.31100   23.02900   32.77400  
H    25.46700   23.65800   32.48000  
H    26.17600   21.95200   32.64600  
H    26.39100   23.29000   33.83200  
O    28.86600   23.32300   33.05300  
C    23.31900   17.49600   27.73400  
H    23.62400   18.52600   27.53200  
H    22.38200   17.20100   27.25300  
H    23.23000   17.46200   28.82300  
S    24.56900   16.39000   27.04100  
C    25.98200   17.48600   27.29800  
H    25.99700   18.36100   26.64400  
H    25.98100   17.85100   28.32900  
H    26.90800   16.91100   27.21900  
O    24.34800   16.44000   25.56100  
C    26.76500   23.93000   16.93300  
H    26.74100   22.97200   17.45900  
H    25.78000   24.28900   16.62500  
H    27.46700   23.79700   16.10500  
S    27.50100   25.16800   18.02400  
C    28.94900   24.22900   18.56000  
H    29.54400   24.57700   19.40800  
H    28.49200   23.28500   18.86900  
H    29.54000   24.13100   17.64600  
O    26.65900   25.27900   19.25700  
$end

$rem
JOBTYPE  SP
METHOD  B3LYP
BASIS  6-31+G(D)
SYMMETRY  FALSE
SYM_IGNORE  TRUE
MEM_TOTAL  16000
MEM_STATIC  8000
MAX_SUB_FILE_NUM  16000
BASIS_LIN_DEP_THRESH  6
THRESH  14
SCF_CONVERGENCE  8
GEN_SCFMAN  TRUE
SCF_GUESS  FRAGMO
FD_MAT_VEC_PROD  FALSE
XC_GRID  000075000302
NL_GRID  1
MAX_SCF_CYCLES  200
FRGM_METHOD  STOLL
SCFMI_MODE  1
$end

$development
almo_efield  1
$end

$rem_frgm
SCF_CONVERGENCE  4
$end

--------------------------------------------------------------
 ----------------------------------------------------------------
             Standard Nuclear Orientation (Angstroms)
    I     Atom           X                Y                Z
 ----------------------------------------------------------------
    1      C      24.1070000000    21.5300000000    27.1740000000
    2      C      24.9670000000    22.0470000000    28.3390000000
    3      C      26.4020000000    22.4180000000    27.9310000000
    4      C      26.4350000000    23.2870000000    26.6630000000
    5      C      25.5450000000    22.7770000000    25.5170000000
    6      C      24.1140000000    22.5720000000    26.0420000000
    7      H      27.0140000000    22.9160000000    28.6930000000
    8      H      24.5230000000    23.0140000000    28.6030000000
    9      H      24.5350000000    20.6130000000    26.7510000000
   10      H      23.0690000000    21.3280000000    27.4650000000
   11      H      26.0120000000    24.2670000000    26.9140000000
   12      H      27.4860000000    23.3130000000    26.3510000000
   13      H      25.5440000000    23.5710000000    24.7600000000
   14      H      25.9650000000    21.8780000000    25.0500000000
   15      H      23.5240000000    23.4730000000    26.2470000000
   16      H      23.4930000000    22.1740000000    25.2310000000
   17      H      27.0370000000    21.5440000000    27.7440000000
   18      N      24.9550000000    21.1410000000    29.4870000000
   19      H      25.7320000000    20.5060000000    29.6240000000
   20      C      23.8550000000    20.9260000000    30.2900000000
   21      H      23.9370000000    20.1030000000    31.0230000000
   22      O      22.8410000000    21.5800000000    30.1190000000
   23      C      25.4120000000    25.9700000000    29.5320000000
   24      H      26.1600000000    26.3950000000    30.2070000000
   25      H      25.6310000000    24.9010000000    29.4740000000
   26      H      25.6170000000    26.5060000000    28.6020000000
   27      S      23.6780000000    26.2460000000    29.9590000000
   28      C      23.0850000000    25.5820000000    28.3870000000
   29      H      22.8430000000    24.5170000000    28.3840000000
   30      H      22.2210000000    26.2440000000    28.2890000000
   31      H      23.8140000000    25.8610000000    27.6220000000
   32      O      23.3590000000    27.7060000000    29.8710000000
   33      C      21.6140000000    18.9840000000    20.5630000000
   34      H      22.1150000000    19.1010000000    19.5980000000
   35      H      20.5330000000    18.8360000000    20.5110000000
   36      H      21.8780000000    19.8150000000    21.2220000000
   37      S      22.3250000000    17.4580000000    21.2220000000
   38      C      23.3890000000    17.1630000000    19.7920000000
   39      H      22.8110000000    17.1270000000    18.8650000000
   40      H      24.0910000000    18.0000000000    19.7420000000
   41      H      23.9030000000    16.2170000000    19.9810000000
   42      O      21.2000000000    16.4760000000    21.1240000000
   43      C      22.7040000000    25.3810000000    35.1610000000
   44      H      22.6340000000    26.2920000000    34.5600000000
   45      H      21.9130000000    24.7030000000    34.8320000000
   46      H      22.4830000000    25.6710000000    36.1910000000
   47      S      24.3580000000    24.6710000000    35.0010000000
   48      C      24.2650000000    23.4700000000    36.3480000000
   49      H      23.5280000000    22.6870000000    36.1500000000
   50      H      25.2570000000    23.0470000000    36.5210000000
   51      H      23.8770000000    24.0630000000    37.1800000000
   52      O      25.2260000000    25.7350000000    35.5970000000
   53      C      30.7170000000    25.4890000000    30.5680000000
   54      H      30.1600000000    24.9320000000    31.3250000000
   55      H      30.1090000000    25.2700000000    29.6860000000
   56      H      31.7240000000    25.0730000000    30.4810000000
   57      S      30.8360000000    27.2550000000    30.9350000000
   58      C      31.3670000000    26.9200000000    32.6290000000
   59      H      30.6310000000    26.4240000000    33.2670000000
   60      H      32.2930000000    26.3440000000    32.5630000000
   61      H      31.5540000000    27.8790000000    33.1180000000
   62      O      29.3990000000    27.6590000000    31.0530000000
   63      C      33.6570000000    21.1110000000    33.0750000000
   64      H      34.2180000000    20.1730000000    33.0980000000
   65      H      34.2500000000    22.0110000000    33.2610000000
   66      H      32.8500000000    20.9420000000    33.7920000000
   67      S      32.9110000000    21.1700000000    31.4300000000
   68      C      31.8520000000    22.5570000000    31.9000000000
   69      H      32.5060000000    23.4310000000    31.8350000000
   70      H      30.9790000000    22.5100000000    31.2450000000
   71      H      31.4770000000    22.4600000000    32.9220000000
   72      O      32.0080000000    19.9790000000    31.3500000000
   73      C      31.4770000000    23.8000000000    26.7420000000
   74      H      32.0920000000    23.3770000000    25.9440000000
   75      H      30.5480000000    24.2370000000    26.3670000000
   76      H      32.0640000000    24.5600000000    27.2650000000
   77      S      31.0720000000    22.5100000000    27.9410000000
   78      C      29.9450000000    21.6550000000    26.8170000000
   79      H      30.5440000000    21.1920000000    26.0290000000
   80      H      29.2950000000    20.8420000000    27.1520000000
   81      H      29.2660000000    22.3740000000    26.3510000000
   82      O      29.9690000000    23.0700000000    28.7830000000
   83      C      23.0510000000    18.6800000000    35.7260000000
   84      H      23.4060000000    19.2740000000    36.5720000000
   85      H      22.3270000000    17.8900000000    35.9400000000
   86      H      23.9920000000    18.1970000000    35.4490000000
   87      S      22.4580000000    19.7620000000    34.4070000000
   88      C      22.7110000000    18.5870000000    33.0570000000
   89      H      22.1590000000    18.9960000000    32.2070000000
   90      H      23.8000000000    18.6010000000    32.9600000000
   91      H      22.2610000000    17.6100000000    33.2460000000
   92      O      23.6070000000    20.6760000000    34.1170000000
   93      C      31.2610000000    18.1350000000    27.8420000000
   94      H      31.2180000000    18.1770000000    26.7510000000
   95      H      30.7380000000    17.1980000000    28.0520000000
   96      H      30.7280000000    18.9140000000    28.3940000000
   97      S      32.9750000000    17.8580000000    28.3400000000
   98      C      33.6210000000    19.4880000000    27.9050000000
   99      H      33.4360000000    20.2530000000    28.6640000000
  100      H      34.6840000000    19.3950000000    27.6670000000
  101      H      33.0330000000    19.8350000000    27.0510000000
  102      O      33.5560000000    17.0030000000    27.2570000000
  103      C      29.0160000000    17.9520000000    31.4810000000
  104      H      28.9970000000    16.8590000000    31.4580000000
  105      H      30.0420000000    18.3270000000    31.4930000000
  106      H      28.6340000000    18.3030000000    32.4430000000
  107      S      28.0540000000    18.6980000000    30.1460000000
  108      C      28.8560000000    20.3170000000    30.1190000000
  109      H      28.4360000000    20.9370000000    29.3230000000
  110      H      28.7010000000    20.7600000000    31.1060000000
  111      H      29.9090000000    20.2380000000    29.8400000000
  112      O      26.6910000000    19.0660000000    30.6430000000
  113      C      24.2220000000    22.5470000000    19.4370000000
  114      H      24.3800000000    23.5750000000    19.7760000000
  115      H      24.7960000000    22.3790000000    18.5220000000
  116      H      23.1480000000    22.3590000000    19.3610000000
  117      S      24.8000000000    21.7120000000    20.9320000000
  118      C      26.5300000000    22.0020000000    20.4970000000
  119      H      27.1430000000    21.4870000000    21.2410000000
  120      H      26.7110000000    21.4600000000    19.5660000000
  121      H      26.7220000000    23.0620000000    20.3100000000
  122      O      24.6010000000    20.2470000000    20.6950000000
  123      C      26.6380000000    19.9750000000    35.1440000000
  124      H      26.3330000000    20.0060000000    34.0950000000
  125      H      27.0880000000    19.0150000000    35.4070000000
  126      H      25.8000000000    20.0740000000    35.8390000000
  127      S      27.8950000000    21.2470000000    35.4060000000
  128      C      29.0620000000    20.2690000000    34.4320000000
  129      H      29.0880000000    19.2570000000    34.8440000000
  130      H      28.7270000000    20.2940000000    33.3920000000
  131      H      30.0460000000    20.6790000000    34.6740000000
  132      O      28.4890000000    20.9080000000    36.7380000000
  133      C      19.5000000000    22.7730000000    22.1280000000
  134      H      19.1770000000    23.6870000000    21.6220000000
  135      H      18.9440000000    22.5630000000    23.0450000000
  136      H      20.5590000000    22.8820000000    22.3750000000
  137      S      19.3430000000    21.3310000000    21.0510000000
  138      C      20.5220000000    21.9120000000    19.8120000000
  139      H      20.3050000000    22.7650000000    19.1640000000
  140      H      21.4080000000    22.1800000000    20.3940000000
  141      H      20.8590000000    21.0710000000    19.2010000000
  142      O      17.9990000000    21.4300000000    20.4000000000
  143      C      20.2530000000    28.9630000000    24.6980000000
  144      H      21.2200000000    29.4700000000    24.6490000000
  145      H      20.1930000000    28.2240000000    23.8950000000
  146      H      19.4180000000    29.6510000000    24.5430000000
  147      S      19.9890000000    28.1680000000    26.2990000000
  148      C      20.3200000000    29.6150000000    27.3300000000
  149      H      19.4170000000    30.2300000000    27.3760000000
  150      H      20.6330000000    29.2190000000    28.2990000000
  151      H      21.0500000000    30.2060000000    26.7700000000
  152      O      21.2530000000    27.3740000000    26.4170000000
  153      C      26.6770000000    29.3210000000    25.4290000000
  154      H      27.4250000000    28.8210000000    24.8090000000
  155      H      26.5700000000    30.3910000000    25.2330000000
  156      H      27.0810000000    29.2260000000    26.4400000000
  157      S      25.0820000000    28.4720000000    25.4610000000
  158      C      24.2120000000    29.2880000000    26.8190000000
  159      H      24.8130000000    29.2190000000    27.7290000000
  160      H      24.0810000000    30.3620000000    26.6660000000
  161      H      23.2910000000    28.7080000000    26.9230000000
  162      O      25.3550000000    27.1030000000    25.9990000000
  163      C      28.6900000000    26.4980000000    27.7410000000
  164      H      28.7500000000    26.8940000000    28.7590000000
  165      H      27.7840000000    26.7640000000    27.1900000000
  166      H      28.9010000000    25.4260000000    27.7650000000
  167      S      30.1350000000    27.0890000000    26.8320000000
  168      C      30.0530000000    28.8140000000    27.3630000000
  169      H      29.1510000000    29.3320000000    27.0280000000
  170      H      30.0500000000    28.8940000000    28.4530000000
  171      H      30.9790000000    29.1860000000    26.9180000000
  172      O      29.7250000000    27.1470000000    25.3930000000
  173      C      25.7580000000    16.3570000000    32.4380000000
  174      H      25.5480000000    17.2390000000    31.8270000000
  175      H      25.8150000000    16.6960000000    33.4750000000
  176      H      26.7200000000    15.9110000000    32.1720000000
  177      S      24.4730000000    15.1060000000    32.2170000000
  178      C      25.1630000000    14.3710000000    30.7180000000
  179      H      26.0420000000    13.8250000000    31.0690000000
  180      H      24.3870000000    13.7700000000    30.2360000000
  181      H      25.4260000000    15.1730000000    30.0230000000
  182      O      23.3000000000    15.8830000000    31.7050000000
  183      C      25.4250000000    28.1720000000    20.0470000000
  184      H      25.6430000000    29.0000000000    19.3680000000
  185      H      26.3450000000    27.6340000000    20.2930000000
  186      H      24.7030000000    27.4830000000    19.6000000000
  187      S      24.6960000000    28.8530000000    21.5540000000
  188      C      23.3960000000    29.7740000000    20.7010000000
  189      H      22.9760000000    30.6100000000    21.2660000000
  190      H      23.7300000000    30.1900000000    19.7470000000
  191      H      22.5790000000    29.1000000000    20.4300000000
  192      O      25.8220000000    29.7930000000    21.8540000000
  193      C      21.3850000000    19.5790000000    24.7940000000
  194      H      21.7490000000    19.8460000000    23.7990000000
  195      H      20.6860000000    20.2690000000    25.2740000000
  196      H      22.2990000000    19.6200000000    25.3920000000
  197      S      20.7760000000    17.8780000000    24.7700000000
  198      C      19.4480000000    18.0920000000    23.5640000000
  199      H      19.8700000000    17.9990000000    22.5600000000
  200      H      18.7820000000    17.2270000000    23.6170000000
  201      H      19.0390000000    19.0980000000    23.6870000000
  202      O      20.1060000000    17.8080000000    26.1070000000
  203      C      30.2550000000    19.8330000000    21.5270000000
  204      H      31.2820000000    20.1670000000    21.6930000000
  205      H      29.6840000000    20.6230000000    22.0210000000
  206      H      30.1170000000    18.8450000000    21.9730000000
  207      S      30.0190000000    19.8710000000    19.7360000000
  208      C      28.4450000000    18.9840000000    19.7100000000
  209      H      27.8060000000    19.3730000000    20.5070000000
  210      H      27.9230000000    19.1020000000    18.7570000000
  211      H      28.6110000000    17.9340000000    19.9640000000
  212      O      31.0490000000    18.9030000000    19.2440000000
  213      C      28.5260000000    23.3330000000    23.5770000000
  214      H      27.8420000000    22.9520000000    22.8140000000
  215      H      28.9280000000    22.5040000000    24.1660000000
  216      H      27.9780000000    24.0640000000    24.1770000000
  217      S      29.8710000000    24.1910000000    22.7270000000
  218      C      28.8080000000    25.5240000000    22.1280000000
  219      H      28.1330000000    25.0700000000    21.3970000000
  220      H      28.3590000000    26.0780000000    22.9560000000
  221      H      29.5100000000    26.2170000000    21.6580000000
  222      O      30.1900000000    23.3460000000    21.5330000000
  223      C      19.4290000000    23.1920000000    31.1160000000
  224      H      18.8010000000    23.0210000000    31.9940000000
  225      H      18.9300000000    23.8620000000    30.4120000000
  226      H      19.7180000000    22.2950000000    30.5620000000
  227      S      20.9150000000    24.0070000000    31.7430000000
  228      C      21.2440000000    22.7600000000    33.0090000000
  229      H      21.3810000000    21.7870000000    32.5300000000
  230      H      22.0950000000    23.0860000000    33.6130000000
  231      H      20.4350000000    22.6040000000    33.7270000000
  232      O      20.2310000000    24.9530000000    32.6810000000
  233      C      24.8940000000    19.2120000000    23.6300000000
  234      H      24.6650000000    20.2380000000    23.9280000000
  235      H      24.4960000000    19.0190000000    22.6300000000
  236      H      24.6520000000    18.4890000000    24.4130000000
  237      S      26.6810000000    19.3410000000    23.3990000000
  238      C      26.6900000000    17.6470000000    22.7700000000
  239      H      27.7110000000    17.5290000000    22.3970000000
  240      H      26.4300000000    16.8810000000    23.5040000000
  241      H      26.0490000000    17.5390000000    21.8910000000
  242      O      27.2290000000    19.3870000000    24.7910000000
  243      C      18.4380000000    19.8000000000    29.1300000000
  244      H      18.7330000000    19.3770000000    28.1660000000
  245      H      17.6120000000    19.2400000000    29.5760000000
  246      H      18.1810000000    20.8580000000    29.0320000000
  247      S      19.8700000000    19.5680000000    30.2070000000
  248      C      19.8590000000    17.7710000000    30.0180000000
  249      H      18.9790000000    17.4590000000    30.5860000000
  250      H      19.6830000000    17.5070000000    28.9720000000
  251      H      20.7770000000    17.2760000000    30.3440000000
  252      O      19.4040000000    19.7360000000    31.6200000000
  253      C      18.7070000000    24.6090000000    25.2790000000
  254      H      17.8650000000    23.9240000000    25.4030000000
  255      H      18.3440000000    25.6370000000    25.3640000000
  256      H      19.2940000000    24.3560000000    24.3920000000
  257      S      19.8420000000    24.4470000000    26.6760000000
  258      C      20.6040000000    22.8380000000    26.3680000000
  259      H      19.8410000000    22.1320000000    26.0290000000
  260      H      21.3970000000    22.9670000000    25.6270000000
  261      H      20.9220000000    22.4270000000    27.3290000000
  262      O      18.8640000000    24.2030000000    27.7830000000
  263      C      22.6800000000    26.0320000000    21.6950000000
  264      H      23.7660000000    25.9280000000    21.7760000000
  265      H      22.1980000000    25.7710000000    20.7500000000
  266      H      22.4090000000    27.0440000000    22.0040000000
  267      S      21.9830000000    25.0630000000    23.0520000000
  268      C      22.9520000000    25.7210000000    24.4280000000
  269      H      22.6960000000    26.7810000000    24.4920000000
  270      H      22.5900000000    25.2830000000    25.3620000000
  271      H      24.0280000000    25.5690000000    24.3100000000
  272      O      22.7390000000    23.7820000000    22.8890000000
  273      C      27.3890000000    25.4000000000    32.6540000000
  274      H      28.2550000000    26.0460000000    32.4870000000
  275      H      26.4930000000    25.8640000000    32.2350000000
  276      H      27.2730000000    25.3650000000    33.7410000000
  277      S      27.8160000000    23.7430000000    32.0730000000
  278      C      26.3110000000    23.0290000000    32.7740000000
  279      H      25.4670000000    23.6580000000    32.4800000000
  280      H      26.1760000000    21.9520000000    32.6460000000
  281      H      26.3910000000    23.2900000000    33.8320000000
  282      O      28.8660000000    23.3230000000    33.0530000000
  283      C      23.3190000000    17.4960000000    27.7340000000
  284      H      23.6240000000    18.5260000000    27.5320000000
  285      H      22.3820000000    17.2010000000    27.2530000000
  286      H      23.2300000000    17.4620000000    28.8230000000
  287      S      24.5690000000    16.3900000000    27.0410000000
  288      C      25.9820000000    17.4860000000    27.2980000000
  289      H      25.9970000000    18.3610000000    26.6440000000
  290      H      25.9810000000    17.8510000000    28.3290000000
  291      H      26.9080000000    16.9110000000    27.2190000000
  292      O      24.3480000000    16.4400000000    25.5610000000
  293      C      26.7650000000    23.9300000000    16.9330000000
  294      H      26.7410000000    22.9720000000    17.4590000000
  295      H      25.7800000000    24.2890000000    16.6250000000
  296      H      27.4670000000    23.7970000000    16.1050000000
  297      S      27.5010000000    25.1680000000    18.0240000000
  298      C      28.9490000000    24.2290000000    18.5600000000
  299      H      29.5440000000    24.5770000000    19.4080000000
  300      H      28.4920000000    23.2850000000    18.8690000000
  301      H      29.5400000000    24.1310000000    17.6460000000
  302      O      26.6590000000    25.2790000000    19.2570000000
 ----------------------------------------------------------------
 Nuclear Repulsion Energy =       51353.21293660 hartrees
 There are      623 alpha and      623 beta electrons
 Requested basis set is 6-31+G(d)
 There are 995 shells and 2773 basis functions

 Total QAlloc Memory Limit  16000 MB
 Mega-Array Size      7821 MB
 MEM_STATIC part      8000 MB
 A cutoff of  1.0D-14 yielded 188908 shell pairs
 There are   1635839 function pairs
 Smallest overlap matrix eigenvalue = 3.84E-07
 Linear dependence detected in AO basis
 Tighter screening thresholds may be required for diffuse basis sets
 Use S2THRESH > 14 and THRESH = 14 in case of SCF convergence issues
 Number of orthogonalized atomic orbitals = 2770
 Maximum deviation from orthogonality = 9.733E-11

 Scale SEOQF with 1.000000e-03/1.000000e-03/1.000000e-03

 Standard Electronic Orientation quadrupole field applied
 Nucleus-field energy     =    -0.0000002599 hartrees
Attempting to make child job directory: /local/scratch/users/ymao/r7.00_frame_0057_almo_B3LYP_dp.in20210311133738//Frg1/
Attempting to make child job directory: /local/scratch/users/ymao/r7.00_frame_0057_almo_B3LYP_dp.in20210311133738//Frg2/
Creating input file /local/scratch/users/ymao/r7.00_frame_0057_almo_B3LYP_dp.in20210311133738/Frg1.input
using default PutDataFrgm: nothing
calling putenv with: QCSCRATCH=/local/scratch/users/ymao/r7.00_frame_0057_almo_B3LYP_dp.in20210311133738/ 
Spawning Job For Fragment 0
Done Job For Fragment 0
calling putenv with: QCSCRATCH=/local/scratch/users/ymao 
calling putenv with: QCTHREADS=8 
Creating input file /local/scratch/users/ymao/r7.00_frame_0057_almo_B3LYP_dp.in20210311133738/Frg2.input
using default PutDataFrgm: nothing
calling putenv with: QCSCRATCH=/local/scratch/users/ymao/r7.00_frame_0057_almo_B3LYP_dp.in20210311133738/ 
Spawning Job For Fragment 1
Done Job For Fragment 1
calling putenv with: QCSCRATCH=/local/scratch/users/ymao 
calling putenv with: QCTHREADS=8 
 Time for running child jobs:  CPU 1.01 s  wall 24456.02 s

 -----------------------------------------------------------------------
  General SCF calculation program by
  Eric Jon Sundstrom, Paul Horn, Yuezhi Mao, Dmitri Zuev, Alec White,
  David Stuck, Shaama M.S., Shane Yost, Joonho Lee, David Small,
  Daniel Levine, Susi Lehtola, Hugh Burton, Evgeny Epifanovsky,
  Bang C. Huynh
 -----------------------------------------------------------------------
Performing Restricted Closed Shell SCFMI
Doing General SCFMI
 Exchange:     0.2000 Hartree-Fock + 0.0800 Slater + 0.7200 B88
 Correlation:  0.1900 VWN1RPA + 0.8100 LYP
 Using Euler-Maclaurin-Lebedev (75,302) quadrature formula
performing fock build before subrot guess so that all methods have access
Printing subrot_rss_gen Method Specification:
Occupied Subspace Method is 0
Virtual Subspace Method is 0
Energy prior to optimization (guess energy) = -15893.907406343802
Begin Timing: Total SCF Calculation
begin iterations for algorithm: DIIS         
the SCF tolerance is set to 1.00e-08
    1  -15893.9074063438      4.39e-05     00000 
    2  -15893.9016499468      7.51e-05     00000 
    3  -15893.9166683728      1.37e-05     00000 
    4  -15893.9171591888      5.97e-06     00000 
    5  -15893.9172739829      3.01e-06     00000 
    6  -15893.9172976497      1.85e-06     00000 
    7  -15893.9173070448      9.98e-07     00000 
    8  -15893.9173103478      4.61e-07     00000 
    9  -15893.9173107990      3.41e-07     00000 
   10  -15893.9173110244      2.28e-07     00000 
   11  -15893.9173111372      1.35e-07     00000 
   12  -15893.9173111820      7.31e-08     00000 
   13  -15893.9173111947      4.47e-08     00000 
   14  -15893.9173111993      3.17e-08     00000 
   15  -15893.9173112015      1.90e-08     00000 
   16  -15893.9173112026      8.73e-09     00000 Convergence criterion met
write pseudocanon occs and virts to disk
write pseudocanon orbital energies to disk
Timing for Total SCF: 57807.00s (wall), 460560.28s (cpu)
SCFMI Energy  -15893.9173112026
<S^2>            0.00000
 Total energy in the final basis set =   -15893.9173112026
    ==================================================
        The end of Object-Oriented SCFman: SCFMI      
    ==================================================
 
 --------------------------------------------------------------
 
                    Orbital Energies (a.u.)
 --------------------------------------------------------------
 
 Alpha MOs
 -- Occupied --
-89.0392 -89.0297 -89.0258 -89.0255 -89.0253 -89.0233 -89.0196 -89.0182
-89.0175 -89.0155 -89.0108 -89.0094 -89.0085 -89.0065 -89.0060 -89.0035
-89.0020 -88.9982 -88.9976 -88.9969 -88.9951 -88.9947 -88.9904 -88.9852
-88.9800 -88.9768 -88.9758 -88.9592 -19.1505 -19.1449 -19.1448 -19.1425
-19.1410 -19.1338 -19.1333 -19.1323 -19.1308 -19.1307 -19.1287 -19.1264
-19.1262 -19.1246 -19.1208 -19.1205 -19.1160 -19.1138 -19.1131 -19.1125
-19.1125 -19.1092 -19.1090 -19.1051 -19.1019 -19.0942 -19.0937 -19.0887
-19.0596 -14.3555 -10.2825 -10.2594 -10.2517 -10.2507 -10.2496 -10.2429
-10.2421 -10.2415 -10.2414 -10.2389 -10.2378 -10.2362 -10.2349 -10.2344
-10.2336 -10.2313 -10.2302 -10.2298 -10.2296 -10.2295 -10.2277 -10.2270
-10.2263 -10.2256 -10.2254 -10.2250 -10.2249 -10.2235 -10.2231 -10.2231
-10.2222 -10.2219 -10.2201 -10.2200 -10.2182 -10.2181 -10.2180 -10.2174
-10.2160 -10.2156 -10.2141 -10.2091 -10.2079 -10.2066 -10.2063 -10.2053
-10.2026 -10.2009 -10.2008 -10.1997 -10.1958 -10.1957 -10.1954 -10.1946
-10.1924 -10.1911 -10.1909 -10.1908 -10.1902 -10.1896 -10.1837 -10.1685
-10.1673  -8.0845  -8.0763  -8.0717  -8.0717  -8.0711  -8.0691  -8.0656
 -8.0645  -8.0635  -8.0609  -8.0569  -8.0558  -8.0548  -8.0523  -8.0518
 -8.0494  -8.0476  -8.0444  -8.0437  -8.0425  -8.0406  -8.0403  -8.0365
 -8.0311  -8.0253  -8.0228  -8.0220  -8.0054  -6.0488  -6.0476  -6.0423
 -6.0409  -6.0393  -6.0362  -6.0360  -6.0357  -6.0348  -6.0346  -6.0341
 -6.0337  -6.0333  -6.0322  -6.0298  -6.0294  -6.0291  -6.0290  -6.0286
 -6.0285  -6.0279  -6.0273  -6.0265  -6.0264  -6.0252  -6.0242  -6.0231
 -6.0221  -6.0212  -6.0212  -6.0201  -6.0199  -6.0191  -6.0189  -6.0183
 -6.0180  -6.0167  -6.0163  -6.0151  -6.0150  -6.0142  -6.0135  -6.0132
 -6.0127  -6.0123  -6.0118  -6.0109  -6.0100  -6.0090  -6.0087  -6.0080
 -6.0076  -6.0071  -6.0068  -6.0066  -6.0056  -6.0051  -6.0050  -6.0047
 -6.0036  -6.0035  -6.0018  -6.0009  -6.0007  -5.9999  -5.9995  -5.9982
 -5.9975  -5.9953  -5.9940  -5.9940  -5.9897  -5.9888  -5.9884  -5.9871
 -5.9862  -5.9858  -5.9851  -5.9827  -5.9802  -5.9795  -5.9695  -5.9684
 -5.9633  -1.0603  -1.0585  -1.0545  -1.0538  -1.0499  -1.0485  -1.0473
 -1.0404  -1.0399  -1.0385  -1.0369  -1.0357  -1.0356  -1.0343  -1.0321
 -1.0315  -1.0246  -1.0242  -1.0225  -1.0207  -1.0205  -1.0204  -1.0185
 -1.0180  -1.0074  -1.0065  -1.0025  -0.9991  -0.9795  -0.9179  -0.8389
 -0.8347  -0.8329  -0.8316  -0.8263  -0.8239  -0.8230  -0.8213  -0.8196
 -0.8173  -0.8168  -0.8154  -0.8124  -0.8113  -0.8104  -0.8068  -0.8044
 -0.8027  -0.8024  -0.8021  -0.7955  -0.7947  -0.7923  -0.7900  -0.7884
 -0.7860  -0.7823  -0.7722  -0.7611  -0.7594  -0.7559  -0.7557  -0.7519
 -0.7502  -0.7478  -0.7467  -0.7462  -0.7461  -0.7437  -0.7408  -0.7406
 -0.7394  -0.7393  -0.7386  -0.7378  -0.7347  -0.7333  -0.7322  -0.7305
 -0.7280  -0.7225  -0.7206  -0.7202  -0.7105  -0.7097  -0.7070  -0.7022
 -0.7021  -0.6802  -0.6517  -0.6450  -0.6423  -0.6388  -0.6365  -0.6363
 -0.6361  -0.6328  -0.6316  -0.6303  -0.6264  -0.6257  -0.6227  -0.6217
 -0.6200  -0.6197  -0.6163  -0.6155  -0.6149  -0.6137  -0.6129  -0.6081
 -0.6076  -0.6068  -0.6063  -0.6008  -0.5953  -0.5894  -0.5879  -0.5826
 -0.5730  -0.5719  -0.5347  -0.5177  -0.5167  -0.5129  -0.5097  -0.5094
 -0.5060  -0.5056  -0.5027  -0.5022  -0.4984  -0.4982  -0.4972  -0.4959
 -0.4953  -0.4944  -0.4926  -0.4914  -0.4913  -0.4909  -0.4905  -0.4896
 -0.4885  -0.4879  -0.4875  -0.4865  -0.4863  -0.4858  -0.4855  -0.4850
 -0.4845  -0.4840  -0.4838  -0.4837  -0.4834  -0.4817  -0.4814  -0.4805
 -0.4799  -0.4795  -0.4791  -0.4785  -0.4782  -0.4776  -0.4765  -0.4759
 -0.4746  -0.4743  -0.4740  -0.4735  -0.4732  -0.4729  -0.4722  -0.4714
 -0.4708  -0.4705  -0.4703  -0.4692  -0.4681  -0.4680  -0.4674  -0.4666
 -0.4661  -0.4647  -0.4645  -0.4644  -0.4635  -0.4621  -0.4617  -0.4610
 -0.4604  -0.4600  -0.4587  -0.4581  -0.4578  -0.4568  -0.4560  -0.4547
 -0.4543  -0.4540  -0.4539  -0.4531  -0.4518  -0.4515  -0.4505  -0.4495
 -0.4491  -0.4482  -0.4475  -0.4467  -0.4460  -0.4454  -0.4448  -0.4447
 -0.4447  -0.4442  -0.4438  -0.4416  -0.4407  -0.4401  -0.4396  -0.4387
 -0.4384  -0.4381  -0.4357  -0.4353  -0.4340  -0.4339  -0.4317  -0.4309
 -0.4291  -0.4289  -0.4279  -0.4277  -0.4270  -0.4267  -0.4262  -0.4257
 -0.4255  -0.4253  -0.4249  -0.4242  -0.4240  -0.4228  -0.4207  -0.4203
 -0.4199  -0.4196  -0.4194  -0.4185  -0.4172  -0.4165  -0.4161  -0.4158
 -0.4141  -0.4139  -0.4135  -0.4126  -0.4116  -0.4109  -0.4101  -0.4099
 -0.4087  -0.4081  -0.4067  -0.4060  -0.4059  -0.4055  -0.4051  -0.4039
 -0.4028  -0.4025  -0.4019  -0.4014  -0.4008  -0.3983  -0.3974  -0.3969
 -0.3965  -0.3964  -0.3948  -0.3947  -0.3943  -0.3940  -0.3925  -0.3913
 -0.3903  -0.3891  -0.3888  -0.3877  -0.3873  -0.3858  -0.3854  -0.3841
 -0.3831  -0.3818  -0.3816  -0.3812  -0.3808  -0.3781  -0.3779  -0.3772
 -0.3752  -0.3749  -0.3746  -0.3738  -0.3718  -0.3712  -0.3709  -0.3661
 -0.3642  -0.3641  -0.3638  -0.3623  -0.3615  -0.3607  -0.3602  -0.3588
 -0.3567  -0.3562  -0.3548  -0.3524  -0.3498  -0.3470  -0.3456  -0.3386
 -0.3360  -0.3337  -0.3212  -0.3195  -0.3149  -0.3137  -0.3088  -0.3047
 -0.3026  -0.2974  -0.2972  -0.2937  -0.2922  -0.2891  -0.2883  -0.2867
 -0.2860  -0.2846  -0.2844  -0.2826  -0.2793  -0.2761  -0.2754  -0.2752
 -0.2741  -0.2739  -0.2731  -0.2717  -0.2694  -0.2676  -0.2674  -0.2668
 -0.2659  -0.2658  -0.2649  -0.2637  -0.2593  -0.2579  -0.2568  -0.2560
 -0.2555  -0.2548  -0.2530  -0.2519  -0.2506  -0.2504  -0.2495  -0.2488
 -0.2452  -0.2420  -0.2399  -0.2382  -0.2376  -0.2361  -0.2339  -0.2336
 -0.2309  -0.2248  -0.2206  -0.2195  -0.2175  -0.2144  -0.1964
 -- Virtual --
 -0.0476  -0.0443  -0.0387  -0.0325  -0.0319  -0.0278  -0.0265  -0.0254
 -0.0241  -0.0234  -0.0223  -0.0195  -0.0193  -0.0179  -0.0169  -0.0158
 -0.0157  -0.0153  -0.0145  -0.0136  -0.0130  -0.0127  -0.0117  -0.0108
 -0.0087  -0.0071  -0.0067  -0.0055  -0.0041  -0.0035  -0.0032  -0.0026
 -0.0016  -0.0004   0.0007   0.0009   0.0022   0.0025   0.0034   0.0047
  0.0050   0.0059   0.0066   0.0070   0.0076   0.0085   0.0090   0.0099
  0.0106   0.0119   0.0125   0.0131   0.0131   0.0148   0.0150   0.0165
  0.0168   0.0176   0.0177   0.0187   0.0197   0.0198   0.0206   0.0212
  0.0221   0.0226   0.0233   0.0242   0.0251   0.0255   0.0258   0.0264
  0.0267   0.0278   0.0281   0.0290   0.0293   0.0299   0.0307   0.0311
  0.0315   0.0320   0.0328   0.0330   0.0339   0.0343   0.0349   0.0353
  0.0359   0.0367   0.0370   0.0379   0.0382   0.0387   0.0395   0.0399
  0.0405   0.0412   0.0420   0.0421   0.0428   0.0435   0.0440   0.0451
  0.0454   0.0460   0.0465   0.0470   0.0485   0.0490   0.0493   0.0507
  0.0508   0.0509   0.0520   0.0529   0.0533   0.0544   0.0549   0.0553
  0.0559   0.0564   0.0568   0.0578   0.0582   0.0596   0.0599   0.0607
  0.0608   0.0611   0.0619   0.0622   0.0625   0.0634   0.0645   0.0652
  0.0654   0.0663   0.0665   0.0675   0.0680   0.0689   0.0693   0.0701
  0.0706   0.0709   0.0727   0.0729   0.0735   0.0739   0.0741   0.0749
  0.0757   0.0762   0.0766   0.0777   0.0779   0.0786   0.0791   0.0797
  0.0807   0.0808   0.0816   0.0819   0.0822   0.0830   0.0839   0.0847
  0.0853   0.0855   0.0865   0.0870   0.0880   0.0888   0.0893   0.0896
  0.0910   0.0916   0.0920   0.0924   0.0937   0.0941   0.0946   0.0956
  0.0967   0.0968   0.0973   0.0975   0.0984   0.0995   0.1000   0.1007
  0.1013   0.1016   0.1021   0.1027   0.1030   0.1036   0.1046   0.1054
  0.1058   0.1061   0.1068   0.1079   0.1082   0.1090   0.1090   0.1098
  0.1101   0.1105   0.1117   0.1119   0.1124   0.1136   0.1140   0.1144
  0.1145   0.1152   0.1155   0.1161   0.1167   0.1173   0.1178   0.1186
  0.1193   0.1199   0.1206   0.1209   0.1213   0.1227   0.1229   0.1234
  0.1242   0.1249   0.1252   0.1256   0.1267   0.1274   0.1275   0.1287
  0.1291   0.1300   0.1311   0.1315   0.1320   0.1325   0.1329   0.1336
  0.1344   0.1346   0.1354   0.1357   0.1359   0.1367   0.1373   0.1382
  0.1389   0.1395   0.1403   0.1410   0.1422   0.1422   0.1425   0.1435
  0.1441   0.1443   0.1455   0.1458   0.1464   0.1468   0.1480   0.1483
  0.1490   0.1491   0.1494   0.1496   0.1506   0.1517   0.1518   0.1530
  0.1530   0.1536   0.1540   0.1543   0.1550   0.1560   0.1565   0.1570
  0.1574   0.1577   0.1585   0.1595   0.1598   0.1603   0.1609   0.1614
  0.1618   0.1625   0.1631   0.1639   0.1645   0.1649   0.1655   0.1662
  0.1674   0.1679   0.1680   0.1690   0.1696   0.1699   0.1704   0.1711
  0.1712   0.1720   0.1731   0.1737   0.1744   0.1751   0.1755   0.1764
  0.1769   0.1772   0.1774   0.1784   0.1789   0.1795   0.1798   0.1803
  0.1807   0.1812   0.1819   0.1831   0.1841   0.1845   0.1852   0.1854
  0.1858   0.1867   0.1871   0.1874   0.1879   0.1885   0.1896   0.1905
  0.1911   0.1915   0.1922   0.1932   0.1936   0.1940   0.1945   0.1952
  0.1960   0.1962   0.1971   0.1971   0.1979   0.1985   0.1993   0.1998
  0.2007   0.2014   0.2022   0.2025   0.2029   0.2035   0.2040   0.2048
  0.2049   0.2054   0.2059   0.2063   0.2074   0.2077   0.2080   0.2081
  0.2095   0.2104   0.2112   0.2117   0.2122   0.2125   0.2129   0.2135
  0.2142   0.2147   0.2159   0.2160   0.2169   0.2172   0.2177   0.2178
  0.2188   0.2194   0.2202   0.2204   0.2217   0.2221   0.2225   0.2229
  0.2237   0.2243   0.2249   0.2256   0.2261   0.2269   0.2273   0.2280
  0.2289   0.2293   0.2305   0.2308   0.2310   0.2319   0.2330   0.2337
  0.2346   0.2349   0.2354   0.2358   0.2364   0.2366   0.2381   0.2388
  0.2392   0.2401   0.2404   0.2412   0.2414   0.2420   0.2424   0.2428
  0.2430   0.2441   0.2455   0.2463   0.2470   0.2471   0.2483   0.2488
  0.2499   0.2505   0.2517   0.2522   0.2527   0.2530   0.2539   0.2544
  0.2553   0.2556   0.2557   0.2564   0.2572   0.2589   0.2591   0.2592
  0.2595   0.2610   0.2615   0.2621   0.2625   0.2640   0.2648   0.2650
  0.2664   0.2671   0.2677   0.2684   0.2691   0.2694   0.2706   0.2710
  0.2721   0.2727   0.2729   0.2735   0.2739   0.2749   0.2753   0.2759
  0.2768   0.2776   0.2779   0.2789   0.2797   0.2809   0.2816   0.2825
  0.2829   0.2838   0.2851   0.2853   0.2866   0.2872   0.2874   0.2880
  0.2904   0.2908   0.2917   0.2917   0.2928   0.2935   0.2939   0.2948
  0.2957   0.2965   0.2970   0.2973   0.2985   0.2993   0.3005   0.3012
  0.3017   0.3023   0.3037   0.3041   0.3045   0.3053   0.3062   0.3067
  0.3071   0.3079   0.3084   0.3096   0.3109   0.3110   0.3119   0.3128
  0.3135   0.3136   0.3151   0.3165   0.3167   0.3178   0.3186   0.3200
  0.3206   0.3210   0.3225   0.3235   0.3236   0.3243   0.3247   0.3250
  0.3265   0.3270   0.3280   0.3293   0.3297   0.3307   0.3318   0.3327
  0.3334   0.3336   0.3345   0.3351   0.3363   0.3373   0.3377   0.3385
  0.3396   0.3404   0.3412   0.3420   0.3430   0.3431   0.3439   0.3446
  0.3456   0.3474   0.3482   0.3489   0.3494   0.3497   0.3503   0.3511
  0.3521   0.3526   0.3529   0.3532   0.3547   0.3550   0.3568   0.3577
  0.3584   0.3591   0.3597   0.3612   0.3615   0.3628   0.3639   0.3643
  0.3649   0.3655   0.3661   0.3672   0.3693   0.3699   0.3708   0.3720
  0.3724   0.3726   0.3730   0.3745   0.3754   0.3766   0.3776   0.3778
  0.3781   0.3794   0.3801   0.3810   0.3822   0.3828   0.3839   0.3849
  0.3854   0.3860   0.3863   0.3868   0.3888   0.3890   0.3892   0.3902
  0.3913   0.3935   0.3940   0.3946   0.3953   0.3963   0.3969   0.3977
  0.3993   0.3996   0.4010   0.4012   0.4020   0.4036   0.4044   0.4057
  0.4060   0.4069   0.4077   0.4087   0.4095   0.4107   0.4112   0.4115
  0.4119   0.4125   0.4144   0.4153   0.4166   0.4172   0.4185   0.4186
  0.4202   0.4210   0.4215   0.4228   0.4240   0.4244   0.4250   0.4266
  0.4271   0.4274   0.4290   0.4297   0.4312   0.4324   0.4329   0.4348
  0.4360   0.4363   0.4372   0.4382   0.4395   0.4405   0.4413   0.4424
  0.4434   0.4444   0.4452   0.4464   0.4477   0.4490   0.4504   0.4510
  0.4533   0.4539   0.4555   0.4563   0.4566   0.4587   0.4592   0.4608
  0.4609   0.4625   0.4635   0.4654   0.4664   0.4671   0.4682   0.4694
  0.4707   0.4724   0.4730   0.4733   0.4737   0.4745   0.4785   0.4794
  0.4797   0.4813   0.4819   0.4828   0.4853   0.4865   0.4870   0.4884
  0.4892   0.4901   0.4920   0.4933   0.4944   0.4955   0.4964   0.4974
  0.5001   0.5013   0.5033   0.5046   0.5058   0.5071   0.5077   0.5098
  0.5109   0.5129   0.5138   0.5148   0.5165   0.5173   0.5201   0.5211
  0.5221   0.5266   0.5277   0.5288   0.5293   0.5312   0.5328   0.5349
  0.5360   0.5375   0.5401   0.5427   0.5433   0.5439   0.5462   0.5495
  0.5507   0.5512   0.5539   0.5558   0.5568   0.5574   0.5601   0.5604
  0.5621   0.5632   0.5636   0.5643   0.5668   0.5679   0.5694   0.5714
  0.5732   0.5747   0.5755   0.5773   0.5785   0.5788   0.5800   0.5815
  0.5824   0.5859   0.5862   0.5868   0.5881   0.5892   0.5900   0.5926
  0.5943   0.5952   0.5966   0.5977   0.5982   0.5989   0.6003   0.6006
  0.6019   0.6044   0.6061   0.6071   0.6084   0.6097   0.6101   0.6114
  0.6126   0.6133   0.6146   0.6155   0.6174   0.6188   0.6199   0.6205
  0.6227   0.6232   0.6249   0.6265   0.6266   0.6277   0.6288   0.6295
  0.6310   0.6319   0.6329   0.6342   0.6353   0.6359   0.6381   0.6390
  0.6406   0.6415   0.6424   0.6431   0.6444   0.6462   0.6474   0.6491
  0.6499   0.6504   0.6523   0.6530   0.6543   0.6545   0.6559   0.6568
  0.6573   0.6597   0.6607   0.6613   0.6625   0.6641   0.6652   0.6663
  0.6672   0.6688   0.6696   0.6698   0.6710   0.6718   0.6721   0.6726
  0.6733   0.6747   0.6763   0.6770   0.6772   0.6794   0.6799   0.6821
  0.6836   0.6846   0.6859   0.6860   0.6871   0.6884   0.6892   0.6910
  0.6918   0.6935   0.6938   0.6958   0.6965   0.6971   0.6987   0.7003
  0.7012   0.7016   0.7031   0.7042   0.7053   0.7062   0.7076   0.7105
  0.7119   0.7120   0.7134   0.7146   0.7152   0.7171   0.7190   0.7196
  0.7200   0.7218   0.7225   0.7240   0.7249   0.7265   0.7266   0.7276
  0.7287   0.7310   0.7320   0.7343   0.7352   0.7357   0.7376   0.7383
  0.7405   0.7425   0.7430   0.7439   0.7462   0.7470   0.7490   0.7506
  0.7518   0.7527   0.7535   0.7559   0.7573   0.7588   0.7606   0.7617
  0.7632   0.7659   0.7659   0.7691   0.7712   0.7735   0.7744   0.7748
  0.7757   0.7779   0.7793   0.7811   0.7819   0.7834   0.7845   0.7856
  0.7889   0.7896   0.7923   0.7925   0.7942   0.7956   0.7968   0.7984
  0.7995   0.8010   0.8023   0.8028   0.8048   0.8064   0.8093   0.8097
  0.8113   0.8122   0.8126   0.8131   0.8151   0.8180   0.8189   0.8200
  0.8207   0.8228   0.8235   0.8243   0.8262   0.8274   0.8289   0.8301
  0.8320   0.8330   0.8347   0.8357   0.8372   0.8377   0.8381   0.8397
  0.8414   0.8423   0.8430   0.8448   0.8465   0.8476   0.8486   0.8504
  0.8509   0.8525   0.8536   0.8561   0.8577   0.8598   0.8611   0.8622
  0.8626   0.8636   0.8656   0.8667   0.8672   0.8686   0.8702   0.8712
  0.8714   0.8730   0.8749   0.8755   0.8767   0.8782   0.8791   0.8804
  0.8808   0.8830   0.8833   0.8863   0.8868   0.8880   0.8891   0.8900
  0.8906   0.8919   0.8929   0.8932   0.8961   0.8980   0.8988   0.8996
  0.9002   0.9013   0.9037   0.9047   0.9052   0.9068   0.9069   0.9079
  0.9083   0.9111   0.9114   0.9125   0.9140   0.9152   0.9162   0.9174
  0.9190   0.9198   0.9210   0.9217   0.9222   0.9247   0.9252   0.9265
  0.9268   0.9280   0.9289   0.9303   0.9313   0.9330   0.9348   0.9357
  0.9361   0.9384   0.9391   0.9407   0.9416   0.9434   0.9444   0.9462
  0.9467   0.9482   0.9489   0.9500   0.9506   0.9521   0.9529   0.9539
  0.9544   0.9566   0.9574   0.9585   0.9593   0.9609   0.9620   0.9633
  0.9643   0.9652   0.9658   0.9665   0.9677   0.9692   0.9698   0.9701
  0.9710   0.9725   0.9739   0.9749   0.9752   0.9767   0.9770   0.9777
  0.9795   0.9816   0.9827   0.9842   0.9864   0.9869   0.9879   0.9906
  0.9911   0.9916   0.9925   0.9930   0.9950   0.9952   0.9962   0.9977
  0.9985   0.9995   1.0002   1.0008   1.0026   1.0040   1.0047   1.0053
  1.0066   1.0073   1.0089   1.0096   1.0113   1.0122   1.0139   1.0143
  1.0151   1.0155   1.0163   1.0175   1.0185   1.0192   1.0208   1.0222
  1.0234   1.0251   1.0255   1.0269   1.0280   1.0281   1.0298   1.0315
  1.0330   1.0337   1.0351   1.0359   1.0375   1.0380   1.0385   1.0400
  1.0410   1.0426   1.0430   1.0442   1.0457   1.0464   1.0469   1.0479
  1.0496   1.0501   1.0509   1.0513   1.0525   1.0533   1.0552   1.0558
  1.0580   1.0605   1.0610   1.0631   1.0643   1.0649   1.0664   1.0678
  1.0683   1.0691   1.0704   1.0710   1.0741   1.0750   1.0757   1.0763
  1.0784   1.0792   1.0815   1.0825   1.0831   1.0846   1.0859   1.0864
  1.0876   1.0884   1.0906   1.0914   1.0924   1.0932   1.0944   1.0982
  1.0984   1.0990   1.1013   1.1014   1.1031   1.1037   1.1054   1.1084
  1.1089   1.1104   1.1122   1.1124   1.1137   1.1154   1.1159   1.1169
  1.1190   1.1206   1.1210   1.1229   1.1230   1.1246   1.1262   1.1267
  1.1292   1.1295   1.1308   1.1312   1.1325   1.1347   1.1357   1.1371
  1.1372   1.1396   1.1409   1.1415   1.1421   1.1433   1.1441   1.1451
  1.1454   1.1474   1.1493   1.1505   1.1514   1.1536   1.1539   1.1554
  1.1561   1.1573   1.1587   1.1592   1.1602   1.1623   1.1629   1.1648
  1.1656   1.1682   1.1698   1.1716   1.1721   1.1733   1.1755   1.1776
  1.1791   1.1810   1.1817   1.1839   1.1852   1.1861   1.1868   1.1892
  1.1899   1.1907   1.1924   1.1941   1.1954   1.1998   1.2026   1.2028
  1.2035   1.2058   1.2088   1.2108   1.2112   1.2132   1.2145   1.2172
  1.2178   1.2187   1.2207   1.2229   1.2244   1.2273   1.2284   1.2291
  1.2313   1.2331   1.2361   1.2366   1.2385   1.2420   1.2428   1.2447
  1.2451   1.2483   1.2497   1.2511   1.2560   1.2572   1.2587   1.2593
  1.2628   1.2639   1.2675   1.2690   1.2698   1.2719   1.2740   1.2759
  1.2773   1.2783   1.2791   1.2820   1.2842   1.2875   1.2881   1.2901
  1.2918   1.2939   1.2954   1.2977   1.2995   1.3031   1.3036   1.3040
  1.3080   1.3107   1.3131   1.3134   1.3166   1.3182   1.3195   1.3216
  1.3236   1.3274   1.3276   1.3295   1.3316   1.3325   1.3346   1.3362
  1.3367   1.3398   1.3408   1.3419   1.3457   1.3469   1.3504   1.3531
  1.3537   1.3550   1.3575   1.3578   1.3594   1.3603   1.3612   1.3623
  1.3634   1.3645   1.3668   1.3681   1.3700   1.3714   1.3723   1.3733
  1.3760   1.3774   1.3792   1.3803   1.3816   1.3820   1.3844   1.3859
  1.3881   1.3896   1.3899   1.3912   1.3942   1.3956   1.3968   1.3971
  1.4006   1.4029   1.4038   1.4045   1.4062   1.4073   1.4090   1.4100
  1.4106   1.4112   1.4133   1.4143   1.4160   1.4170   1.4182   1.4190
  1.4201   1.4239   1.4254   1.4256   1.4271   1.4285   1.4304   1.4308
  1.4327   1.4337   1.4350   1.4357   1.4393   1.4408   1.4423   1.4428
  1.4445   1.4461   1.4470   1.4486   1.4511   1.4520   1.4538   1.4548
  1.4559   1.4560   1.4580   1.4599   1.4610   1.4626   1.4643   1.4670
  1.4692   1.4703   1.4711   1.4723   1.4742   1.4750   1.4757   1.4776
  1.4795   1.4820   1.4834   1.4857   1.4884   1.4908   1.4924   1.4955
  1.4981   1.4998   1.5007   1.5020   1.5051   1.5060   1.5086   1.5088
  1.5127   1.5150   1.5161   1.5177   1.5181   1.5222   1.5265   1.5282
  1.5289   1.5341   1.5354   1.5387   1.5410   1.5442   1.5454   1.5500
  1.5525   1.5560   1.5576   1.5608   1.5614   1.5633   1.5674   1.5688
  1.5700   1.5734   1.5768   1.5788   1.5841   1.5866   1.5897   1.5944
  1.5977   1.6010   1.6029   1.6052   1.6082   1.6105   1.6153   1.6169
  1.6186   1.6238   1.6281   1.6304   1.6329   1.6359   1.6386   1.6400
  1.6448   1.6462   1.6499   1.6502   1.6513   1.6535   1.6559   1.6565
  1.6577   1.6601   1.6608   1.6626   1.6642   1.6674   1.6678   1.6693
  1.6697   1.6725   1.6732   1.6742   1.6750   1.6784   1.6802   1.6819
  1.6842   1.6858   1.6880   1.6886   1.6895   1.6914   1.6923   1.6929
  1.6938   1.6954   1.6975   1.6979   1.7000   1.7011   1.7018   1.7028
  1.7037   1.7044   1.7061   1.7075   1.7084   1.7095   1.7106   1.7128
  1.7142   1.7148   1.7167   1.7181   1.7190   1.7195   1.7221   1.7225
  1.7248   1.7256   1.7262   1.7273   1.7289   1.7296   1.7299   1.7325
  1.7337   1.7344   1.7383   1.7386   1.7399   1.7412   1.7425   1.7443
  1.7453   1.7465   1.7475   1.7499   1.7511   1.7523   1.7533   1.7548
  1.7563   1.7571   1.7602   1.7605   1.7620   1.7639   1.7652   1.7669
  1.7683   1.7691   1.7708   1.7721   1.7736   1.7748   1.7760   1.7770
  1.7778   1.7806   1.7826   1.7852   1.7873   1.7886   1.7914   1.7925
  1.7946   1.8002   1.8007   1.8039   1.8054   1.8064   1.8096   1.8111
  1.8123   1.8132   1.8161   1.8202   1.8208   1.8220   1.8251   1.8283
  1.8292   1.8313   1.8394   1.8402   1.8437   1.8461   1.8487   1.8508
  1.8511   1.8560   1.8573   1.8592   1.8614   1.8637   1.8663   1.8674
  1.8683   1.8697   1.8715   1.8723   1.8749   1.8753   1.8771   1.8800
  1.8810   1.8815   1.8823   1.8852   1.8858   1.8863   1.8887   1.8901
  1.8908   1.8920   1.8938   1.8947   1.8958   1.8967   1.8972   1.8988
  1.9000   1.9009   1.9013   1.9030   1.9052   1.9067   1.9076   1.9093
  1.9099   1.9116   1.9126   1.9133   1.9145   1.9182   1.9186   1.9202
  1.9212   1.9236   1.9237   1.9251   1.9267   1.9287   1.9294   1.9320
  1.9342   1.9355   1.9381   1.9400   1.9411   1.9415   1.9445   1.9477
  1.9485   1.9512   1.9548   1.9571   1.9586   1.9611   1.9627   1.9662
  1.9710   1.9728   1.9741   1.9782   1.9828   1.9849   1.9877   1.9961
  2.0012   2.0043   2.0141   2.0189   2.0316   2.0330   2.0387   2.0418
  2.0438   2.0469   2.0484   2.0521   2.0530   2.0545   2.0557   2.0571
  2.0579   2.0589   2.0602   2.0616   2.0637   2.0645   2.0655   2.0665
  2.0674   2.0690   2.0707   2.0711   2.0724   2.0733   2.0742   2.0760
  2.0766   2.0771   2.0793   2.0800   2.0813   2.0828   2.0855   2.0875
  2.0905   2.0909   2.0914   2.0926   2.0947   2.0956   2.0975   2.0984
  2.1005   2.1025   2.1045   2.1053   2.1061   2.1074   2.1095   2.1120
  2.1140   2.1167   2.1213   2.1229   2.1253   2.1291   2.1360   2.1388
  2.1417   2.1476   2.1509   2.1529   2.1535   2.1598   2.1603   2.1630
  2.1677   2.1736   2.1785   2.1801   2.1819   2.1850   2.1894   2.1904
  2.1917   2.1927   2.1942   2.1978   2.1990   2.2012   2.2039   2.2062
  2.2076   2.2079   2.2102   2.2139   2.2148   2.2175   2.2188   2.2190
  2.2203   2.2218   2.2228   2.2245   2.2247   2.2252   2.2280   2.2289
  2.2307   2.2315   2.2320   2.2327   2.2336   2.2347   2.2350   2.2381
  2.2391   2.2396   2.2401   2.2417   2.2434   2.2449   2.2454   2.2460
  2.2470   2.2474   2.2479   2.2480   2.2484   2.2504   2.2512   2.2521
  2.2530   2.2541   2.2549   2.2554   2.2563   2.2568   2.2591   2.2598
  2.2608   2.2610   2.2621   2.2631   2.2635   2.2648   2.2660   2.2662
  2.2671   2.2687   2.2698   2.2702   2.2706   2.2714   2.2727   2.2735
  2.2754   2.2759   2.2766   2.2788   2.2801   2.2808   2.2820   2.2824
  2.2835   2.2840   2.2846   2.2857   2.2870   2.2882   2.2893   2.2908
  2.2911   2.2926   2.2945   2.2959   2.2977   2.2982   2.2992   2.3009
  2.3022   2.3034   2.3043   2.3053   2.3069   2.3077   2.3091   2.3104
  2.3118   2.3121   2.3128   2.3144   2.3155   2.3161   2.3180   2.3188
  2.3193   2.3202   2.3216   2.3231   2.3242   2.3255   2.3272   2.3281
  2.3288   2.3291   2.3296   2.3300   2.3329   2.3346   2.3354   2.3374
  2.3381   2.3417   2.3429   2.3434   2.3448   2.3473   2.3501   2.3508
  2.3532   2.3549   2.3557   2.3575   2.3593   2.3601   2.3653   2.3680
  2.3690   2.3709   2.3722   2.3738   2.3771   2.3798   2.3835   2.3866
  2.3873   2.3912   2.3915   2.3940   2.3944   2.3964   2.3991   2.4068
  2.4121   2.4173   2.4242   2.4306   2.4320   2.4472   2.4696   2.5158
  2.5201   2.5491   2.5771   2.6700   2.7275   2.7910   2.7954   2.8080
  2.8205   2.8274   2.8308   2.8318   2.8332   2.8344   2.8356   2.8384
  2.8399   2.8423   2.8428   2.8483   2.8502   2.8511   2.8524   2.8571
  2.8587   2.8613   2.8624   2.8647   2.8656   2.8674   2.8708   2.8710
  2.8757   2.8779   2.8801   2.8823   2.8956   2.9035   2.9103   2.9657
  3.1095   3.2563   3.9471   3.9496   3.9517   3.9547   3.9583   3.9606
  3.9627   3.9636   3.9679   3.9684   3.9749   3.9784   3.9830   3.9874
  3.9910   3.9937   3.9968   3.9982   4.0005   4.0009   4.0071   4.0109
  4.0152   4.0186   4.0229   4.0322   4.0373   4.0405   4.1736   4.1918
  4.2048   4.2177   4.2303   4.2348   4.2385   4.2443   4.2459   4.2481
  4.2510   4.2522   4.2556   4.2572   4.2606   4.2643   4.2667   4.2688
  4.2717   4.2738   4.2777   4.2788   4.2815   4.2849   4.2861   4.2899
  4.2904   4.2910   4.2959   4.2965   4.2983   4.3007   4.3049   4.3052
  4.3082   4.3099   4.3105   4.3130   4.3146   4.3156   4.3206   4.3218
  4.3252   4.3275   4.3287   4.3339   4.3363   4.3396   4.3438   4.3486
  4.3516   4.3532   4.3546   4.3592   4.3616   4.3634   4.3680   4.3712
  4.3763   4.3791   4.3805   4.3850   4.3906   4.3932   4.3960   4.4000
  4.4026   4.4114   4.4146   4.4231   4.4241   4.4364   4.4377   4.4475
  4.4518   4.4532   4.4612   4.4697   4.4855   4.4930   4.5193   4.5301
  4.5456   4.5588   4.5697   4.5837   4.6010   4.6215   4.6678   4.7316
  4.7637   4.7920   4.8979
 --------------------------------------------------------------
 
          Ground-State Mulliken Net Atomic Charges

     Atom                 Charge (a.u.)
  ----------------------------------------
      1 C                    -0.173709
      2 C                    -0.223261
      3 C                    -0.526636
      4 C                    -0.340360
      5 C                    -0.381095
      6 C                    -0.716124
      7 H                     0.254738
      8 H                     0.205534
      9 H                     0.205379
     10 H                     0.224723
     11 H                     0.236621
     12 H                     0.143878
     13 H                     0.201328
     14 H                     0.212461
     15 H                     0.192250
     16 H                     0.222836
     17 H                     0.181357
     18 N                    -0.374523
     19 H                     0.461482
     20 C                     0.300125
     21 H                     0.171145
     22 O                    -0.478148
     23 C                    -0.790976
     24 H                     0.256696
     25 H                     0.245416
     26 H                     0.279806
     27 S                     0.680383
     28 C                    -0.860939
     29 H                     0.255075
     30 H                     0.295580
     31 H                     0.289750
     32 O                    -0.643901
     33 C                    -1.107329
     34 H                     0.259617
     35 H                     0.286128
     36 H                     0.275775
     37 S                     1.171460
     38 C                    -1.050032
     39 H                     0.259737
     40 H                     0.292352
     41 H                     0.251775
     42 O                    -0.708432
     43 C                    -0.965885
     44 H                     0.276007
     45 H                     0.265707
     46 H                     0.241013
     47 S                     0.976585
     48 C                    -0.829662
     49 H                     0.251899
     50 H                     0.249470
     51 H                     0.244486
     52 O                    -0.714109
     53 C                    -0.979764
     54 H                     0.291701
     55 H                     0.309809
     56 H                     0.217673
     57 S                     0.881765
     58 C                    -0.924107
     59 H                     0.292827
     60 H                     0.220765
     61 H                     0.252889
     62 O                    -0.685953
     63 C                    -0.864215
     64 H                     0.252876
     65 H                     0.235958
     66 H                     0.267427
     67 S                     0.904621
     68 C                    -0.791075
     69 H                     0.212798
     70 H                     0.302423
     71 H                     0.291292
     72 O                    -0.692431
     73 C                    -0.791733
     74 H                     0.259090
     75 H                     0.259999
     76 H                     0.267842
     77 S                     0.632847
     78 C                    -0.816857
     79 H                     0.245921
     80 H                     0.300775
     81 H                     0.246420
     82 O                    -0.614056
     83 C                    -0.869116
     84 H                     0.254835
     85 H                     0.244473
     86 H                     0.247308
     87 S                     0.947094
     88 C                    -0.866802
     89 H                     0.260173
     90 H                     0.247333
     91 H                     0.269096
     92 O                    -0.746692
     93 C                    -0.851395
     94 H                     0.271999
     95 H                     0.254495
     96 H                     0.218454
     97 S                     0.974307
     98 C                    -0.807427
     99 H                     0.241546
    100 H                     0.261755
    101 H                     0.229070
    102 O                    -0.720399
    103 C                    -0.781729
    104 H                     0.248766
    105 H                     0.324355
    106 H                     0.271545
    107 S                     0.370216
    108 C                    -0.792782
    109 H                     0.285262
    110 H                     0.264621
    111 H                     0.263709
    112 O                    -0.650871
    113 C                    -0.936619
    114 H                     0.275035
    115 H                     0.239321
    116 H                     0.236708
    117 S                     1.626583
    118 C                    -1.536318
    119 H                     0.264378
    120 H                     0.266112
    121 H                     0.289177
    122 O                    -0.666492
    123 C                    -0.846675
    124 H                     0.256403
    125 H                     0.233869
    126 H                     0.257346
    127 S                     1.047948
    128 C                    -0.909422
    129 H                     0.242931
    130 H                     0.214995
    131 H                     0.249684
    132 O                    -0.741386
    133 C                    -0.857721
    134 H                     0.267315
    135 H                     0.249155
    136 H                     0.264474
    137 S                     0.878297
    138 C                    -0.902438
    139 H                     0.264831
    140 H                     0.235161
    141 H                     0.265606
    142 O                    -0.669184
    143 C                    -0.802777
    144 H                     0.256515
    145 H                     0.245964
    146 H                     0.242181
    147 S                     0.887346
    148 C                    -0.818520
    149 H                     0.246999
    150 H                     0.301296
    151 H                     0.230289
    152 O                    -0.740792
    153 C                    -0.787791
    154 H                     0.311395
    155 H                     0.254545
    156 H                     0.228938
    157 S                     0.495544
    158 C                    -0.712193
    159 H                     0.286905
    160 H                     0.229535
    161 H                     0.321203
    162 O                    -0.575702
    163 C                    -0.930824
    164 H                     0.290501
    165 H                     0.310143
    166 H                     0.264367
    167 S                     0.749080
    168 C                    -0.797492
    169 H                     0.248270
    170 H                     0.259388
    171 H                     0.241381
    172 O                    -0.669964
    173 C                    -0.929416
    174 H                     0.330241
    175 H                     0.253462
    176 H                     0.220398
    177 S                     0.973823
    178 C                    -0.853096
    179 H                     0.225835
    180 H                     0.268034
    181 H                     0.261214
    182 O                    -0.728393
    183 C                    -0.863840
    184 H                     0.249261
    185 H                     0.289370
    186 H                     0.228470
    187 S                     1.094634
    188 C                    -0.993833
    189 H                     0.258315
    190 H                     0.252667
    191 H                     0.234587
    192 O                    -0.729092
    193 C                    -0.923767
    194 H                     0.239785
    195 H                     0.244528
    196 H                     0.273704
    197 S                     1.151694
    198 C                    -0.938356
    199 H                     0.251710
    200 H                     0.270508
    201 H                     0.234954
    202 O                    -0.721844
    203 C                    -0.899053
    204 H                     0.273355
    205 H                     0.260084
    206 H                     0.248235
    207 S                     1.040794
    208 C                    -0.920512
    209 H                     0.251352
    210 H                     0.242486
    211 H                     0.270480
    212 O                    -0.710187
    213 C                    -0.783334
    214 H                     0.257683
    215 H                     0.252664
    216 H                     0.266014
    217 S                     0.633703
    218 C                    -0.802427
    219 H                     0.273610
    220 H                     0.272662
    221 H                     0.257544
    222 O                    -0.636177
    223 C                    -0.979352
    224 H                     0.259805
    225 H                     0.287555
    226 H                     0.214517
    227 S                     1.147913
    228 C                    -0.950309
    229 H                     0.258582
    230 H                     0.225833
    231 H                     0.264824
    232 O                    -0.749800
    233 C                    -0.932991
    234 H                     0.259441
    235 H                     0.278004
    236 H                     0.325227
    237 S                     0.545147
    238 C                    -0.809505
    239 H                     0.234913
    240 H                     0.300443
    241 H                     0.257565
    242 O                    -0.606693
    243 C                    -0.992838
    244 H                     0.262850
    245 H                     0.248880
    246 H                     0.262624
    247 S                     1.226439
    248 C                    -0.995606
    249 H                     0.259221
    250 H                     0.268933
    251 H                     0.266977
    252 O                    -0.735821
    253 C                    -0.899257
    254 H                     0.272699
    255 H                     0.247226
    256 H                     0.225341
    257 S                     1.028595
    258 C                    -1.022041
    259 H                     0.244161
    260 H                     0.258240
    261 H                     0.306672
    262 O                    -0.667842
    263 C                    -0.600225
    264 H                     0.282417
    265 H                     0.247367
    266 H                     0.226665
    267 S                     0.399708
    268 C                    -0.925155
    269 H                     0.261114
    270 H                     0.282337
    271 H                     0.304273
    272 O                    -0.617123
    273 C                    -0.993096
    274 H                     0.277480
    275 H                     0.245286
    276 H                     0.305757
    277 S                     1.085965
    278 C                    -0.912455
    279 H                     0.272928
    280 H                     0.272474
    281 H                     0.278126
    282 O                    -0.703631
    283 C                    -0.821877
    284 H                     0.255329
    285 H                     0.288687
    286 H                     0.267088
    287 S                     0.663054
    288 C                    -0.817910
    289 H                     0.311339
    290 H                     0.253585
    291 H                     0.244719
    292 O                    -0.677060
    293 C                    -0.791866
    294 H                     0.244998
    295 H                     0.259985
    296 H                     0.250949
    297 S                     0.697130
    298 C                    -0.698796
    299 H                     0.308030
    300 H                     0.247997
    301 H                     0.234218
    302 O                    -0.689901
  ----------------------------------------
  Sum of atomic charges =     0.000000

 -----------------------------------------------------------------
                    Cartesian Multipole Moments
 -----------------------------------------------------------------
    Charge (ESU x 10^10)
                -0.0000
    Dipole Moment (Debye)
         X       7.8347      Y      11.1727      Z     -15.0666
       Tot      20.3276
    Quadrupole Moments (Debye-Ang)
        XX    -661.1536     XY     449.8999     YY    -491.1969
        XZ     -79.4863     YZ    -194.8665     ZZ   -1836.2023
    Octopole Moments (Debye-Ang^2)
       XXX  -64968.3526    XXY   -6966.3098    XYY   -9393.4067
       YYY  -49210.0911    XXZ  -22313.3582    XYZ    1911.5741
       YYZ  -27861.2908    XZZ  -36109.2688    YZZ  -41488.9146
       ZZZ -117958.5392
    Hexadecapole Moments (Debye-Ang^3)
      XXXX ************   XXXY ************   XXYY -673802.2286
      XYYY ************   YYYY ************   XXXZ ************
      XXYZ -375529.8446   XYYZ -563269.0359   YYYZ ************
      XXZZ ************   XYZZ -806471.3171   YYZZ ************
      XZZZ ************   YZZZ ************   ZZZZ ************
 -----------------------------------------------------------------
Archival summary:
[...]
    2   0.0178874  -0.0607385   0.0032443  -0.0140816   0.0294980  -0.0023541
    3  -0.0012270   0.0092096   0.0023583  -0.0263268  -0.0156259   0.0323427
          157         158         159         160         161         162
    1  -0.0305949  -0.0033946   0.0117065  -0.0110627  -0.0276879   0.0186443
    2   0.0100179   0.0002968  -0.0116889   0.0318450  -0.0130606  -0.1022880
    3  -0.0522855   0.0112469   0.0311746  -0.0089852   0.0098549   0.0374156
          163         164         165         166         167         168
    1  -0.0076693  -0.0097317  -0.0284763  -0.0145000   0.0436386  -0.0004725
    2  -0.0029951   0.0100580   0.0029802  -0.0374011  -0.0237091   0.0068607
    3   0.0038002   0.0318835  -0.0150179   0.0079944   0.0221254   0.0028450
          169         170         171         172         173         174
    1  -0.0214520   0.0055700   0.0216437  -0.0277372   0.0044418  -0.0054944
    2   0.0121412   0.0045182   0.0285725   0.0043502   0.0111831   0.0262282
    3  -0.0196040   0.0333413  -0.0089954  -0.1059087  -0.0031102  -0.0251069
          175         176         177         178         179         180
    1   0.0003081   0.0310864  -0.0023767   0.0020302   0.0272525  -0.0184605
    2   0.0089599  -0.0060253  -0.0353133   0.0002935  -0.0248424  -0.0210864
    3   0.0299305  -0.0075160   0.0405997  -0.0065839  -0.0033768  -0.0112120
          181         182         183         184         185         186
    1   0.0086777  -0.0863627   0.0043948   0.0100842   0.0224455  -0.0119192
    2   0.0232154   0.0566924  -0.0049622   0.0244657  -0.0175038  -0.0264501
    3  -0.0208725  -0.0364643  -0.0074759  -0.0162244   0.0058429  -0.0215814
          187         188         189         190         191         192
    1  -0.0159507  -0.0038745  -0.0069717   0.0171769  -0.0268460   0.0854280
    2  -0.0387452   0.0056739   0.0221720   0.0151522  -0.0202587   0.0675309
    3   0.0338179  -0.0061922   0.0226930  -0.0250573  -0.0059513   0.0224929
          193         194         195         196         197         198
    1   0.0035825   0.0049620  -0.0247095   0.0258219   0.0418954  -0.0041165
    2   0.0057531   0.0176083   0.0143810  -0.0048639  -0.0393937   0.0006100
    3  -0.0005842  -0.0313311   0.0067433   0.0209714  -0.0195281  -0.0081017
          199         200         201         202         203         204
    1   0.0112739  -0.0258409  -0.0256074  -0.0480599   0.0025841   0.0326987
    2  -0.0055031  -0.0185113   0.0216610  -0.0082712   0.0021054   0.0039740
    3  -0.0300454   0.0088042   0.0042695   0.0973279   0.0089666   0.0023075
          205         206         207         208         209         210
    1  -0.0216433  -0.0025499  -0.0038367  -0.0050455  -0.0227471  -0.0117547
    2   0.0214674  -0.0295264   0.0534535  -0.0054844   0.0121024  -0.0014146
    3   0.0144209   0.0107027  -0.0192559   0.0027494   0.0202121  -0.0283156
          211         212         213         214         215         216
    1   0.0102900   0.0779825  -0.0066800  -0.0182526   0.0056271  -0.0173243
    2  -0.0322250  -0.0697763  -0.0040258  -0.0133834  -0.0251184   0.0163988
    3  -0.0013957  -0.0374152   0.0016246  -0.0201997   0.0175930   0.0253491
          217         218         219         220         221         222
    1   0.0392010  -0.0048957  -0.0255801  -0.0165111   0.0138228   0.0277524
    2   0.0213884   0.0056405  -0.0025905   0.0153143   0.0244140  -0.0620651
    3   0.0399872  -0.0034939  -0.0211237   0.0240852  -0.0192239  -0.0856891
          223         224         225         226         227         228
    1  -0.0120847  -0.0208402  -0.0171595  -0.0049034   0.0314159   0.0007005
    2  -0.0014417  -0.0074922   0.0227246  -0.0278489   0.0121552  -0.0086553
    3  -0.0017805   0.0235510  -0.0212405  -0.0092522  -0.0268001   0.0103078
          229         230         231         232         233         234
    1   0.0126064   0.0312743  -0.0350231  -0.0522043  -0.0088472  -0.0229813
    2  -0.0302388  -0.0013001   0.0082011   0.0712584  -0.0013501   0.0284822
    3  -0.0018737   0.0116122   0.0150389   0.0712032   0.0016793   0.0127647
          235         236         237         238         239         240
    1  -0.0209595  -0.0062449   0.0066629   0.0028113   0.0300078  -0.0080536
    2  -0.0022068  -0.0272793   0.0348267  -0.0100369  -0.0189716  -0.0176724
    3  -0.0226113   0.0193447  -0.0410144  -0.0011333  -0.0071848   0.0271543
          241         242         243         244         245         246
    1  -0.0206526   0.0401965  -0.0084534  -0.0003759  -0.0289636  -0.0104946
    2  -0.0002002   0.0064299  -0.0018677  -0.0127554  -0.0147063   0.0291214
    3  -0.0231040   0.1022818  -0.0051045  -0.0348038   0.0106868  -0.0025748
          247         248         249         250         251         252
    1   0.0447290  -0.0028327  -0.0207831  -0.0015148   0.0257828  -0.0353148
    2   0.0200551  -0.0117229  -0.0151988  -0.0129793  -0.0145881   0.0105933
    3  -0.0222648  -0.0020802   0.0228619  -0.0332083   0.0159104   0.1055637
          253         254         255         256         257         258
    1  -0.0041354  -0.0239347  -0.0126434   0.0072916   0.0400480   0.0009513
    2  -0.0024504  -0.0204640   0.0282539   0.0034941   0.0457334  -0.0060020
    3  -0.0040930   0.0083667  -0.0073498  -0.0355866   0.0001892  -0.0031726
          259         260         261         262         263         264
    1  -0.0242400   0.0310840   0.0167658  -0.0736180   0.0050148   0.0295896
    2  -0.0196313  -0.0052356  -0.0061234  -0.0148734   0.0046287  -0.0077496
    3  -0.0145996  -0.0224181   0.0233498   0.0808867  -0.0001101  -0.0059891
          265         266         267         268         269         270
    1  -0.0075239  -0.0022542  -0.0474097   0.0072274   0.0006106  -0.0069361
    2  -0.0095216   0.0379352   0.0054464   0.0068871   0.0330086  -0.0107882
    3  -0.0279744  -0.0034194   0.0084315   0.0093884   0.0170907   0.0276205
          271         272         273         274         275         276
    1   0.0309946   0.0589170   0.0012145   0.0187816  -0.0229965  -0.0057496
    2  -0.0073247  -0.0930561   0.0114082   0.0244495   0.0126184  -0.0017323
    3  -0.0031210  -0.0098171   0.0082365  -0.0120361  -0.0127485   0.0329910
          277         278         279         280         281         282
    1   0.0012345  -0.0064299  -0.0292677  -0.0071039   0.0072898   0.0759435
    2  -0.0045493  -0.0012168   0.0043088  -0.0305762  -0.0041766  -0.0310901
    3  -0.0571427   0.0071164  -0.0144969  -0.0105102   0.0312501   0.0711239
          283         284         285         286         287         288
    1  -0.0061536   0.0040853  -0.0303855  -0.0005649   0.0069184   0.0074969
    2   0.0047285   0.0306093  -0.0011020  -0.0109562  -0.0465524   0.0098476
    3   0.0028492  -0.0131590  -0.0107691   0.0349189   0.0317750   0.0029183
          289         290         291         292         293         294
    1   0.0034895  -0.0015917   0.0276375  -0.0160386  -0.0009655  -0.0083622
    2   0.0213192   0.0175028  -0.0123818  -0.0006037  -0.0067677  -0.0285777
    3  -0.0261589   0.0356928  -0.0106684  -0.1078979  -0.0020042   0.0132819
          295         296         297         298         299         300
    1  -0.0270975   0.0133133   0.0183288   0.0072300   0.0136727   0.0050004
    2   0.0069087  -0.0035132   0.0499456  -0.0084577   0.0149867  -0.0342648
    3  -0.0115155  -0.0319744  -0.0314800   0.0042241   0.0229170   0.0117916
          301         302
    1   0.0293385  -0.0605850
    2  -0.0123053   0.0131525
    3  -0.0199297   0.0898216
  --- DONE ESP SUMMARY ---
Archival summary:
1\1\n0092.mhg0\SP\ProcedureUnspecified\6-31+G*\282856h22\ymao\FriMar1214:50:382021FriMar1214:50:382021\0\\#,ProcedureUnspecified,6-31+G*,\\0,1\S\O,1,1.49643\C,1,1.80708,2,102.275\H,3,1.09255,1,117.381,2,-167.781,0\H,3,1.09323,1,107.791,2,67.5772,0\H,3,1.09373,1,108.376,2,-45.2843,0\C,1,1.80727,2,102.675,3,-95.2618,0\H,7,1.09265,1,102.723,2,45.5221,0\H,7,1.09289,1,108.142,2,151.048,0\H,7,1.09295,1,116.535,2,-75.9959,0\H,4,2.12265,3,126.963,1,-63.4382,0\C,11,1.09351,4,126.859,3,115.176,0\H,12,1.09274,11,106.015,4,-59.4471,0\H,12,1.0928,11,101.91,4,-178.31,0\S,12,1.807,11,116.819,4,64.4786,0\O,15,1.49703,12,109.849,11,65.3428,0\C,15,1.80658,12,93.051,11,171.123,0\H,17,1.09215,15,115.692,12,92.5454,0\H,17,1.09286,15,96.5975,12,-146.153,0\H,17,1.09294,15,107.235,12,-34.8968,0\Gh,18,2.26481,17,118.849,15,-68.218,0\Gh,21,1.09632,18,149.596,17,-143.186,0\Gh,22,1.46249,21,110.736,18,-111.772,0\Gh,23,1.01278,22,119.229,21,-143.761,0\Gh,23,1.37878,22,124.077,21,47.4132,0\Gh,25,1.10514,23,116.309,22,170.843,0\Gh,25,1.21867,23,119.895,22,-5.27289,0\Gh,22,1.53731,21,103.243,18,128.85,0\Gh,28,1.09639,22,113.173,21,173.22,0\Gh,28,1.0969,22,116.487,21,59.3652,0\Gh,28,1.53755,22,112.043,21,-65.287,0\Gh,31,1.09651,28,107.943,22,68.6681,0\Gh,31,1.09664,28,105.581,22,-168.534,0\Gh,22,1.53757,21,104.626,18,9.61429,0\Gh,34,1.09678,22,112.97,21,-64.5186,0\Gh,34,1.09681,22,110.798,21,173.473,0\Gh,31,1.53802,28,114.497,22,-46.739,0\Gh,37,1.09667,31,111.562,28,-72.3714,0\Gh,37,1.09704,31,105.943,28,171.003,0\Gh,37,1.53799,31,109.163,28,53.3634,0\Gh,40,1.09625,37,108.84,31,-177.958,0\Gh,40,1.09632,37,117.066,31,72.7245,0\O,24,2.00789,23,152.218,22,179.132,0\S,43,1.49673,24,116.28,23,-174.74,0\C,44,1.80671,43,109.941,24,156.749,0\H,45,1.09245,44,111.497,43,-137.246,0\H,45,1.09296,44,109.37,43,-25.1709,0\H,45,1.09341,44,112.827,43,96.9359,0\C,44,1.80696,43,100.886,24,53.6588,0\H,49,1.0922,44,111.526,43,175.998,0\H,49,1.09289,44,110.402,43,-70.0905,0\H,49,1.09291,44,106.663,43,51.7176,0\H,33,2.01249,31,146.783,28,27.1749,0\C,53,1.09323,33,148.893,31,-24.3072,0\H,54,1.09276,53,108.164,33,147.85,0\H,54,1.09348,53,104.5,33,38.1697,0\S,54,1.8068,53,109.96,33,-94.5624,0\O,57,1.49639,54,93.8625,53,58.7085,0\C,57,1.80713,54,93.7176,53,-47.3706,0\H,59,1.09268,57,109.533,54,-70.8753,0\H,59,1.09299,57,108.818,54,52.4765,0\H,59,1.09348,57,107.404,54,171.555,0\H,50,2.12477,49,126.195,44,37.7311,0\C,63,1.09345,50,167.258,49,-114.725,0\H,64,1.09265,63,117.225,50,-171.892,0\H,64,1.09343,63,106.284,50,75.0605,0\S,64,1.80625,63,115.634,50,-41.7859,0\O,67,1.49716,64,104.856,63,-167.346,0\C,67,1.8065,64,97.7338,63,-63.03,0\H,69,1.09328,67,108.866,64,-152.558,0\H,69,1.09338,67,106.387,64,-31.2986,0\H,69,1.0934,67,113.806,64,81.7058,0\H,47,2.20756,45,130.79,44,-69.5974,0\C,73,1.09291,47,113.663,45,-131.654,0\H,74,1.09296,73,112.779,47,-11.5312,0\H,74,1.09312,73,118.555,47,110.331,0\S,74,1.8075,73,107.608,47,-130.852,0\O,77,1.49732,74,95.7814,73,173.841,0\C,77,1.8074,74,89.4338,73,69.6124,0\H,79,1.09237,77,107.283,74,50.3846,0\H,79,1.09288,77,108.256,74,-70.3968,0\H,79,1.09319,77,112.162,74,164.009,0\H,53,2.21481,33,80.6558,31,120.169,0\C,83,1.09351,53,129.197,33,41.0982,0\H,84,1.09301,83,113.307,53,-18.2769,0\H,84,1.09325,83,109.982,53,-138.75,0\S,84,1.80768,83,109.851,53,102.969,0\O,87,1.49714,84,105.406,83,79.3968,0\C,87,1.80711,84,93.9166,83,-172.713,0\H,89,1.09268,87,103.444,84,174.237,0\H,89,1.09275,87,111.377,84,61.2901,0\H,89,1.09366,87,106.164,84,-67.8696,0\H,42,2.22074,40,145.251,37,63.4066,0\C,93,1.09327,42,121.852,40,-23.9981,0\H,94,1.09235,93,105.136,42,-152.656,0\H,94,1.09307,93,111.251,42,-31.4144,0\S,94,1.80701,93,109.093,42,94.2573,0\O,97,1.49635,94,97.1088,93,-82.4566,0\C,97,1.80727,94,99.771,93,175.541,0\H,99,1.09228,97,100.875,94,-62.1733,0\H,99,1.09246,97,110.564,94,-179.554,0\H,99,1.09397,97,106.039,94,50.6145,0\H,86,2.26034,84,154.83,83,-38.6612,0\C,103,1.09295,86,109.985,84,-151.867,0\H,104,1.09238,103,104.681,86,148.705,0\H,104,1.09336,103,118.344,86,28.6427,0\S,104,1.80727,103,107.303,86,-98.3868,0\O,107,1.49733,104,104.248,103,-67.646,0\C,107,1.8073,104,91.8854,103,-174.861,0\H,109,1.09298,107,106.996,104,170.205,0\H,109,1.09313,107,116.966,104,38.7842,0\H,109,1.09392,107,97.5641,104,-77.242,0\H,110,2.03144,109,145.232,107,38.3749,0\C,113,1.09341,110,116.423,109,-176.756,0\H,114,1.09278,113,103.671,110,47.6826,0\H,114,1.09298,113,106.569,110,-67.6003,0\S,114,1.8063,113,104.042,110,162.431,0\O,117,1.49664,114,105.456,113,159.942,0\C,117,1.80664,114,95.4774,113,51.0919,0\H,119,1.09276,117,107.617,114,-172.5,0\H,119,1.09287,117,107.37,114,-55.5052,0\H,119,1.09351,117,111.446,114,62.4625,0\H,120,2.26975,119,105.53,117,176.577,0\C,123,1.09332,120,125.554,119,164.087,0\H,124,1.0925,123,111.148,120,-4.36017,0\H,124,1.09352,123,117.312,120,-130.636,0\S,124,1.80723,123,105.617,120,114.767,0\O,127,1.49715,124,100.132,123,-155.914,0\C,127,1.80676,124,102.294,123,-48.1242,0\H,129,1.0925,127,107.929,124,-153.361,0\H,129,1.09296,127,108.449,124,80.9136,0\H,129,1.0934,127,109.485,124,-41.3878,0\H,132,2.18055,129,112.867,127,169.356,0\C,133,1.09321,132,159.894,129,-32.4023,0\H,134,1.09262,133,117.298,132,-50.3192,0\H,134,1.09301,133,105.711,132,62.7118,0\S,134,1.80689,133,112.613,132,-178.456,0\O,137,1.49712,134,100.544,133,-37.5913,0\C,137,1.8066,134,98.3435,133,70.3279,0\H,139,1.09291,137,107.999,134,-33.2728,0\H,139,1.09297,137,108.772,134,-164.582,0\H,139,1.09305,137,108.62,134,84.8503,0\H,106,2.29327,104,109.711,103,81.7104,0\C,143,1.09337,106,125.742,104,-175.516,0\H,144,1.09281,143,106.452,106,74.9725,0\H,144,1.09283,143,112.642,106,-161.248,0\S,144,1.80713,143,101.393,106,-51.3513,0\O,147,1.49719,144,104.175,143,61.5924,0\C,147,1.80683,144,98.5958,143,-50.18,0\H,149,1.09269,147,108.197,144,171.9,0\H,149,1.09317,147,108.594,144,47.9125,0\H,149,1.09365,147,106.201,144,-65.4399,0\H,108,2.29417,107,113.347,104,105.324,0\C,153,1.09346,108,131.316,107,-24.5066,0\H,154,1.09267,153,109.808,108,46.4667,0\H,154,1.09288,153,117.249,108,176.19,0\S,154,1.80648,153,104.816,108,-60.2614,0\O,157,1.49669,154,104.209,153,-171.337,0\C,157,1.80703,154,88.997,153,-60.3958,0\H,159,1.0923,157,114.981,154,-66.3146,0\H,159,1.09325,157,111.688,154,59.0523,0\H,159,1.09339,157,102.977,154,171.487,0\H,142,2.31053,139,153.448,137,-109.063,0\C,163,1.09232,142,106.908,139,98.9663,0\H,164,1.09295,163,111.763,142,-70.4191,0\H,164,1.09358,163,115.206,142,163.24,0\S,164,1.80789,163,106.989,142,48.9297,0\O,167,1.49651,164,103.554,163,13.3886,0\C,167,1.80666,164,94.6414,163,121.593,0\H,169,1.09303,167,111.422,164,-55.9992,0\H,169,1.09308,167,106.343,164,-177.712,0\H,169,1.09356,167,106.814,164,62.9658,0\H,103,2.33395,86,135.895,84,8.87076,0\C,173,1.09309,103,135.865,86,-94.9631,0\H,174,1.09296,173,105.143,103,166.186,0\H,174,1.09299,173,108.55,103,-73.4941,0\S,174,1.80691,173,108.908,103,48.7612,0\O,177,1.49666,174,106.097,173,149.393,0\C,177,1.80688,174,96.7602,173,43.8921,0\H,179,1.09263,177,105.482,174,169.053,0\H,179,1.09275,177,114.021,174,48.9316,0\H,179,1.09278,177,111.385,174,-81.4982,0\O,156,2.36827,154,161.458,153,47.7163,0\S,183,1.49724,156,119.282,154,147.488,0\C,184,1.80661,183,103.639,156,-37.5912,0\H,185,1.0925,184,114.297,183,36.3389,0\H,185,1.09286,184,109.465,183,-89.5376,0\H,185,1.0937,184,109.624,183,156.8,0\C,184,1.8072,183,104.863,156,63.1864,0\H,189,1.09304,184,108.23,183,-73.9895,0\H,189,1.09316,184,114.789,183,170.8,0\H,189,1.09378,184,105.001,183,48.5074,0\H,58,2.38223,57,121.036,54,-142.118,0\C,193,1.09341,58,121.562,57,-78.0727,0\H,194,1.0925,193,99.9807,58,-66.9278,0\H,194,1.09301,193,111.831,58,48.6896,0\S,194,1.80765,193,113.332,58,172.525,0\O,197,1.49737,194,102.498,193,55.9658,0\C,197,1.80661,194,91.6367,193,161.685,0\H,199,1.09252,197,106.872,194,59.8929,0\H,199,1.0926,197,107.891,194,178.347,0\H,199,1.09305,197,115.692,194,-64.9406,0\H,196,2.26738,194,123.082,193,-114.736,0\C,203,1.09353,196,114.081,194,51.6858,0\H,204,1.09241,203,118.469,196,6.74015,0\H,204,1.09294,203,109.373,196,-115.368,0\S,204,1.80725,203,104.329,196,124.545,0\O,207,1.49676,204,105.728,203,-173.447,0\C,207,1.80721,204,91.7317,203,79.6402,0\H,209,1.09266,207,107.306,204,58.8442,0\H,209,1.0932,207,105.01,204,168.457,0\H,209,1.09373,207,110.594,204,-66.7949,0\H,193,2.27461,58,73.2616,57,96.3256,0\C,213,1.09283,193,100.857,58,-179.754,0\H,214,1.09325,213,114.189,193,-154.011,0\H,214,1.09396,213,108.909,193,-23.6228,0\S,214,1.80654,213,100.225,193,89.3568,0\O,217,1.49739,214,106.094,213,93.8055,0\C,217,1.80674,214,97.3632,213,-159.825,0\H,219,1.09265,217,99.6073,214,174.172,0\H,219,1.09277,217,113.575,214,-63.7409,0\H,219,1.09294,217,111.292,214,55.2578,0\H,221,2.1545,219,148.583,217,27.2119,0\C,223,1.09287,221,127.111,219,-106.064,0\H,224,1.09266,223,103.419,221,36.8923,0\H,224,1.09305,223,106.688,221,-84.1064,0\S,224,1.80717,223,105.608,221,156.42,0\O,227,1.49604,224,105.975,223,-53.2718,0\C,227,1.80746,224,103.064,223,54.9588,0\H,229,1.09272,227,113.343,224,59.9419,0\H,229,1.09273,227,109.417,224,-55.8176,0\H,229,1.09337,227,103.735,224,-173.776,0\O,19,2.3913,17,132.569,15,140.272,0\S,233,1.49735,19,130.843,17,173.226,0\C,234,1.80691,233,100.358,19,166.9,0\H,235,1.09295,234,110.211,233,69.9547,0\H,235,1.09295,234,111.906,233,-51.7971,0\H,235,1.09297,234,106.917,233,-175.004,0\C,234,1.8073,233,103.003,19,66.8723,0\H,239,1.09259,234,105.558,233,-53.0485,0\H,239,1.0935,234,108.847,233,-175.54,0\H,239,1.09352,234,105.238,233,71.6652,0\H,26,2.40595,25,127.895,23,-162.785,0\C,243,1.09292,26,100.467,25,-158.18,0\H,244,1.09213,243,105.145,26,-142.574,0\H,244,1.0934,243,115.42,26,-13.5168,0\S,244,1.80752,243,105.48,26,97.4818,0\O,247,1.49656,244,98.327,243,-88.1886,0\C,247,1.80614,244,96.3182,243,165.801,0\H,249,1.09274,247,111.013,244,-73.0548,0\H,249,1.09297,247,110.263,244,155.407,0\H,249,1.09339,247,111.235,244,46.5872,0\H,43,2.45891,24,123.726,23,35.182,0\C,253,1.09332,43,141.188,24,-179.704,0\H,254,1.09249,253,106.868,43,87.7212,0\H,254,1.09321,253,111.233,43,-30.1298,0\S,254,1.80695,253,110.706,43,-150.561,0\O,257,1.49726,254,103.867,253,-21.4982,0\C,257,1.80647,254,96.4045,253,83.7267,0\H,259,1.09268,257,104.124,254,72.323,0\H,259,1.09334,257,108.717,254,-47.41,0\H,259,1.09348,257,108.562,254,-163.569,0\H,148,2.59189,147,117.689,144,113.101,0\C,263,1.09378,148,117.317,147,98.1134,0\H,264,1.09277,263,110.16,148,-108.002,0\H,264,1.09353,263,109.717,148,14.2364,0\S,264,1.80728,263,109.699,148,132.94,0\O,267,1.49716,264,95.7564,263,64.5421,0\C,267,1.80717,264,95.0841,263,173.656,0\H,269,1.09294,267,114.977,264,-157.951,0\H,269,1.09304,267,112.713,264,-36.1581,0\H,269,1.09325,267,109.901,264,79.6836,0\H,128,2.65184,127,137.539,124,-177.12,0\C,273,1.09248,128,136.81,127,-55.7843,0\H,274,1.09294,273,110.559,128,-148.466,0\H,274,1.09318,273,107.302,128,-21.6989,0\S,274,1.80708,273,108.82,128,96.3144,0\O,277,1.49754,274,97.2751,273,75.6152,0\C,277,1.80721,274,94.6785,273,170.872,0\H,279,1.09286,277,115.086,274,-57.8952,0\H,279,1.09313,277,109.271,274,59.5119,0\H,279,1.09329,277,108.842,274,-175.166,0\H,282,2.03317,279,119.914,277,68.0881,0\C,283,1.09252,282,127.538,279,-152.766,0\H,284,1.09263,283,107.587,282,-143.841,0\H,284,1.09363,283,107.765,282,101.677,0\S,284,1.80705,283,113.091,282,-19.7592,0\O,287,1.49691,284,102.487,283,-176.093,0\C,287,1.80706,284,98.5125,283,-71.8564,0\H,289,1.09221,287,109.191,284,-170.352,0\H,289,1.09289,287,103.01,284,-48.4704,0\H,289,1.09337,287,112.065,284,65.8372,0\H,276,2.60158,274,126.518,273,-50.5973,0\C,293,1.09317,276,110.058,274,-143.49,0\H,294,1.09307,293,110.779,276,114.758,0\H,294,1.09327,293,111.03,276,-120.864,0\S,294,1.80676,293,111.349,276,-4.00925,0\O,297,1.49731,294,107.545,293,76.5272,0\C,297,1.80695,294,93.47,293,-179.696,0\H,299,1.09271,297,114.468,294,164.813,0\H,299,1.09287,297,103.559,294,-71.6228,0\H,299,1.09306,297,109.954,294,42.8654,0\\\@

 Total job time:  80.95s(wall), 268.17s(cpu) 
 Fri Mar 12 14:50:38 2021

        *************************************************************
        *                                                           *
        *  Thank you very much for using Q-Chem.  Have a nice day.  *
        *                                                           *
        *************************************************************


