                  Welcome to Q-Chem
     A Quantum Leap Into The Future Of Chemistry


 Q-Chem 5.2 (devel), Q-Chem, Inc., Pleasanton, CA (2019)

 Yihan Shao,  Zhengting Gan,  E. Epifanovsky,  A. T. B. Gilbert,  M. Wormit,  
 J. Kussmann,  A. W. Lange,  A. Behn,  Jia Deng,  Xintian Feng,  D. Ghosh,  
 M. Goldey,  P. R. Horn,  L. D. Jacobson,  I. Kaliman,  T. Kus,  A. Landau,  
 Jie Liu,  E. I. Proynov,  R. M. Richard,  R. P. Steele,  E. J. Sundstrom,  
 H. L. Woodcock III,  P. M. Zimmerman,  D. Zuev,  B. Alam,  B. Albrecht,  
 E. Alguire,  S. A. Baeppler,  D. Barton,  Z. Benda,  Y. A. Bernard,  
 E. J. Berquist,  K. B. Bravaya,  H. Burton,  K. Carter-Fenk,  D. Casanova,  
 Chun-Min Chang,  Yunqing Chen,  A. Chien,  K. D. Closser,  M. P. Coons,  
 S. Coriani,  S. Dasgupta,  A. L. Dempwolff,  M. Diedenhofen,  Hainam Do,  
 R. G. Edgar,  Po-Tung Fang,  S. Faraji,  S. Fatehi,  Qingguo Feng,  
 J. Fosso-Tande,  J. Gayvert,  Qinghui Ge,  A. Ghysels,  G. Gidofalvi,  
 J. Gomes,  J. Gonthier,  A. Gunina,  D. Hait,  M. W. D. Hanson-Heine,  
 P. H. P. Harbach,  A. W. Hauser,  M. F. Herbst,  J. E. Herr,  
 E. G. Hohenstein,  Z. C. Holden,  Kerwin Hui,  B. C. Huynh,  T.-C. Jagau,  
 Hyunjun Ji,  B. Kaduk,  K. Khistyaev,  Jaehoon Kim,  P. Klunzinger,  K. Koh,  
 D. Kosenkov,  L. Koulias,  T. Kowalczyk,  C. M. Krauter,  A. Kunitsa,  
 Ka Un Lao,  A. Laurent,  K. V. Lawler,  Joonho Lee,  D. Lefrancois,  
 S. Lehtola,  D. S. Levine,  Yi-Pei Li,  You-Sheng Lin,  Fenglai Liu,  
 Kuan-Yu Liu,  E. Livshits,  M. Loipersberger,  A. Luenser,  P. Manohar,  
 E. Mansoor,  S. F. Manzer,  Shan-Ping Mao,  Yuezhi Mao,  N. Mardirossian,  
 A. V. Marenich,  T. Markovich,  L. A. Martinez-Martinez,  S. A. Maurer,  
 N. J. Mayhall,  S. C. McKenzie,  J.-M. Mewes,  P. Morgante,  A. F. Morrison,  
 J. W. Mullinax,  K. Nanda,  T. S. Nguyen-Beck,  R. Olivares-Amaya,  
 J. A. Parkhill,  S. K. Paul,  F. Pavosevic,  Zheng Pei,  T. M. Perrine,  
 F. Plasser,  P. Pokhilko,  S. Prager,  A. Prociuk,  E. Ramos,  B. Rana,  
 D. R. Rehn,  F. Rob,  M. Scheurer,  M. Schneider,  N. Sergueev,  
 S. M. Sharada,  S. Sharma,  D. W. Small,  T. Stauch,  C. J. Stein,  
 T. Stein,  Yu-Chuan Su,  S. P. Veccham,  Zhen Tao,  A. J. W. Thom,  
 A. Tkatchenko,  T. Tsuchimochi,  N. M. Tubman,  L. Vogt,  M. L. Vidal,  
 O. Vydrov,  M. A. Watson,  J. Wenzel,  M. de Wergifosse,  T. A. Wesolowski,  
 A. White,  J. Witte,  A. Yamada,  Jun Yang,  K. Yao,  S. Yeganeh,  
 S. R. Yost,  Zhi-Qiang You,  A. Zech,  Igor Ying Zhang,  Xing Zhang,  
 Yan Zhao,  Ying Zhu,  B. R. Brooks,  G. K. L. Chan,  C. J. Cramer,  
 M. S. Gordon,  W. J. Hehre,  A. Klamt,  M. W. Schmidt,  C. D. Sherrill,  
 D. G. Truhlar,  A. Aspuru-Guzik,  R. Baer,  A. T. Bell,  N. A. Besley,  
 Jeng-Da Chai,  A. E. DePrince, III,  R. A. DiStasio Jr.,  A. Dreuw,  
 B. D. Dunietz,  T. R. Furlani,  Chao-Ping Hsu,  Yousung Jung,  Jing Kong,  
 D. S. Lambrecht,  WanZhen Liang,  C. Ochsenfeld,  V. A. Rassolov,  
 L. V. Slipchenko,  J. E. Subotnik,  T. Van Voorhis,  J. M. Herbert,  
 A. I. Krylov,  P. M. W. Gill,  M. Head-Gordon

 Contributors to earlier versions of Q-Chem not listed above: 
 R. D. Adamson,  B. Austin,  J. Baker,  G. J. O. Beran,  K. Brandhorst,  
 S. T. Brown,  E. F. C. Byrd,  A. K. Chakraborty,  C.-L. Cheng,  
 Siu Hung Chien,  D. M. Chipman,  D. L. Crittenden,  H. Dachsel,  
 R. J. Doerksen,  A. D. Dutoi,  L. Fusti-Molnar,  W. A. Goddard III,  
 A. Golubeva-Zadorozhnaya,  S. R. Gwaltney,  G. Hawkins,  A. Heyden,  
 S. Hirata,  G. Kedziora,  F. J. Keil,  C. Kelley,  Jihan Kim,  R. A. King,  
 R. Z. Khaliullin,  P. P. Korambath,  W. Kurlancheek,  A. M. Lee,  M. S. Lee,  
 S. V. Levchenko,  Ching Yeh Lin,  D. Liotard,  R. C. Lochan,  I. Lotan,  
 P. E. Maslen,  N. Nair,  D. P. O'Neill,  D. Neuhauser,  E. Neuscamman,  
 C. M. Oana,  R. Olson,  B. Peters,  R. Peverati,  P. A. Pieniazek,  
 Y. M. Rhee,  J. Ritchie,  M. A. Rohrdanz,  E. Rosta,  N. J. Russ,  
 H. F. Schaefer III,  N. E. Schultz,  N. Shenvi,  A. C. Simmonett,  A. Sodt,  
 D. Stuck,  K. S. Thanthiriwatte,  V. Vanovschi,  Tao Wang,  A. Warshel,  
 C. F. Williams,  Q. Wu,  X. Xu,  W. Zhang

 Please cite Q-Chem as follows:
 Y. Shao et al., Mol. Phys. 113, 184-215 (2015)
 DOI: 10.1080/00268976.2014.952696

 Q-Chem 5.2.2 for Intel X86 EM64T Linux

 Parts of Q-Chem use Armadillo 9.800.1 (Horizon Scraper).
 http://arma.sourceforge.net/

 Q-Chem begins on Thu Mar 11 13:37:42 2021  

Host: n0094.mhg0
0

     Scratch files written to /local/scratch/users/ymao/r7.00_frame_0047_almo_B3LYP_dp.in20210311133740//

Checking the input file for inconsistencies... 	...done.

--------------------------------------------------------------
User input:
--------------------------------------------------------------
$molecule
0 1
--
0 1
C    28.54900   19.22800   26.41800  
C    27.44900   20.23600   26.04600  
C    28.06500   21.64300   26.12100  
C    29.45800   21.86300   25.51100  
C    30.44500   20.75200   25.90400  
C    29.86900   19.35100   25.63900  
H    27.39900   22.32800   25.58100  
H    27.23600   19.91700   25.01900  
H    28.78100   19.40100   27.47600  
H    28.19100   18.21200   26.21200  
H    29.41200   21.81500   24.41600  
H    29.78100   22.83800   25.89500  
H    31.41100   20.99800   25.44700  
H    30.62100   20.88000   26.97900  
H    29.75500   19.18300   24.56100  
H    30.52300   18.55200   26.00800  
H    28.11000   21.92100   27.18200  
N    26.21000   20.24600   26.82200  
H    26.28600   20.13400   27.82600  
C    24.94200   20.42300   26.30900  
H    24.21200   20.20400   27.10900  
O    24.57300   20.67000   25.17500  
--
0 1
C    27.38800   18.30600   21.25400  
H    27.59400   18.02700   20.21800  
H    28.11700   19.06400   21.55300  
H    27.63700   17.41300   21.83200  
S    25.72100   18.94400   21.53900  
C    24.91100   17.42100   21.00200  
H    25.21100   17.04500   20.02000  
H    25.07800   16.77400   21.86800  
H    23.83400   17.60500   20.96200  
O    25.63200   19.86600   20.36300  
C    31.39600   21.40100   32.27400  
H    31.93600   21.15500   31.35700  
H    30.55300   22.04800   32.02000  
H    31.97500   22.08400   32.90100  
S    30.89300   19.79800   32.93800  
C    30.00900   20.71000   34.22400  
H    29.77300   20.03000   35.04700  
H    30.62100   21.47100   34.71500  
H    29.16600   21.30000   33.85400  
O    32.08500   19.44400   33.77100  
C    33.07200   24.13000   31.02200  
H    33.84800   23.48600   30.60100  
H    32.76800   23.83600   32.02900  
H    32.15300   24.11000   30.43000  
S    33.75700   25.80000   30.93400  
C    32.23100   26.76300   31.01500  
H    32.39700   27.78700   30.67100  
H    31.46400   26.26000   30.42100  
H    32.10500   26.93200   32.08800  
O    34.18600   25.92300   29.50500  
C    34.22900   23.08500   27.63800  
H    35.13600   22.79300   28.17400  
H    34.34500   24.13600   27.36200  
H    33.29300   22.88500   28.16600  
S    34.29400   22.02900   26.17400  
C    35.43500   20.80500   26.85500  
H    36.36100   21.24300   27.23600  
H    34.85800   20.12900   27.49200  
H    35.73700   20.16800   26.02000  
O    35.31000   22.67200   25.28300  
C    27.51000   15.23100   25.12200  
H    27.95300   16.20100   25.35800  
H    26.43100   15.39100   25.04900  
H    27.69200   14.54800   25.95700  
S    28.39900   14.77100   23.61800  
C    28.13300   12.99700   23.83500  
H    28.77000   12.74900   24.68800  
H    27.06900   12.79100   23.97200  
H    28.53300   12.55600   22.91800  
O    29.83500   15.08700   23.89900  
C    21.85800   20.92700   20.39300  
H    21.65200   21.27100   19.37600  
H    22.80200   20.37700   20.42200  
H    21.03600   20.32800   20.79600  
S    21.96400   22.44200   21.37100  
C    22.33000   21.66300   22.96000  
H    23.12400   20.92300   22.83700  
H    22.69100   22.43900   23.64000  
H    21.38600   21.21800   23.28700  
O    20.53800   22.81500   21.63000  
C    19.12000   15.79900   23.10500  
H    18.75700   16.25700   24.02900  
H    18.25900   15.42400   22.54600  
H    19.87800   15.02500   23.25000  
S    19.74600   17.19100   22.13800  
C    20.48700   16.10200   20.90100  
H    20.79500   15.19100   21.42200  
H    19.77300   15.83100   20.11900  
H    21.33200   16.63700   20.46200  
O    21.00300   17.76800   22.71100  
C    30.65100   13.31600   26.85200  
H    31.23800   14.11400   26.39100  
H    29.70800   13.24200   26.30500  
H    30.49300   13.51500   27.91500  
S    31.55300   11.76200   26.66200  
C    32.40100   12.10900   25.10400  
H    33.10800   12.93100   25.24100  
H    33.07500   11.27300   24.90000  
H    31.71500   12.26300   24.26800  
O    30.54200   10.70400   26.34400  
C    31.51400   16.04300   31.89400  
H    31.26200   15.51500   32.81700  
H    32.04900   15.37200   31.21800  
H    32.09200   16.94800   32.09900  
S    30.03800   16.44900   30.93300  
C    30.80800   17.02600   29.40400  
H    31.31700   16.25200   28.82300  
H    30.01000   17.57400   28.89600  
H    31.52300   17.82100   29.63000  
O    29.41400   17.62500   31.61800  
C    28.05300   22.66800   21.19500  
H    28.96500   22.30700   21.67700  
H    27.37100   21.85100   20.94700  
H    28.24200   23.23000   20.27600  
S    27.32400   23.79800   22.40200  
C    26.19700   22.61200   23.16800  
H    26.66700   21.64100   23.34400  
H    25.75300   23.09900   24.03900  
H    25.41000   22.45100   22.42600  
O    26.28400   24.54600   21.62800  
C    31.05400   25.58300   24.37500  
H    30.29100   26.27800   24.73500  
H    31.36400   25.89100   23.37300  
H    30.68800   24.55400   24.35300  
S    32.49500   25.84300   25.43400  
C    31.66000   25.59800   27.01800  
H    31.34300   24.56400   27.18000  
H    32.44200   25.85800   27.73700  
H    30.77800   26.23000   27.14500  
O    32.68500   27.32000   25.28500  
C    18.74800   19.54400   26.87000  
H    17.88800   20.21800   26.84900  
H    18.66800   18.68100   26.20500  
H    19.11300   19.26700   27.86200  
S    19.93800   20.55200   25.95600  
C    21.12000   19.18700   25.88000  
H    21.25700   18.90400   24.83300  
H    22.11900   19.56500   26.10900  
H    20.93100   18.32000   26.51700  
O    20.43400   21.44500   27.05100  
C    21.57500   17.43700   30.03300  
H    21.49000   18.50200   29.80000  
H    22.36200   16.95100   29.45000  
H    20.56700   17.08900   29.79300  
S    21.78300   17.07800   31.79100  
C    21.01700   15.44500   31.68200  
H    20.71800   15.17600   32.69800  
H    20.12000   15.49500   31.05900  
H    21.72200   14.72100   31.26600  
O    20.63900   17.91500   32.27400  
C    26.23600   18.13800   30.63700  
H    26.11000   17.60700   29.69000  
H    26.94000   17.60200   31.27800  
H    25.24900   18.31200   31.07100  
S    27.17600   19.64800   30.31400  
C    27.36800   20.22000   32.01700  
H    26.43300   20.37200   32.56200  
H    28.05000   19.54000   32.53500  
H    27.92100   21.15200   31.87600  
O    26.05800   20.42300   29.68800  
C    33.72000   15.87800   25.06100  
H    34.37100   15.00700   24.94600  
H    33.37900   16.06700   26.08200  
H    32.83200   15.56900   24.50500  
S    34.56000   17.37600   24.50000  
C    33.09900   18.38100   24.85000  
H    32.24100   17.85200   24.42800  
H    32.83500   18.37900   25.91100  
H    33.20500   19.39100   24.44600  
O    34.44800   17.27900   23.01100  
C    30.98200   20.12700   19.43100  
H    30.89300   19.04800   19.58200  
H    29.95400   20.44800   19.24700  
H    31.61200   20.41500   18.58500  
S    31.77000   20.72000   20.94500  
C    32.73900   19.22200   21.23300  
H    32.05700   18.37100   21.16700  
H    33.59200   19.24500   20.55100  
H    33.14000   19.23100   22.25000  
O    30.72800   20.52700   22.00300  
C    35.27600   18.26000   30.23700  
H    36.16500   18.05800   30.84000  
H    35.50100   19.17100   29.67500  
H    34.39500   18.35300   30.87700  
S    35.07200   16.93000   29.03100  
C    36.49400   17.07500   27.92700  
H    36.75700   16.11000   27.48700  
H    36.34100   17.88100   27.20400  
H    37.35200   17.27700   28.57300  
O    33.79400   17.28000   28.33300  
C    26.59700   25.25900   25.98000  
H    25.66200   25.72800   25.66500  
H    27.18100   24.88400   25.13600  
H    26.43700   24.39800   26.63400  
S    27.77600   26.37300   26.77700  
C    26.60400   27.24200   27.84300  
H    26.96800   28.12200   28.38000  
H    25.79600   27.54600   27.17200  
H    26.22900   26.37500   28.39300  
O    28.01800   27.51200   25.83600  
C    21.26000   23.16200   29.78300  
H    21.22300   24.25400   29.78800  
H    21.28400   22.85500   28.73500  
H    20.38600   22.72200   30.27100  
S    22.85800   22.79600   30.54300  
C    22.69600   20.99900   30.45000  
H    22.87000   20.62700   29.43700  
H    23.53200   20.62900   31.05100  
H    21.73100   20.62600   30.80200  
O    22.76300   23.18400   31.98600  
C    19.49500   25.19600   27.19300  
H    18.81900   25.12400   28.04900  
H    20.51300   24.96400   27.51700  
H    19.33800   26.14300   26.67200  
S    18.98100   23.95100   25.98800  
C    20.33100   24.15200   24.80400  
H    21.29700   23.90900   25.25300  
H    20.06000   23.49400   23.97400  
H    20.37000   25.19400   24.47700  
O    17.75200   24.46600   25.30500  
C    35.34700   25.36100   23.09200  
H    35.52100   26.41700   22.87100  
H    35.13300   25.28400   24.16100  
H    36.12900   24.78200   22.59300  
S    33.85300   24.92400   22.17500  
C    33.64300   23.15600   22.48400  
H    34.46300   22.54300   22.10200  
H    33.67200   22.98400   23.56300  
H    32.66600   22.95300   22.03800  
O    34.45100   24.95000   20.80300  
C    27.23400   23.57800   29.69200  
H    26.77300   24.56700   29.63400  
H    27.22800   23.02200   28.75100  
H    26.83500   23.04300   30.55800  
S    28.99600   23.87100   29.96300  
C    28.79000   25.38500   30.92800  
H    28.20400   25.07400   31.79600  
H    29.74200   25.70500   31.36000  
H    28.31200   26.10700   30.26100  
O    29.46500   24.29900   28.60800  
C    25.06500   11.53200   28.56600  
H    25.16600   11.80900   29.61900  
H    24.18200   12.05300   28.18900  
H    24.88600   10.45600   28.51200  
S    26.47800   11.99700   27.54000  
C    27.72200   11.24000   28.60900  
H    28.67000   11.65700   28.25800  
H    27.48500   11.47800   29.64900  
H    27.71900   10.15000   28.53200  
O    26.79600   13.43100   27.83000  
C    23.83200   17.26000   24.99200  
H    22.77300   16.98800   25.00300  
H    23.86300   18.26500   24.56300  
H    24.42300   16.68900   24.27300  
S    24.56500   17.13600   26.63900  
C    24.26400   15.39200   27.00600  
H    23.18000   15.25200   26.97500  
H    24.71700   14.79000   26.21400  
H    24.62700   15.10600   27.99600  
O    23.43400   17.73400   27.41600  
C    30.33000   26.52700   18.51400  
H    30.89400   26.52600   17.57700  
H    29.38900   26.00400   18.32400  
H    30.22000   27.56100   18.84800  
S    31.20300   25.61600   19.80800  
C    31.12900   23.99900   19.00500  
H    31.36900   23.30700   19.81700  
H    30.09900   23.88800   18.65900  
H    31.83200   23.99400   18.16800  
O    30.22000   25.44200   20.92300  
$end

$rem
JOBTYPE  SP
METHOD  B3LYP
BASIS  6-31+G(D)
SYMMETRY  FALSE
SYM_IGNORE  TRUE
MEM_TOTAL  16000
MEM_STATIC  8000
MAX_SUB_FILE_NUM  16000
BASIS_LIN_DEP_THRESH  6
THRESH  14
SCF_CONVERGENCE  8
GEN_SCFMAN  TRUE
SCF_GUESS  FRAGMO
FD_MAT_VEC_PROD  FALSE
XC_GRID  000075000302
NL_GRID  1
MAX_SCF_CYCLES  200
FRGM_METHOD  STOLL
SCFMI_MODE  1
$end

$development
almo_efield  1
$end

$rem_frgm
SCF_CONVERGENCE  4
$end

--------------------------------------------------------------
 ----------------------------------------------------------------
             Standard Nuclear Orientation (Angstroms)
    I     Atom           X                Y                Z
 ----------------------------------------------------------------
    1      C      28.5490000000    19.2280000000    26.4180000000
    2      C      27.4490000000    20.2360000000    26.0460000000
    3      C      28.0650000000    21.6430000000    26.1210000000
    4      C      29.4580000000    21.8630000000    25.5110000000
    5      C      30.4450000000    20.7520000000    25.9040000000
    6      C      29.8690000000    19.3510000000    25.6390000000
    7      H      27.3990000000    22.3280000000    25.5810000000
    8      H      27.2360000000    19.9170000000    25.0190000000
    9      H      28.7810000000    19.4010000000    27.4760000000
   10      H      28.1910000000    18.2120000000    26.2120000000
   11      H      29.4120000000    21.8150000000    24.4160000000
   12      H      29.7810000000    22.8380000000    25.8950000000
   13      H      31.4110000000    20.9980000000    25.4470000000
   14      H      30.6210000000    20.8800000000    26.9790000000
   15      H      29.7550000000    19.1830000000    24.5610000000
   16      H      30.5230000000    18.5520000000    26.0080000000
   17      H      28.1100000000    21.9210000000    27.1820000000
   18      N      26.2100000000    20.2460000000    26.8220000000
   19      H      26.2860000000    20.1340000000    27.8260000000
   20      C      24.9420000000    20.4230000000    26.3090000000
   21      H      24.2120000000    20.2040000000    27.1090000000
   22      O      24.5730000000    20.6700000000    25.1750000000
   23      C      27.3880000000    18.3060000000    21.2540000000
   24      H      27.5940000000    18.0270000000    20.2180000000
   25      H      28.1170000000    19.0640000000    21.5530000000
   26      H      27.6370000000    17.4130000000    21.8320000000
   27      S      25.7210000000    18.9440000000    21.5390000000
   28      C      24.9110000000    17.4210000000    21.0020000000
   29      H      25.2110000000    17.0450000000    20.0200000000
   30      H      25.0780000000    16.7740000000    21.8680000000
   31      H      23.8340000000    17.6050000000    20.9620000000
   32      O      25.6320000000    19.8660000000    20.3630000000
   33      C      31.3960000000    21.4010000000    32.2740000000
   34      H      31.9360000000    21.1550000000    31.3570000000
   35      H      30.5530000000    22.0480000000    32.0200000000
   36      H      31.9750000000    22.0840000000    32.9010000000
   37      S      30.8930000000    19.7980000000    32.9380000000
   38      C      30.0090000000    20.7100000000    34.2240000000
   39      H      29.7730000000    20.0300000000    35.0470000000
   40      H      30.6210000000    21.4710000000    34.7150000000
   41      H      29.1660000000    21.3000000000    33.8540000000
   42      O      32.0850000000    19.4440000000    33.7710000000
   43      C      33.0720000000    24.1300000000    31.0220000000
   44      H      33.8480000000    23.4860000000    30.6010000000
   45      H      32.7680000000    23.8360000000    32.0290000000
   46      H      32.1530000000    24.1100000000    30.4300000000
   47      S      33.7570000000    25.8000000000    30.9340000000
   48      C      32.2310000000    26.7630000000    31.0150000000
   49      H      32.3970000000    27.7870000000    30.6710000000
   50      H      31.4640000000    26.2600000000    30.4210000000
   51      H      32.1050000000    26.9320000000    32.0880000000
   52      O      34.1860000000    25.9230000000    29.5050000000
   53      C      34.2290000000    23.0850000000    27.6380000000
   54      H      35.1360000000    22.7930000000    28.1740000000
   55      H      34.3450000000    24.1360000000    27.3620000000
   56      H      33.2930000000    22.8850000000    28.1660000000
   57      S      34.2940000000    22.0290000000    26.1740000000
   58      C      35.4350000000    20.8050000000    26.8550000000
   59      H      36.3610000000    21.2430000000    27.2360000000
   60      H      34.8580000000    20.1290000000    27.4920000000
   61      H      35.7370000000    20.1680000000    26.0200000000
   62      O      35.3100000000    22.6720000000    25.2830000000
   63      C      27.5100000000    15.2310000000    25.1220000000
   64      H      27.9530000000    16.2010000000    25.3580000000
   65      H      26.4310000000    15.3910000000    25.0490000000
   66      H      27.6920000000    14.5480000000    25.9570000000
   67      S      28.3990000000    14.7710000000    23.6180000000
   68      C      28.1330000000    12.9970000000    23.8350000000
   69      H      28.7700000000    12.7490000000    24.6880000000
   70      H      27.0690000000    12.7910000000    23.9720000000
   71      H      28.5330000000    12.5560000000    22.9180000000
   72      O      29.8350000000    15.0870000000    23.8990000000
   73      C      21.8580000000    20.9270000000    20.3930000000
   74      H      21.6520000000    21.2710000000    19.3760000000
   75      H      22.8020000000    20.3770000000    20.4220000000
   76      H      21.0360000000    20.3280000000    20.7960000000
   77      S      21.9640000000    22.4420000000    21.3710000000
   78      C      22.3300000000    21.6630000000    22.9600000000
   79      H      23.1240000000    20.9230000000    22.8370000000
   80      H      22.6910000000    22.4390000000    23.6400000000
   81      H      21.3860000000    21.2180000000    23.2870000000
   82      O      20.5380000000    22.8150000000    21.6300000000
   83      C      19.1200000000    15.7990000000    23.1050000000
   84      H      18.7570000000    16.2570000000    24.0290000000
   85      H      18.2590000000    15.4240000000    22.5460000000
   86      H      19.8780000000    15.0250000000    23.2500000000
   87      S      19.7460000000    17.1910000000    22.1380000000
   88      C      20.4870000000    16.1020000000    20.9010000000
   89      H      20.7950000000    15.1910000000    21.4220000000
   90      H      19.7730000000    15.8310000000    20.1190000000
   91      H      21.3320000000    16.6370000000    20.4620000000
   92      O      21.0030000000    17.7680000000    22.7110000000
   93      C      30.6510000000    13.3160000000    26.8520000000
   94      H      31.2380000000    14.1140000000    26.3910000000
   95      H      29.7080000000    13.2420000000    26.3050000000
   96      H      30.4930000000    13.5150000000    27.9150000000
   97      S      31.5530000000    11.7620000000    26.6620000000
   98      C      32.4010000000    12.1090000000    25.1040000000
   99      H      33.1080000000    12.9310000000    25.2410000000
  100      H      33.0750000000    11.2730000000    24.9000000000
  101      H      31.7150000000    12.2630000000    24.2680000000
  102      O      30.5420000000    10.7040000000    26.3440000000
  103      C      31.5140000000    16.0430000000    31.8940000000
  104      H      31.2620000000    15.5150000000    32.8170000000
  105      H      32.0490000000    15.3720000000    31.2180000000
  106      H      32.0920000000    16.9480000000    32.0990000000
  107      S      30.0380000000    16.4490000000    30.9330000000
  108      C      30.8080000000    17.0260000000    29.4040000000
  109      H      31.3170000000    16.2520000000    28.8230000000
  110      H      30.0100000000    17.5740000000    28.8960000000
  111      H      31.5230000000    17.8210000000    29.6300000000
  112      O      29.4140000000    17.6250000000    31.6180000000
  113      C      28.0530000000    22.6680000000    21.1950000000
  114      H      28.9650000000    22.3070000000    21.6770000000
  115      H      27.3710000000    21.8510000000    20.9470000000
  116      H      28.2420000000    23.2300000000    20.2760000000
  117      S      27.3240000000    23.7980000000    22.4020000000
  118      C      26.1970000000    22.6120000000    23.1680000000
  119      H      26.6670000000    21.6410000000    23.3440000000
  120      H      25.7530000000    23.0990000000    24.0390000000
  121      H      25.4100000000    22.4510000000    22.4260000000
  122      O      26.2840000000    24.5460000000    21.6280000000
  123      C      31.0540000000    25.5830000000    24.3750000000
  124      H      30.2910000000    26.2780000000    24.7350000000
  125      H      31.3640000000    25.8910000000    23.3730000000
  126      H      30.6880000000    24.5540000000    24.3530000000
  127      S      32.4950000000    25.8430000000    25.4340000000
  128      C      31.6600000000    25.5980000000    27.0180000000
  129      H      31.3430000000    24.5640000000    27.1800000000
  130      H      32.4420000000    25.8580000000    27.7370000000
  131      H      30.7780000000    26.2300000000    27.1450000000
  132      O      32.6850000000    27.3200000000    25.2850000000
  133      C      18.7480000000    19.5440000000    26.8700000000
  134      H      17.8880000000    20.2180000000    26.8490000000
  135      H      18.6680000000    18.6810000000    26.2050000000
  136      H      19.1130000000    19.2670000000    27.8620000000
  137      S      19.9380000000    20.5520000000    25.9560000000
  138      C      21.1200000000    19.1870000000    25.8800000000
  139      H      21.2570000000    18.9040000000    24.8330000000
  140      H      22.1190000000    19.5650000000    26.1090000000
  141      H      20.9310000000    18.3200000000    26.5170000000
  142      O      20.4340000000    21.4450000000    27.0510000000
  143      C      21.5750000000    17.4370000000    30.0330000000
  144      H      21.4900000000    18.5020000000    29.8000000000
  145      H      22.3620000000    16.9510000000    29.4500000000
  146      H      20.5670000000    17.0890000000    29.7930000000
  147      S      21.7830000000    17.0780000000    31.7910000000
  148      C      21.0170000000    15.4450000000    31.6820000000
  149      H      20.7180000000    15.1760000000    32.6980000000
  150      H      20.1200000000    15.4950000000    31.0590000000
  151      H      21.7220000000    14.7210000000    31.2660000000
  152      O      20.6390000000    17.9150000000    32.2740000000
  153      C      26.2360000000    18.1380000000    30.6370000000
  154      H      26.1100000000    17.6070000000    29.6900000000
  155      H      26.9400000000    17.6020000000    31.2780000000
  156      H      25.2490000000    18.3120000000    31.0710000000
  157      S      27.1760000000    19.6480000000    30.3140000000
  158      C      27.3680000000    20.2200000000    32.0170000000
  159      H      26.4330000000    20.3720000000    32.5620000000
  160      H      28.0500000000    19.5400000000    32.5350000000
  161      H      27.9210000000    21.1520000000    31.8760000000
  162      O      26.0580000000    20.4230000000    29.6880000000
  163      C      33.7200000000    15.8780000000    25.0610000000
  164      H      34.3710000000    15.0070000000    24.9460000000
  165      H      33.3790000000    16.0670000000    26.0820000000
  166      H      32.8320000000    15.5690000000    24.5050000000
  167      S      34.5600000000    17.3760000000    24.5000000000
  168      C      33.0990000000    18.3810000000    24.8500000000
  169      H      32.2410000000    17.8520000000    24.4280000000
  170      H      32.8350000000    18.3790000000    25.9110000000
  171      H      33.2050000000    19.3910000000    24.4460000000
  172      O      34.4480000000    17.2790000000    23.0110000000
  173      C      30.9820000000    20.1270000000    19.4310000000
  174      H      30.8930000000    19.0480000000    19.5820000000
  175      H      29.9540000000    20.4480000000    19.2470000000
  176      H      31.6120000000    20.4150000000    18.5850000000
  177      S      31.7700000000    20.7200000000    20.9450000000
  178      C      32.7390000000    19.2220000000    21.2330000000
  179      H      32.0570000000    18.3710000000    21.1670000000
  180      H      33.5920000000    19.2450000000    20.5510000000
  181      H      33.1400000000    19.2310000000    22.2500000000
  182      O      30.7280000000    20.5270000000    22.0030000000
  183      C      35.2760000000    18.2600000000    30.2370000000
  184      H      36.1650000000    18.0580000000    30.8400000000
  185      H      35.5010000000    19.1710000000    29.6750000000
  186      H      34.3950000000    18.3530000000    30.8770000000
  187      S      35.0720000000    16.9300000000    29.0310000000
  188      C      36.4940000000    17.0750000000    27.9270000000
  189      H      36.7570000000    16.1100000000    27.4870000000
  190      H      36.3410000000    17.8810000000    27.2040000000
  191      H      37.3520000000    17.2770000000    28.5730000000
  192      O      33.7940000000    17.2800000000    28.3330000000
  193      C      26.5970000000    25.2590000000    25.9800000000
  194      H      25.6620000000    25.7280000000    25.6650000000
  195      H      27.1810000000    24.8840000000    25.1360000000
  196      H      26.4370000000    24.3980000000    26.6340000000
  197      S      27.7760000000    26.3730000000    26.7770000000
  198      C      26.6040000000    27.2420000000    27.8430000000
  199      H      26.9680000000    28.1220000000    28.3800000000
  200      H      25.7960000000    27.5460000000    27.1720000000
  201      H      26.2290000000    26.3750000000    28.3930000000
  202      O      28.0180000000    27.5120000000    25.8360000000
  203      C      21.2600000000    23.1620000000    29.7830000000
  204      H      21.2230000000    24.2540000000    29.7880000000
  205      H      21.2840000000    22.8550000000    28.7350000000
  206      H      20.3860000000    22.7220000000    30.2710000000
  207      S      22.8580000000    22.7960000000    30.5430000000
  208      C      22.6960000000    20.9990000000    30.4500000000
  209      H      22.8700000000    20.6270000000    29.4370000000
  210      H      23.5320000000    20.6290000000    31.0510000000
  211      H      21.7310000000    20.6260000000    30.8020000000
  212      O      22.7630000000    23.1840000000    31.9860000000
  213      C      19.4950000000    25.1960000000    27.1930000000
  214      H      18.8190000000    25.1240000000    28.0490000000
  215      H      20.5130000000    24.9640000000    27.5170000000
  216      H      19.3380000000    26.1430000000    26.6720000000
  217      S      18.9810000000    23.9510000000    25.9880000000
  218      C      20.3310000000    24.1520000000    24.8040000000
  219      H      21.2970000000    23.9090000000    25.2530000000
  220      H      20.0600000000    23.4940000000    23.9740000000
  221      H      20.3700000000    25.1940000000    24.4770000000
  222      O      17.7520000000    24.4660000000    25.3050000000
  223      C      35.3470000000    25.3610000000    23.0920000000
  224      H      35.5210000000    26.4170000000    22.8710000000
  225      H      35.1330000000    25.2840000000    24.1610000000
  226      H      36.1290000000    24.7820000000    22.5930000000
  227      S      33.8530000000    24.9240000000    22.1750000000
  228      C      33.6430000000    23.1560000000    22.4840000000
  229      H      34.4630000000    22.5430000000    22.1020000000
  230      H      33.6720000000    22.9840000000    23.5630000000
  231      H      32.6660000000    22.9530000000    22.0380000000
  232      O      34.4510000000    24.9500000000    20.8030000000
  233      C      27.2340000000    23.5780000000    29.6920000000
  234      H      26.7730000000    24.5670000000    29.6340000000
  235      H      27.2280000000    23.0220000000    28.7510000000
  236      H      26.8350000000    23.0430000000    30.5580000000
  237      S      28.9960000000    23.8710000000    29.9630000000
  238      C      28.7900000000    25.3850000000    30.9280000000
  239      H      28.2040000000    25.0740000000    31.7960000000
  240      H      29.7420000000    25.7050000000    31.3600000000
  241      H      28.3120000000    26.1070000000    30.2610000000
  242      O      29.4650000000    24.2990000000    28.6080000000
  243      C      25.0650000000    11.5320000000    28.5660000000
  244      H      25.1660000000    11.8090000000    29.6190000000
  245      H      24.1820000000    12.0530000000    28.1890000000
  246      H      24.8860000000    10.4560000000    28.5120000000
  247      S      26.4780000000    11.9970000000    27.5400000000
  248      C      27.7220000000    11.2400000000    28.6090000000
  249      H      28.6700000000    11.6570000000    28.2580000000
  250      H      27.4850000000    11.4780000000    29.6490000000
  251      H      27.7190000000    10.1500000000    28.5320000000
  252      O      26.7960000000    13.4310000000    27.8300000000
  253      C      23.8320000000    17.2600000000    24.9920000000
  254      H      22.7730000000    16.9880000000    25.0030000000
  255      H      23.8630000000    18.2650000000    24.5630000000
  256      H      24.4230000000    16.6890000000    24.2730000000
  257      S      24.5650000000    17.1360000000    26.6390000000
  258      C      24.2640000000    15.3920000000    27.0060000000
  259      H      23.1800000000    15.2520000000    26.9750000000
  260      H      24.7170000000    14.7900000000    26.2140000000
  261      H      24.6270000000    15.1060000000    27.9960000000
  262      O      23.4340000000    17.7340000000    27.4160000000
  263      C      30.3300000000    26.5270000000    18.5140000000
  264      H      30.8940000000    26.5260000000    17.5770000000
  265      H      29.3890000000    26.0040000000    18.3240000000
  266      H      30.2200000000    27.5610000000    18.8480000000
  267      S      31.2030000000    25.6160000000    19.8080000000
  268      C      31.1290000000    23.9990000000    19.0050000000
  269      H      31.3690000000    23.3070000000    19.8170000000
  270      H      30.0990000000    23.8880000000    18.6590000000
  271      H      31.8320000000    23.9940000000    18.1680000000
  272      O      30.2200000000    25.4420000000    20.9230000000
 ----------------------------------------------------------------
 Nuclear Repulsion Energy =       41440.48877393 hartrees
 There are      560 alpha and      560 beta electrons
 Requested basis set is 6-31+G(d)
 There are 896 shells and 2497 basis functions

 Total QAlloc Memory Limit  16000 MB
 Mega-Array Size      7821 MB
 MEM_STATIC part      8000 MB
 A cutoff of  1.0D-14 yielded 151455 shell pairs
 There are   1312759 function pairs
 Smallest overlap matrix eigenvalue = 6.53E-07
 Linear dependence detected in AO basis
 Tighter screening thresholds may be required for diffuse basis sets
 Use S2THRESH > 14 and THRESH = 14 in case of SCF convergence issues
 Number of orthogonalized atomic orbitals = 2495
 Maximum deviation from orthogonality = 9.725E-11

 Scale SEOQF with 1.000000e-03/1.000000e-03/1.000000e-03

 Standard Electronic Orientation quadrupole field applied
 Nucleus-field energy     =    -0.0000001794 hartrees
Attempting to make child job directory: /local/scratch/users/ymao/r7.00_frame_0047_almo_B3LYP_dp.in20210311133740//Frg1/
Attempting to make child job directory: /local/scratch/users/ymao/r7.00_frame_0047_almo_B3LYP_dp.in20210311133740//Frg2/
Creating input file /local/scratch/users/ymao/r7.00_frame_0047_almo_B3LYP_dp.in20210311133740/Frg1.input
using default PutDataFrgm: nothing
calling putenv with: QCSCRATCH=/local/scratch/users/ymao/r7.00_frame_0047_almo_B3LYP_dp.in20210311133740/ 
Spawning Job For Fragment 0
Done Job For Fragment 0
calling putenv with: QCSCRATCH=/local/scratch/users/ymao 
calling putenv with: QCTHREADS=8 
Creating input file /local/scratch/users/ymao/r7.00_frame_0047_almo_B3LYP_dp.in20210311133740/Frg2.input
using default PutDataFrgm: nothing
calling putenv with: QCSCRATCH=/local/scratch/users/ymao/r7.00_frame_0047_almo_B3LYP_dp.in20210311133740/ 
Spawning Job For Fragment 1
Done Job For Fragment 1
calling putenv with: QCSCRATCH=/local/scratch/users/ymao 
calling putenv with: QCTHREADS=8 
 Time for running child jobs:  CPU 0.79 s  wall 19839.41 s

 -----------------------------------------------------------------------
  General SCF calculation program by
  Eric Jon Sundstrom, Paul Horn, Yuezhi Mao, Dmitri Zuev, Alec White,
  David Stuck, Shaama M.S., Shane Yost, Joonho Lee, David Small,
  Daniel Levine, Susi Lehtola, Hugh Burton, Evgeny Epifanovsky,
  Bang C. Huynh
 -----------------------------------------------------------------------
Performing Restricted Closed Shell SCFMI
Doing General SCFMI
 Exchange:     0.2000 Hartree-Fock + 0.0800 Slater + 0.7200 B88
 Correlation:  0.1900 VWN1RPA + 0.8100 LYP
 Using Euler-Maclaurin-Lebedev (75,302) quadrature formula
performing fock build before subrot guess so that all methods have access
Printing subrot_rss_gen Method Specification:
Occupied Subspace Method is 0
Virtual Subspace Method is 0
Energy prior to optimization (guess energy) = -14234.277917630207
Begin Timing: Total SCF Calculation
begin iterations for algorithm: DIIS         
the SCF tolerance is set to 1.00e-08
    1  -14234.2779176302      4.32e-05     00000 
    2  -14234.2831421840      4.42e-05     00000 
    3  -14234.2875627427      2.06e-05     00000 
    4  -14234.2883448566      9.11e-06     00000 
    5  -14234.2885406864      2.71e-06     00000 
    6  -14234.2885591577      1.71e-06     00000 
    7  -14234.2885658667      1.19e-06     00000 
    8  -14234.2885686680      7.48e-07     00000 
    9  -14234.2885698239      3.55e-07     00000 
   10  -14234.2885700666      1.96e-07     00000 
   11  -14234.2885701302      1.42e-07     00000 
   12  -14234.2885701706      8.38e-08     00000 
   13  -14234.2885701855      4.70e-08     00000 
   14  -14234.2885701909      2.23e-08     00000 
   15  -14234.2885701924      1.50e-08     00000 
   16  -14234.2885701924      9.41e-09     00000 Convergence criterion met
write pseudocanon occs and virts to disk
write pseudocanon orbital energies to disk
Timing for Total SCF: 37228.00s (wall), 295137.92s (cpu)
SCFMI Energy  -14234.2885701924
<S^2>            0.00000
 Total energy in the final basis set =   -14234.2885701924
    ==================================================
        The end of Object-Oriented SCFman: SCFMI      
    ==================================================
 
 --------------------------------------------------------------
 
                    Orbital Energies (a.u.)
 --------------------------------------------------------------
 
 Alpha MOs
 -- Occupied --
-89.0402 -89.0379 -89.0275 -89.0272 -89.0268 -89.0242 -89.0235 -89.0232
-89.0215 -89.0199 -89.0172 -89.0138 -89.0129 -89.0083 -89.0048 -88.9991
-88.9885 -88.9777 -88.9765 -88.9697 -88.9666 -88.9589 -88.9577 -88.9573
-88.9527 -19.1598 -19.1550 -19.1511 -19.1498 -19.1454 -19.1412 -19.1343
-19.1325 -19.1323 -19.1320 -19.1262 -19.1224 -19.1213 -19.1192 -19.1121
-19.1114 -19.1074 -19.0989 -19.0961 -19.0867 -19.0823 -19.0791 -19.0751
-19.0717 -19.0691 -19.0628 -14.3637 -10.2885 -10.2639 -10.2610 -10.2580
-10.2516 -10.2495 -10.2473 -10.2468 -10.2442 -10.2440 -10.2431 -10.2430
-10.2411 -10.2411 -10.2410 -10.2405 -10.2388 -10.2364 -10.2348 -10.2340
-10.2329 -10.2326 -10.2316 -10.2313 -10.2310 -10.2286 -10.2267 -10.2262
-10.2217 -10.2205 -10.2193 -10.2191 -10.2114 -10.2103 -10.2098 -10.2051
-10.2037 -10.2017 -10.1994 -10.1982 -10.1938 -10.1917 -10.1909 -10.1903
-10.1881 -10.1879 -10.1860 -10.1844 -10.1838 -10.1824 -10.1800 -10.1782
-10.1736 -10.1733 -10.1726 -10.1719 -10.1622  -8.0864  -8.0846  -8.0735
 -8.0733  -8.0731  -8.0699  -8.0697  -8.0693  -8.0676  -8.0663  -8.0626
 -8.0592  -8.0592  -8.0546  -8.0512  -8.0455  -8.0344  -8.0238  -8.0223
 -8.0159  -8.0131  -8.0054  -8.0034  -8.0034  -7.9993  -6.0507  -6.0494
 -6.0492  -6.0479  -6.0439  -6.0414  -6.0380  -6.0376  -6.0374  -6.0366
 -6.0364  -6.0361  -6.0342  -6.0340  -6.0334  -6.0331  -6.0330  -6.0322
 -6.0320  -6.0307  -6.0307  -6.0306  -6.0305  -6.0305  -6.0294  -6.0274
 -6.0271  -6.0269  -6.0268  -6.0257  -6.0250  -6.0239  -6.0234  -6.0234
 -6.0225  -6.0223  -6.0204  -6.0188  -6.0176  -6.0168  -6.0164  -6.0153
 -6.0142  -6.0122  -6.0099  -6.0090  -6.0084  -6.0030  -5.9987  -5.9974
 -5.9921  -5.9880  -5.9871  -5.9865  -5.9855  -5.9811  -5.9801  -5.9797
 -5.9791  -5.9773  -5.9763  -5.9730  -5.9705  -5.9696  -5.9686  -5.9676
 -5.9675  -5.9666  -5.9666  -5.9636  -5.9627  -5.9625  -5.9612  -5.9609
 -5.9564  -1.0658  -1.0657  -1.0569  -1.0552  -1.0529  -1.0486  -1.0472
 -1.0460  -1.0459  -1.0451  -1.0417  -1.0346  -1.0331  -1.0312  -1.0291
 -1.0240  -1.0226  -1.0110  -0.9999  -0.9966  -0.9959  -0.9916  -0.9834
 -0.9799  -0.9798  -0.9773  -0.9302  -0.8440  -0.8375  -0.8357  -0.8355
 -0.8338  -0.8315  -0.8272  -0.8263  -0.8221  -0.8184  -0.8171  -0.8145
 -0.8117  -0.8099  -0.8070  -0.8003  -0.7997  -0.7925  -0.7840  -0.7778
 -0.7770  -0.7762  -0.7675  -0.7637  -0.7629  -0.7581  -0.7572  -0.7565
 -0.7562  -0.7561  -0.7548  -0.7540  -0.7537  -0.7531  -0.7515  -0.7509
 -0.7502  -0.7483  -0.7409  -0.7395  -0.7368  -0.7341  -0.7282  -0.7244
 -0.7165  -0.7125  -0.7077  -0.7033  -0.7001  -0.6962  -0.6927  -0.6891
 -0.6823  -0.6522  -0.6521  -0.6466  -0.6427  -0.6412  -0.6410  -0.6377
 -0.6373  -0.6352  -0.6317  -0.6315  -0.6301  -0.6277  -0.6260  -0.6216
 -0.6207  -0.6190  -0.6133  -0.6009  -0.5943  -0.5928  -0.5867  -0.5853
 -0.5800  -0.5717  -0.5710  -0.5707  -0.5680  -0.5671  -0.5301  -0.5212
 -0.5169  -0.5153  -0.5147  -0.5139  -0.5099  -0.5086  -0.5065  -0.5063
 -0.5051  -0.5035  -0.5027  -0.5005  -0.5002  -0.4997  -0.4994  -0.4990
 -0.4976  -0.4961  -0.4959  -0.4954  -0.4939  -0.4931  -0.4926  -0.4919
 -0.4911  -0.4902  -0.4894  -0.4886  -0.4877  -0.4866  -0.4845  -0.4840
 -0.4829  -0.4810  -0.4799  -0.4795  -0.4790  -0.4785  -0.4782  -0.4771
 -0.4751  -0.4745  -0.4739  -0.4735  -0.4717  -0.4704  -0.4671  -0.4668
 -0.4658  -0.4634  -0.4628  -0.4623  -0.4602  -0.4596  -0.4591  -0.4590
 -0.4590  -0.4576  -0.4573  -0.4562  -0.4559  -0.4552  -0.4552  -0.4538
 -0.4530  -0.4523  -0.4518  -0.4517  -0.4511  -0.4503  -0.4501  -0.4492
 -0.4479  -0.4473  -0.4471  -0.4468  -0.4462  -0.4452  -0.4450  -0.4435
 -0.4426  -0.4406  -0.4402  -0.4387  -0.4385  -0.4383  -0.4379  -0.4375
 -0.4369  -0.4357  -0.4350  -0.4346  -0.4329  -0.4312  -0.4307  -0.4304
 -0.4293  -0.4292  -0.4284  -0.4280  -0.4279  -0.4270  -0.4262  -0.4255
 -0.4249  -0.4232  -0.4228  -0.4225  -0.4220  -0.4216  -0.4207  -0.4200
 -0.4190  -0.4181  -0.4177  -0.4169  -0.4147  -0.4144  -0.4135  -0.4105
 -0.4103  -0.4089  -0.4086  -0.4084  -0.4078  -0.4068  -0.4056  -0.4051
 -0.4045  -0.4035  -0.4031  -0.4020  -0.4008  -0.3999  -0.3990  -0.3976
 -0.3958  -0.3949  -0.3937  -0.3927  -0.3925  -0.3922  -0.3916  -0.3890
 -0.3879  -0.3873  -0.3870  -0.3866  -0.3854  -0.3853  -0.3842  -0.3836
 -0.3819  -0.3802  -0.3799  -0.3787  -0.3776  -0.3762  -0.3758  -0.3752
 -0.3749  -0.3730  -0.3719  -0.3700  -0.3676  -0.3669  -0.3651  -0.3649
 -0.3639  -0.3600  -0.3596  -0.3580  -0.3565  -0.3540  -0.3514  -0.3483
 -0.3459  -0.3420  -0.3396  -0.3345  -0.3297  -0.3280  -0.3245  -0.3240
 -0.3197  -0.3192  -0.3189  -0.3180  -0.3157  -0.3148  -0.3119  -0.3089
 -0.3039  -0.3029  -0.2975  -0.2928  -0.2896  -0.2883  -0.2845  -0.2836
 -0.2803  -0.2780  -0.2754  -0.2740  -0.2712  -0.2708  -0.2704  -0.2700
 -0.2667  -0.2659  -0.2637  -0.2627  -0.2616  -0.2602  -0.2576  -0.2569
 -0.2553  -0.2550  -0.2538  -0.2507  -0.2487  -0.2477  -0.2447  -0.2425
 -0.2412  -0.2410  -0.2405  -0.2363  -0.2334  -0.2307  -0.2299  -0.2225
 -0.2178  -0.2115  -0.2098  -0.2077  -0.1990  -0.1953  -0.1942  -0.1902
 -- Virtual --
 -0.0491  -0.0462  -0.0400  -0.0389  -0.0361  -0.0352  -0.0341  -0.0328
 -0.0311  -0.0282  -0.0277  -0.0271  -0.0247  -0.0229  -0.0224  -0.0217
 -0.0212  -0.0193  -0.0186  -0.0158  -0.0148  -0.0131  -0.0124  -0.0116
 -0.0115  -0.0097  -0.0081  -0.0073  -0.0065  -0.0064  -0.0059  -0.0055
 -0.0047  -0.0034  -0.0025  -0.0017  -0.0013   0.0004   0.0008   0.0013
  0.0018   0.0023   0.0027   0.0046   0.0053   0.0067   0.0080   0.0088
  0.0094   0.0097   0.0107   0.0114   0.0139   0.0144   0.0154   0.0160
  0.0170   0.0178   0.0189   0.0199   0.0208   0.0215   0.0228   0.0232
  0.0234   0.0250   0.0255   0.0259   0.0270   0.0275   0.0283   0.0286
  0.0298   0.0304   0.0305   0.0318   0.0326   0.0332   0.0339   0.0341
  0.0352   0.0356   0.0367   0.0369   0.0379   0.0385   0.0391   0.0400
  0.0404   0.0414   0.0420   0.0426   0.0429   0.0439   0.0441   0.0446
  0.0464   0.0466   0.0469   0.0475   0.0479   0.0484   0.0489   0.0497
  0.0501   0.0508   0.0519   0.0523   0.0529   0.0535   0.0542   0.0546
  0.0550   0.0556   0.0563   0.0572   0.0575   0.0583   0.0585   0.0602
  0.0603   0.0608   0.0618   0.0621   0.0626   0.0638   0.0643   0.0655
  0.0660   0.0666   0.0672   0.0678   0.0684   0.0691   0.0695   0.0697
  0.0705   0.0707   0.0712   0.0726   0.0730   0.0735   0.0742   0.0746
  0.0749   0.0757   0.0768   0.0778   0.0781   0.0789   0.0796   0.0801
  0.0804   0.0814   0.0820   0.0823   0.0834   0.0839   0.0847   0.0863
  0.0867   0.0873   0.0877   0.0881   0.0886   0.0900   0.0905   0.0909
  0.0915   0.0923   0.0929   0.0940   0.0951   0.0955   0.0964   0.0965
  0.0974   0.0987   0.0992   0.0999   0.1004   0.1014   0.1020   0.1030
  0.1036   0.1041   0.1049   0.1054   0.1060   0.1065   0.1067   0.1071
  0.1076   0.1087   0.1091   0.1094   0.1104   0.1112   0.1116   0.1116
  0.1129   0.1130   0.1136   0.1141   0.1149   0.1154   0.1161   0.1169
  0.1172   0.1174   0.1188   0.1195   0.1203   0.1210   0.1212   0.1224
  0.1232   0.1241   0.1245   0.1254   0.1255   0.1259   0.1273   0.1283
  0.1294   0.1296   0.1300   0.1302   0.1309   0.1322   0.1326   0.1327
  0.1342   0.1346   0.1352   0.1363   0.1363   0.1374   0.1380   0.1381
  0.1390   0.1395   0.1408   0.1415   0.1420   0.1426   0.1428   0.1435
  0.1444   0.1444   0.1459   0.1463   0.1467   0.1474   0.1488   0.1492
  0.1501   0.1504   0.1510   0.1515   0.1525   0.1533   0.1537   0.1540
  0.1550   0.1559   0.1560   0.1569   0.1571   0.1587   0.1590   0.1592
  0.1602   0.1607   0.1614   0.1625   0.1631   0.1636   0.1640   0.1650
  0.1657   0.1667   0.1672   0.1676   0.1685   0.1688   0.1691   0.1698
  0.1702   0.1706   0.1724   0.1730   0.1734   0.1744   0.1748   0.1751
  0.1760   0.1770   0.1774   0.1780   0.1788   0.1791   0.1798   0.1802
  0.1813   0.1819   0.1821   0.1830   0.1834   0.1836   0.1846   0.1853
  0.1856   0.1860   0.1869   0.1877   0.1883   0.1887   0.1889   0.1901
  0.1908   0.1912   0.1915   0.1920   0.1927   0.1933   0.1941   0.1948
  0.1949   0.1953   0.1967   0.1974   0.1975   0.1985   0.1994   0.1999
  0.2002   0.2013   0.2018   0.2025   0.2027   0.2037   0.2042   0.2048
  0.2057   0.2063   0.2071   0.2078   0.2079   0.2090   0.2094   0.2100
  0.2102   0.2111   0.2118   0.2121   0.2125   0.2139   0.2141   0.2151
  0.2161   0.2168   0.2171   0.2177   0.2186   0.2189   0.2197   0.2203
  0.2208   0.2218   0.2229   0.2239   0.2240   0.2244   0.2247   0.2258
  0.2262   0.2268   0.2282   0.2284   0.2299   0.2308   0.2311   0.2318
  0.2333   0.2336   0.2338   0.2349   0.2352   0.2357   0.2361   0.2371
  0.2376   0.2388   0.2394   0.2401   0.2405   0.2408   0.2412   0.2425
  0.2434   0.2452   0.2454   0.2460   0.2462   0.2471   0.2486   0.2490
  0.2492   0.2505   0.2509   0.2516   0.2520   0.2536   0.2544   0.2547
  0.2553   0.2568   0.2581   0.2584   0.2595   0.2606   0.2611   0.2624
  0.2626   0.2629   0.2637   0.2644   0.2652   0.2660   0.2668   0.2680
  0.2689   0.2695   0.2706   0.2715   0.2722   0.2724   0.2732   0.2738
  0.2750   0.2770   0.2775   0.2783   0.2786   0.2807   0.2813   0.2818
  0.2828   0.2838   0.2849   0.2853   0.2858   0.2870   0.2872   0.2882
  0.2890   0.2898   0.2910   0.2913   0.2919   0.2930   0.2935   0.2955
  0.2957   0.2976   0.2982   0.2992   0.2997   0.3007   0.3020   0.3028
  0.3037   0.3040   0.3056   0.3058   0.3063   0.3074   0.3081   0.3084
  0.3093   0.3110   0.3113   0.3119   0.3130   0.3141   0.3146   0.3158
  0.3160   0.3172   0.3177   0.3186   0.3203   0.3210   0.3218   0.3226
  0.3233   0.3241   0.3248   0.3255   0.3274   0.3277   0.3287   0.3293
  0.3316   0.3319   0.3324   0.3336   0.3340   0.3352   0.3363   0.3370
  0.3372   0.3381   0.3388   0.3394   0.3398   0.3414   0.3419   0.3428
  0.3435   0.3453   0.3457   0.3469   0.3472   0.3474   0.3497   0.3500
  0.3512   0.3523   0.3529   0.3550   0.3555   0.3561   0.3563   0.3572
  0.3587   0.3599   0.3600   0.3611   0.3616   0.3643   0.3647   0.3653
  0.3660   0.3663   0.3670   0.3690   0.3698   0.3703   0.3711   0.3719
  0.3724   0.3729   0.3738   0.3753   0.3772   0.3782   0.3785   0.3787
  0.3796   0.3812   0.3816   0.3830   0.3831   0.3848   0.3856   0.3863
  0.3873   0.3883   0.3889   0.3900   0.3905   0.3916   0.3922   0.3939
  0.3947   0.3955   0.3956   0.3966   0.3979   0.3985   0.3990   0.3998
  0.4011   0.4025   0.4033   0.4039   0.4057   0.4067   0.4075   0.4083
  0.4092   0.4107   0.4120   0.4124   0.4128   0.4138   0.4145   0.4150
  0.4178   0.4182   0.4206   0.4215   0.4224   0.4229   0.4238   0.4249
  0.4252   0.4260   0.4278   0.4292   0.4308   0.4315   0.4324   0.4332
  0.4346   0.4352   0.4358   0.4373   0.4385   0.4409   0.4420   0.4423
  0.4426   0.4440   0.4460   0.4473   0.4486   0.4491   0.4512   0.4524
  0.4549   0.4559   0.4564   0.4576   0.4584   0.4605   0.4621   0.4628
  0.4637   0.4651   0.4665   0.4674   0.4690   0.4703   0.4723   0.4731
  0.4746   0.4770   0.4784   0.4797   0.4813   0.4825   0.4850   0.4865
  0.4868   0.4888   0.4890   0.4901   0.4924   0.4935   0.4939   0.4965
  0.4998   0.5010   0.5019   0.5024   0.5031   0.5070   0.5099   0.5118
  0.5120   0.5148   0.5157   0.5169   0.5186   0.5189   0.5217   0.5237
  0.5244   0.5250   0.5275   0.5291   0.5314   0.5337   0.5355   0.5358
  0.5384   0.5398   0.5411   0.5431   0.5446   0.5477   0.5494   0.5504
  0.5509   0.5545   0.5565   0.5568   0.5572   0.5611   0.5613   0.5643
  0.5654   0.5674   0.5692   0.5704   0.5720   0.5738   0.5748   0.5760
  0.5772   0.5782   0.5824   0.5832   0.5852   0.5859   0.5881   0.5893
  0.5906   0.5912   0.5923   0.5934   0.5956   0.5963   0.5977   0.5992
  0.6001   0.6018   0.6038   0.6058   0.6068   0.6080   0.6084   0.6093
  0.6108   0.6120   0.6125   0.6147   0.6160   0.6170   0.6183   0.6193
  0.6203   0.6216   0.6225   0.6229   0.6252   0.6271   0.6281   0.6285
  0.6295   0.6319   0.6326   0.6346   0.6349   0.6362   0.6381   0.6390
  0.6401   0.6417   0.6436   0.6445   0.6447   0.6473   0.6482   0.6494
  0.6501   0.6518   0.6530   0.6541   0.6543   0.6563   0.6571   0.6583
  0.6601   0.6617   0.6628   0.6631   0.6635   0.6659   0.6670   0.6683
  0.6703   0.6713   0.6715   0.6723   0.6745   0.6749   0.6758   0.6786
  0.6793   0.6808   0.6820   0.6827   0.6837   0.6869   0.6876   0.6891
  0.6900   0.6910   0.6918   0.6931   0.6937   0.6957   0.6966   0.6973
  0.6985   0.7007   0.7014   0.7026   0.7035   0.7043   0.7063   0.7091
  0.7105   0.7118   0.7132   0.7147   0.7158   0.7168   0.7191   0.7199
  0.7215   0.7231   0.7240   0.7262   0.7273   0.7283   0.7291   0.7307
  0.7330   0.7347   0.7357   0.7373   0.7381   0.7400   0.7417   0.7426
  0.7438   0.7450   0.7459   0.7469   0.7494   0.7514   0.7524   0.7541
  0.7549   0.7564   0.7579   0.7591   0.7596   0.7630   0.7631   0.7663
  0.7667   0.7679   0.7699   0.7709   0.7722   0.7732   0.7754   0.7759
  0.7775   0.7796   0.7810   0.7813   0.7826   0.7846   0.7856   0.7870
  0.7884   0.7906   0.7916   0.7927   0.7957   0.7965   0.7981   0.7992
  0.8032   0.8037   0.8047   0.8053   0.8075   0.8089   0.8097   0.8122
  0.8127   0.8145   0.8181   0.8202   0.8220   0.8237   0.8254   0.8265
  0.8280   0.8295   0.8305   0.8324   0.8333   0.8349   0.8358   0.8370
  0.8389   0.8406   0.8417   0.8437   0.8453   0.8457   0.8464   0.8484
  0.8490   0.8500   0.8509   0.8533   0.8538   0.8568   0.8570   0.8574
  0.8588   0.8607   0.8635   0.8640   0.8653   0.8676   0.8697   0.8708
  0.8713   0.8736   0.8750   0.8761   0.8775   0.8792   0.8798   0.8809
  0.8819   0.8834   0.8856   0.8863   0.8871   0.8883   0.8888   0.8901
  0.8912   0.8928   0.8935   0.8951   0.8967   0.8979   0.8984   0.9003
  0.9016   0.9020   0.9028   0.9050   0.9074   0.9082   0.9087   0.9095
  0.9109   0.9138   0.9151   0.9156   0.9162   0.9182   0.9193   0.9206
  0.9211   0.9217   0.9222   0.9249   0.9256   0.9270   0.9284   0.9298
  0.9300   0.9315   0.9325   0.9331   0.9331   0.9357   0.9369   0.9378
  0.9381   0.9414   0.9417   0.9433   0.9443   0.9451   0.9460   0.9474
  0.9479   0.9491   0.9498   0.9525   0.9533   0.9554   0.9559   0.9575
  0.9578   0.9596   0.9604   0.9614   0.9637   0.9639   0.9664   0.9686
  0.9687   0.9694   0.9703   0.9722   0.9737   0.9743   0.9759   0.9764
  0.9779   0.9798   0.9802   0.9805   0.9825   0.9836   0.9839   0.9856
  0.9865   0.9878   0.9889   0.9895   0.9898   0.9917   0.9925   0.9934
  0.9939   0.9957   0.9962   0.9983   0.9991   0.9999   1.0014   1.0016
  1.0038   1.0046   1.0066   1.0072   1.0078   1.0093   1.0105   1.0125
  1.0145   1.0158   1.0167   1.0179   1.0197   1.0207   1.0215   1.0235
  1.0249   1.0261   1.0263   1.0288   1.0302   1.0306   1.0334   1.0338
  1.0357   1.0364   1.0377   1.0397   1.0399   1.0411   1.0416   1.0443
  1.0456   1.0465   1.0477   1.0497   1.0505   1.0525   1.0540   1.0559
  1.0565   1.0579   1.0592   1.0607   1.0619   1.0631   1.0651   1.0665
  1.0676   1.0693   1.0712   1.0728   1.0733   1.0736   1.0761   1.0778
  1.0784   1.0811   1.0826   1.0827   1.0846   1.0860   1.0871   1.0894
  1.0910   1.0920   1.0930   1.0934   1.0942   1.0961   1.0984   1.0990
  1.1006   1.1030   1.1045   1.1058   1.1080   1.1096   1.1102   1.1107
  1.1117   1.1140   1.1150   1.1164   1.1179   1.1192   1.1205   1.1222
  1.1234   1.1240   1.1249   1.1268   1.1276   1.1304   1.1324   1.1329
  1.1338   1.1353   1.1363   1.1382   1.1395   1.1404   1.1426   1.1445
  1.1456   1.1483   1.1490   1.1499   1.1506   1.1512   1.1532   1.1536
  1.1553   1.1558   1.1577   1.1598   1.1615   1.1628   1.1654   1.1667
  1.1686   1.1707   1.1713   1.1728   1.1755   1.1772   1.1783   1.1791
  1.1805   1.1828   1.1830   1.1854   1.1862   1.1893   1.1899   1.1914
  1.1921   1.1950   1.1956   1.1988   1.1988   1.2005   1.2024   1.2045
  1.2077   1.2078   1.2098   1.2111   1.2146   1.2149   1.2167   1.2203
  1.2217   1.2225   1.2233   1.2256   1.2275   1.2292   1.2327   1.2338
  1.2391   1.2419   1.2430   1.2443   1.2467   1.2490   1.2507   1.2522
  1.2566   1.2594   1.2617   1.2628   1.2644   1.2653   1.2668   1.2707
  1.2745   1.2762   1.2788   1.2803   1.2827   1.2847   1.2899   1.2929
  1.2936   1.2982   1.2998   1.3017   1.3025   1.3042   1.3046   1.3068
  1.3104   1.3131   1.3149   1.3160   1.3213   1.3237   1.3258   1.3290
  1.3312   1.3322   1.3340   1.3366   1.3390   1.3397   1.3421   1.3437
  1.3454   1.3473   1.3477   1.3484   1.3499   1.3530   1.3542   1.3566
  1.3588   1.3613   1.3637   1.3644   1.3661   1.3670   1.3699   1.3721
  1.3735   1.3758   1.3782   1.3803   1.3816   1.3836   1.3839   1.3856
  1.3879   1.3890   1.3898   1.3912   1.3916   1.3931   1.3939   1.3948
  1.3967   1.3981   1.3996   1.4004   1.4013   1.4036   1.4071   1.4075
  1.4095   1.4111   1.4120   1.4139   1.4159   1.4164   1.4189   1.4201
  1.4216   1.4222   1.4240   1.4254   1.4297   1.4300   1.4329   1.4352
  1.4365   1.4389   1.4403   1.4423   1.4447   1.4452   1.4470   1.4481
  1.4511   1.4522   1.4527   1.4546   1.4550   1.4561   1.4590   1.4596
  1.4606   1.4649   1.4667   1.4674   1.4703   1.4716   1.4753   1.4765
  1.4769   1.4790   1.4828   1.4850   1.4868   1.4879   1.4900   1.4919
  1.4953   1.4961   1.4993   1.5021   1.5038   1.5058   1.5076   1.5095
  1.5124   1.5139   1.5168   1.5183   1.5224   1.5234   1.5249   1.5256
  1.5316   1.5338   1.5339   1.5380   1.5403   1.5470   1.5528   1.5533
  1.5571   1.5585   1.5619   1.5664   1.5682   1.5754   1.5804   1.5821
  1.5843   1.5862   1.6013   1.6089   1.6114   1.6126   1.6171   1.6214
  1.6225   1.6246   1.6275   1.6355   1.6372   1.6423   1.6427   1.6448
  1.6453   1.6468   1.6501   1.6514   1.6531   1.6537   1.6555   1.6582
  1.6586   1.6624   1.6636   1.6642   1.6647   1.6672   1.6694   1.6707
  1.6722   1.6729   1.6761   1.6780   1.6823   1.6834   1.6876   1.6885
  1.6890   1.6905   1.6912   1.6930   1.6942   1.6963   1.6975   1.6987
  1.6997   1.7010   1.7023   1.7030   1.7052   1.7062   1.7067   1.7080
  1.7116   1.7123   1.7127   1.7150   1.7183   1.7187   1.7208   1.7218
  1.7231   1.7258   1.7267   1.7282   1.7289   1.7297   1.7308   1.7320
  1.7324   1.7335   1.7346   1.7353   1.7370   1.7373   1.7386   1.7394
  1.7416   1.7429   1.7462   1.7482   1.7495   1.7512   1.7525   1.7537
  1.7557   1.7593   1.7596   1.7663   1.7679   1.7696   1.7723   1.7727
  1.7744   1.7766   1.7782   1.7791   1.7817   1.7836   1.7861   1.7869
  1.7896   1.7946   1.7962   1.7977   1.8016   1.8029   1.8067   1.8083
  1.8112   1.8120   1.8141   1.8164   1.8178   1.8207   1.8232   1.8285
  1.8292   1.8317   1.8323   1.8371   1.8384   1.8410   1.8418   1.8425
  1.8455   1.8475   1.8491   1.8510   1.8537   1.8563   1.8588   1.8615
  1.8625   1.8643   1.8685   1.8697   1.8718   1.8745   1.8763   1.8789
  1.8817   1.8827   1.8851   1.8869   1.8881   1.8890   1.8892   1.8904
  1.8923   1.8938   1.8940   1.8950   1.8977   1.8989   1.9005   1.9033
  1.9045   1.9058   1.9066   1.9078   1.9093   1.9119   1.9124   1.9157
  1.9164   1.9170   1.9185   1.9190   1.9206   1.9212   1.9225   1.9240
  1.9270   1.9335   1.9357   1.9371   1.9382   1.9411   1.9448   1.9451
  1.9501   1.9533   1.9555   1.9583   1.9606   1.9638   1.9668   1.9713
  1.9793   1.9846   1.9880   1.9963   1.9994   2.0026   2.0134   2.0171
  2.0204   2.0265   2.0267   2.0291   2.0325   2.0354   2.0411   2.0426
  2.0470   2.0478   2.0504   2.0510   2.0544   2.0574   2.0595   2.0620
  2.0636   2.0680   2.0687   2.0701   2.0731   2.0742   2.0754   2.0767
  2.0773   2.0780   2.0801   2.0813   2.0833   2.0845   2.0847   2.0863
  2.0876   2.0899   2.0910   2.0922   2.0963   2.0980   2.0988   2.1006
  2.1034   2.1046   2.1050   2.1065   2.1102   2.1123   2.1133   2.1165
  2.1195   2.1217   2.1261   2.1292   2.1307   2.1315   2.1337   2.1395
  2.1400   2.1440   2.1468   2.1488   2.1542   2.1578   2.1603   2.1617
  2.1658   2.1682   2.1720   2.1811   2.1849   2.1873   2.1884   2.1894
  2.1922   2.1931   2.1963   2.1969   2.1988   2.1998   2.2024   2.2029
  2.2040   2.2082   2.2095   2.2115   2.2133   2.2135   2.2143   2.2155
  2.2166   2.2176   2.2190   2.2191   2.2199   2.2218   2.2224   2.2251
  2.2258   2.2286   2.2303   2.2316   2.2330   2.2348   2.2373   2.2377
  2.2388   2.2398   2.2415   2.2424   2.2431   2.2441   2.2455   2.2465
  2.2474   2.2484   2.2491   2.2499   2.2508   2.2513   2.2521   2.2535
  2.2540   2.2566   2.2579   2.2585   2.2598   2.2619   2.2628   2.2641
  2.2647   2.2652   2.2664   2.2666   2.2673   2.2688   2.2693   2.2702
  2.2719   2.2721   2.2726   2.2750   2.2755   2.2764   2.2773   2.2784
  2.2790   2.2799   2.2815   2.2824   2.2835   2.2848   2.2855   2.2866
  2.2869   2.2880   2.2888   2.2894   2.2924   2.2931   2.2951   2.2959
  2.2981   2.2983   2.3001   2.3008   2.3023   2.3034   2.3041   2.3074
  2.3103   2.3115   2.3123   2.3132   2.3147   2.3153   2.3163   2.3187
  2.3188   2.3224   2.3231   2.3248   2.3254   2.3271   2.3287   2.3296
  2.3318   2.3334   2.3359   2.3380   2.3390   2.3425   2.3428   2.3454
  2.3461   2.3481   2.3497   2.3507   2.3524   2.3543   2.3557   2.3582
  2.3624   2.3633   2.3669   2.3689   2.3715   2.3742   2.3776   2.3812
  2.3830   2.3902   2.3919   2.3959   2.4005   2.4116   2.4175   2.4364
  2.4479   2.4601   2.4722   2.5103   2.5117   2.5948   2.6872   2.7172
  2.7284   2.7492   2.7941   2.7995   2.8082   2.8119   2.8128   2.8155
  2.8179   2.8301   2.8310   2.8357   2.8364   2.8446   2.8462   2.8476
  2.8543   2.8549   2.8614   2.8637   2.8659   2.8673   2.8715   2.8722
  2.8781   2.8788   2.8853   2.8896   2.8957   2.9116   2.9206   2.9504
  3.0894   3.2780   3.9339   3.9349   3.9460   3.9480   3.9490   3.9498
  3.9525   3.9622   3.9647   3.9708   3.9715   3.9730   3.9802   3.9856
  3.9894   3.9912   3.9940   3.9988   4.0012   4.0049   4.0086   4.0138
  4.0206   4.0242   4.0381   4.1903   4.1914   4.2042   4.2108   4.2133
  4.2142   4.2194   4.2227   4.2239   4.2282   4.2291   4.2359   4.2404
  4.2486   4.2517   4.2536   4.2557   4.2568   4.2578   4.2620   4.2631
  4.2681   4.2695   4.2714   4.2753   4.2764   4.2792   4.2818   4.2862
  4.2870   4.2887   4.2921   4.2927   4.2992   4.2998   4.3022   4.3041
  4.3082   4.3088   4.3127   4.3153   4.3171   4.3192   4.3231   4.3238
  4.3252   4.3316   4.3355   4.3360   4.3393   4.3426   4.3467   4.3509
  4.3512   4.3597   4.3614   4.3640   4.3675   4.3688   4.3748   4.3784
  4.3808   4.3850   4.3899   4.4033   4.4112   4.4222   4.4254   4.4287
  4.4348   4.4586   4.4632   4.4700   4.4850   4.5020   4.5110   4.5507
  4.5815   4.6193   4.6639   4.6922   4.6972   4.7607   4.9081
 --------------------------------------------------------------
 
          Ground-State Mulliken Net Atomic Charges

     Atom                 Charge (a.u.)
  ----------------------------------------
      1 C                    -0.394313
      2 C                    -0.490426
      3 C                    -0.212413
      4 C                    -0.501709
      5 C                    -0.295849
      6 C                    -0.490289
      7 H                     0.210496
      8 H                     0.206935
      9 H                     0.192423
     10 H                     0.177794
     11 H                     0.234741
     12 H                     0.218073
     13 H                     0.203239
     14 H                     0.178056
     15 H                     0.239468
     16 H                     0.185458
     17 H                     0.182777
     18 N                    -0.346709
     19 H                     0.495544
     20 C                     0.333095
     21 H                     0.183292
     22 O                    -0.509683
     23 C                    -0.941123
     24 H                     0.263177
     25 H                     0.292165
     26 H                     0.226739
     27 S                     1.022483
     28 C                    -0.914962
     29 H                     0.254859
     30 H                     0.209353
     31 H                     0.264114
     32 O                    -0.694481
     33 C                    -0.864831
     34 H                     0.227325
     35 H                     0.234170
     36 H                     0.254322
     37 S                     1.020427
     38 C                    -0.965754
     39 H                     0.258757
     40 H                     0.263870
     41 H                     0.227995
     42 O                    -0.731117
     43 C                    -0.775574
     44 H                     0.259759
     45 H                     0.220909
     46 H                     0.258296
     47 S                     0.824024
     48 C                    -0.784829
     49 H                     0.285289
     50 H                     0.239168
     51 H                     0.233213
     52 O                    -0.682374
     53 C                    -0.906070
     54 H                     0.231547
     55 H                     0.325474
     56 H                     0.240361
     57 S                     0.985108
     58 C                    -0.916857
     59 H                     0.262408
     60 H                     0.230517
     61 H                     0.257258
     62 O                    -0.716084
     63 C                    -0.914661
     64 H                     0.255803
     65 H                     0.203862
     66 H                     0.305796
     67 S                     0.808267
     68 C                    -0.807259
     69 H                     0.251120
     70 H                     0.242414
     71 H                     0.251894
     72 O                    -0.646212
     73 C                    -0.907648
     74 H                     0.241030
     75 H                     0.250930
     76 H                     0.250196
     77 S                     1.169741
     78 C                    -1.026638
     79 H                     0.247069
     80 H                     0.270242
     81 H                     0.255153
     82 O                    -0.739871
     83 C                    -0.793118
     84 H                     0.247764
     85 H                     0.250311
     86 H                     0.235924
     87 S                     0.883831
     88 C                    -0.809538
     89 H                     0.220725
     90 H                     0.243408
     91 H                     0.258513
     92 O                    -0.712382
     93 C                    -0.878977
     94 H                     0.261723
     95 H                     0.236730
     96 H                     0.248398
     97 S                     0.930195
     98 C                    -0.838796
     99 H                     0.227377
    100 H                     0.258068
    101 H                     0.269743
    102 O                    -0.702804
    103 C                    -0.817837
    104 H                     0.263610
    105 H                     0.229115
    106 H                     0.273539
    107 S                     0.768905
    108 C                    -0.830150
    109 H                     0.262557
    110 H                     0.265374
    111 H                     0.274381
    112 O                    -0.695270
    113 C                    -1.050347
    114 H                     0.271434
    115 H                     0.272693
    116 H                     0.260637
    117 S                     1.349976
    118 C                    -1.073207
    119 H                     0.230340
    120 H                     0.247171
    121 H                     0.283790
    122 O                    -0.748617
    123 C                    -0.950963
    124 H                     0.288638
    125 H                     0.299578
    126 H                     0.234316
    127 S                     1.039779
    128 C                    -1.070757
    129 H                     0.262698
    130 H                     0.277418
    131 H                     0.268302
    132 O                    -0.695076
    133 C                    -0.932330
    134 H                     0.252374
    135 H                     0.211027
    136 H                     0.268593
    137 S                     1.193263
    138 C                    -1.125760
    139 H                     0.301146
    140 H                     0.318372
    141 H                     0.250484
    142 O                    -0.702786
    143 C                    -0.817241
    144 H                     0.277771
    145 H                     0.258556
    146 H                     0.221663
    147 S                     1.036833
    148 C                    -0.882216
    149 H                     0.254750
    150 H                     0.247642
    151 H                     0.214863
    152 O                    -0.749368
    153 C                    -0.791689
    154 H                     0.251294
    155 H                     0.265994
    156 H                     0.269909
    157 S                     0.653850
    158 C                    -0.755475
    159 H                     0.273841
    160 H                     0.283492
    161 H                     0.219869
    162 O                    -0.661147
    163 C                    -0.912876
    164 H                     0.228871
    165 H                     0.268629
    166 H                     0.297919
    167 S                     0.971265
    168 C                    -0.990276
    169 H                     0.293427
    170 H                     0.273899
    171 H                     0.260578
    172 O                    -0.723032
    173 C                    -0.804107
    174 H                     0.233874
    175 H                     0.282819
    176 H                     0.241779
    177 S                     0.517646
    178 C                    -0.543715
    179 H                     0.244383
    180 H                     0.239652
    181 H                     0.263476
    182 O                    -0.613512
    183 C                    -0.782724
    184 H                     0.246858
    185 H                     0.247121
    186 H                     0.271568
    187 S                     0.806400
    188 C                    -0.827028
    189 H                     0.269181
    190 H                     0.269294
    191 H                     0.245865
    192 O                    -0.696180
    193 C                    -0.854031
    194 H                     0.255339
    195 H                     0.261542
    196 H                     0.241522
    197 S                     1.003081
    198 C                    -0.875070
    199 H                     0.257113
    200 H                     0.264836
    201 H                     0.192188
    202 O                    -0.691879
    203 C                    -0.921991
    204 H                     0.230362
    205 H                     0.287845
    206 H                     0.254884
    207 S                     0.856342
    208 C                    -0.815268
    209 H                     0.274776
    210 H                     0.243441
    211 H                     0.260558
    212 O                    -0.703298
    213 C                    -0.783188
    214 H                     0.244362
    215 H                     0.217047
    216 H                     0.249332
    217 S                     0.764917
    218 C                    -0.787720
    219 H                     0.230611
    220 H                     0.303044
    221 H                     0.244558
    222 O                    -0.681332
    223 C                    -0.956041
    224 H                     0.262813
    225 H                     0.259810
    226 H                     0.252523
    227 S                     1.110166
    228 C                    -0.925992
    229 H                     0.255537
    230 H                     0.255086
    231 H                     0.232347
    232 O                    -0.743820
    233 C                    -0.863618
    234 H                     0.245761
    235 H                     0.285598
    236 H                     0.263208
    237 S                     0.416603
    238 C                    -0.631622
    239 H                     0.241832
    240 H                     0.236956
    241 H                     0.272335
    242 O                    -0.569174
    243 C                    -0.867037
    244 H                     0.257561
    245 H                     0.245321
    246 H                     0.247252
    247 S                     0.903191
    248 C                    -0.763826
    249 H                     0.266122
    250 H                     0.241549
    251 H                     0.249600
    252 O                    -0.723997
    253 C                    -0.929685
    254 H                     0.285330
    255 H                     0.337810
    256 H                     0.195528
    257 S                     0.733076
    258 C                    -0.769469
    259 H                     0.258950
    260 H                     0.217065
    261 H                     0.279277
    262 O                    -0.680782
    263 C                    -0.840640
    264 H                     0.230024
    265 H                     0.244926
    266 H                     0.256803
    267 S                     0.756083
    268 C                    -0.758122
    269 H                     0.238595
    270 H                     0.241503
    271 H                     0.237299
    272 O                    -0.671548
  ----------------------------------------
  Sum of atomic charges =     0.000000

 -----------------------------------------------------------------
                    Cartesian Multipole Moments
 -----------------------------------------------------------------
    Charge (ESU x 10^10)
                -0.0000
    Dipole Moment (Debye)
         X       8.6021      Y     -39.7675      Z      11.2708
       Tot      42.2195
    Quadrupole Moments (Debye-Ang)
        XX    -507.7124     XY    -856.3919     YY   -2506.6497
        XZ     637.4239     YZ    -723.8342     ZZ    -287.4016
    Octopole Moments (Debye-Ang^2)
       XXX  -61412.9421    XXY  -38883.1461    XYY  -63949.4576
       YYY -104795.6191    XXZ    1131.3794    XYZ  -11775.3440
       YYZ  -56802.9346    XZZ    3401.2672    YZZ  -28630.1873
       ZZZ  -46477.7771
    Hexadecapole Moments (Debye-Ang^3)
      XXXX ************   XXXY ************   XXYY ************
      XYYY ************   YYYY ************   XXXZ ************
      XXYZ -662140.1821   XYYZ ************   YYYZ ************
      XXZZ -291153.6176   XYZZ -521439.9780   YYZZ ************
      XZZZ -908204.9310   YZZZ ************   ZZZZ ************
 -----------------------------------------------------------------
Archival summary:
[...]
    2  -0.0058103   0.0014084   0.0313644  -0.0306696   0.0064264  -0.0807635
    3   0.0434494  -0.0082528   0.0004099  -0.0090589  -0.0232707  -0.0217792
          103         104         105         106         107         108
    1   0.0074751  -0.0091087   0.0278225   0.0166424  -0.0307367   0.0058893
    2   0.0008988  -0.0116388  -0.0223571   0.0255802  -0.0532030   0.0084152
    3   0.0039152   0.0264308  -0.0119650   0.0113834  -0.0114753  -0.0063219
          109         110         111         112         113         114
    1   0.0126070  -0.0241826   0.0275142  -0.0460176   0.0052058   0.0342879
    2  -0.0183162   0.0095833   0.0196957   0.0849205  -0.0058017  -0.0187047
    3  -0.0195767  -0.0243451   0.0039045   0.0509869  -0.0046167   0.0055443
          115         116         117         118         119         120
    1  -0.0202713   0.0095439   0.0379874   0.0012607   0.0222128  -0.0078529
    2  -0.0226140   0.0209686   0.0224632   0.0005515  -0.0274558   0.0123542
    3  -0.0093237  -0.0194867   0.0322909  -0.0039636   0.0156924   0.0291996
          121         122         123         124         125         126
    1  -0.0179084  -0.0749549  -0.0077156  -0.0246144   0.0001942  -0.0126489
    2   0.0053666   0.0578104   0.0039941   0.0222849   0.0071671  -0.0319730
    3  -0.0284900  -0.0574695  -0.0067171   0.0048971  -0.0302548  -0.0015684
          127         128         129         130         131         132
    1   0.0358430  -0.0039853  -0.0136131   0.0175796  -0.0226179   0.0148591
    2  -0.0383267   0.0001808  -0.0305895   0.0085937   0.0202375   0.1089359
    3  -0.0080345   0.0078135   0.0057068   0.0282263  -0.0000371  -0.0120855
          133         134         135         136         137         138
    1  -0.0045146  -0.0362244  -0.0217691   0.0117624  -0.0197739   0.0091175
    2  -0.0003816   0.0059228  -0.0323878  -0.0003651   0.0125446  -0.0064142
    3   0.0024025   0.0118025  -0.0102587   0.0289221  -0.0442703   0.0005451
          139         140         141         142         143         144
    1  -0.0078754   0.0238370  -0.0037936   0.0330444   0.0010090   0.0130740
    2  -0.0196410   0.0113532  -0.0215259   0.0660601   0.0018341   0.0313973
    3  -0.0314725   0.0263272   0.0236805   0.0814380  -0.0107195   0.0019981
          145         146         147         148         149         150
    1   0.0206639  -0.0266263   0.0462263  -0.0045305  -0.0086167  -0.0265430
    2  -0.0042071  -0.0132433   0.0031641  -0.0042472  -0.0100636   0.0040996
    3  -0.0294836  -0.0099762   0.0154767  -0.0001440   0.0290081  -0.0139194
          151         152         153         154         155         156
    1   0.0196099  -0.0834890  -0.0009792  -0.0035037   0.0114223  -0.0244684
    2  -0.0265450   0.0640931  -0.0063251  -0.0102311  -0.0301889   0.0144089
    3  -0.0103813   0.0362532   0.0013033  -0.0277484   0.0207600   0.0114433
          157         158         159         160         161         162
    1   0.0446368   0.0009345  -0.0291423   0.0142889   0.0104137  -0.0816866
    2  -0.0120325   0.0005451   0.0051374  -0.0243671   0.0315253   0.0512174
    3  -0.0311406   0.0066696   0.0101894   0.0128060   0.0024514  -0.0637624
          163         164         165         166         167         168
    1  -0.0073110   0.0253236  -0.0032939  -0.0272297   0.0397857  -0.0111374
    2  -0.0063899  -0.0216819  -0.0018929   0.0080563   0.0115002   0.0036906
    3   0.0029697   0.0039148   0.0370919  -0.0290664   0.0262483   0.0025493
          169         170         171         172         173         174
    1  -0.0242142  -0.0005265  -0.0019679  -0.0074210  -0.0038361  -0.0003182
    2  -0.0087504   0.0084513   0.0291189  -0.0074395  -0.0051193  -0.0325467
    3  -0.0263577   0.0371546  -0.0097237  -0.1104165  -0.0051112  -0.0065534
          175         176         177         178         179         180
    1  -0.0267438   0.0167324   0.0313009   0.0052108  -0.0129454   0.0274160
    2   0.0218309   0.0014678   0.0446102  -0.0066755  -0.0279749  -0.0141397
    3   0.0035363  -0.0290809  -0.0052864   0.0044112  -0.0014710  -0.0198717
          181         182         183         184         185         186
    1   0.0113191  -0.0754598   0.0032720   0.0236492  -0.0016804  -0.0253386
    2  -0.0009409  -0.0130894   0.0090847  -0.0059312   0.0328555   0.0022541
    3   0.0247288   0.0811355   0.0044865   0.0242788  -0.0107424   0.0151801
          187         188         189         190         191         192
    1   0.0037438   0.0070848  -0.0027449  -0.0012973   0.0305243  -0.0960681
    2  -0.0570263   0.0041153  -0.0271107   0.0193592   0.0138430   0.0239211
    3   0.0320277  -0.0067582  -0.0194559  -0.0245997   0.0153666  -0.0484851
          193         194         195         196         197         198
    1  -0.0017461  -0.0235992   0.0122033  -0.0086707   0.0433734  -0.0067027
    2  -0.0032758   0.0165218  -0.0087234  -0.0272657  -0.0250581   0.0000603
    3  -0.0033948  -0.0127012  -0.0307378   0.0200938   0.0274742  -0.0009897
          199         200         201         202         203         204
    1   0.0174609  -0.0199810  -0.0250165   0.0197957  -0.0060981  -0.0101763
    2   0.0183492   0.0152307  -0.0108093   0.0854194   0.0008205   0.0318399
    3   0.0156637  -0.0190936   0.0384074  -0.0679821  -0.0053149   0.0042203
          205         206         207         208         209         210
    1  -0.0034011  -0.0211826   0.0422633   0.0023181   0.0097923   0.0220039
    2  -0.0170238  -0.0123567   0.0161558  -0.0098949  -0.0084596  -0.0157625
    3  -0.0311693   0.0192744  -0.0364656  -0.0004202  -0.0337091   0.0157420
          211         212         213         214         215         216
    1  -0.0252146  -0.0047593  -0.0006425  -0.0199073   0.0304751   0.0002029
    2  -0.0073599   0.0299625   0.0051098   0.0004426   0.0017012   0.0334876
    3   0.0180142   0.1056486   0.0019932   0.0247044   0.0098485  -0.0092293
          217         218         219         220         221         222
    1   0.0007284   0.0019849   0.0259256  -0.0017655  -0.0036940  -0.0925053
    2  -0.0590111   0.0023554  -0.0121169  -0.0118528   0.0306377   0.0345073
    3   0.0253991  -0.0075370   0.0134583  -0.0315856  -0.0167683  -0.0497837
          223         224         225         226         227         228
    1   0.0056081   0.0041998   0.0094290   0.0259925  -0.0437220   0.0005773
    2   0.0006270   0.0309013  -0.0116959  -0.0192934   0.0294472  -0.0063015
    3   0.0050612  -0.0076324   0.0338481  -0.0033319   0.0168001   0.0047181
          229         230         231         232         233         234
    1   0.0238617  -0.0032627  -0.0242803   0.0445684  -0.0073978  -0.0221635
    2  -0.0108096  -0.0065764  -0.0145191   0.0035553  -0.0043048   0.0209485
    3  -0.0209663   0.0326114  -0.0072715  -0.1006090  -0.0016511  -0.0084813
          235         236         237         238         239         240
    1  -0.0132070  -0.0230326   0.0211534  -0.0010873  -0.0279611   0.0248059
    2  -0.0239279  -0.0237191  -0.0417696   0.0050705   0.0018724   0.0148120
    3  -0.0236620   0.0137659   0.0286144   0.0021320   0.0262777   0.0048641
          241         242         243         244         245         246
    1  -0.0109838   0.0345983  -0.0067007   0.0087509  -0.0274607  -0.0067411
    2   0.0263820   0.0296906  -0.0006415   0.0120186   0.0135147  -0.0333920
    3  -0.0122077  -0.1010745   0.0064098   0.0296789  -0.0111703  -0.0025604
          247         248         249         250         251         252
    1  -0.0004163   0.0080779   0.0281548   0.0000785   0.0079593   0.0252309
    2  -0.0236880  -0.0041833   0.0047100   0.0156513  -0.0335428   0.1052090
    3  -0.0489478   0.0049487  -0.0043041   0.0294748  -0.0066028   0.0213453
          253         254         255         256         257         258
    1  -0.0057773  -0.0293133   0.0028500   0.0120092   0.0516764  -0.0028804
    2  -0.0027863  -0.0144709   0.0263643  -0.0280944   0.0164188  -0.0081289
    3  -0.0071226   0.0035556   0.0039079  -0.0251822   0.0068470   0.0012560
          259         260         261         262         263         264
    1  -0.0322179   0.0158343   0.0194893  -0.0816190  -0.0049616   0.0198079
    2  -0.0003290  -0.0274367  -0.0061717   0.0479992   0.0021993   0.0019798
    3   0.0014599  -0.0133723   0.0252976   0.0603667  -0.0039543  -0.0278506
          265         266         267         268         269         270
    1  -0.0341109  -0.0106429   0.0577398  -0.0006331   0.0083506  -0.0293923
    2  -0.0049828   0.0285312   0.0193511  -0.0033694  -0.0228682  -0.0111616
    3  -0.0003252   0.0099551   0.0088240  -0.0013278   0.0157984  -0.0080255
          271         272
    1   0.0240337  -0.0700921
    2  -0.0084071  -0.0106645
    3  -0.0222958   0.0842451
  --- DONE ESP SUMMARY ---
Archival summary:
1\1\n0094.mhg0\SP\ProcedureUnspecified\6-31+G*\252550h22\ymao\FriMar1207:00:592021FriMar1207:00:592021\0\\#,ProcedureUnspecified,6-31+G*,\\0,1\S\O,1,1.49747\C,1,1.80673,2,108.031\H,3,1.09285,1,101.663,2,-78.8498,0\H,3,1.09287,1,115.035,2,42.6929,0\H,3,1.09355,1,108.415,2,169.707,0\C,1,1.80777,2,96.8213,3,101.489,0\H,7,1.09215,1,114.069,2,-45.1406,0\H,7,1.09261,1,100.344,2,-169.008,0\H,7,1.093,1,108.115,2,75.658,0\Gh,2,1.89804,1,103.982,3,163.637,0\Gh,11,1.01308,2,161.151,1,-162.417,0\Gh,12,1.37925,11,116.857,2,-48.0617,0\Gh,13,1.10493,12,108.219,11,-11.248,0\Gh,13,1.21784,12,130.611,11,174.29,0\Gh,12,1.46198,11,117.496,2,130.631,0\Gh,16,1.09629,12,109.546,11,154.795,0\Gh,16,1.53768,12,118.838,11,40.7584,0\Gh,18,1.09675,16,109.167,12,66.5737,0\Gh,18,1.09687,16,106.336,12,-56.0496,0\Gh,18,1.53765,16,116.047,12,-175.049,0\Gh,21,1.09648,18,106.454,16,-178.654,0\Gh,21,1.09695,18,113.353,16,-62.1166,0\Gh,16,1.53777,12,107.899,11,-81.8867,0\Gh,24,1.09744,16,107.698,12,-67.2326,0\Gh,24,1.09774,16,107.174,12,51.1133,0\Gh,24,1.53654,16,118.346,12,173.508,0\Gh,27,1.09654,24,104.793,16,-166.494,0\Gh,27,1.09702,24,110.609,16,70.6728,0\Gh,27,1.53719,24,112.156,16,-45.5637,0\Gh,30,1.0966,27,107.274,24,-178.813,0\Gh,30,1.09681,27,105.621,24,-68.3922,0\H,26,2.10995,24,146.485,16,-100.935,0\C,33,1.093,26,154.602,24,-151.442,0\H,34,1.09271,33,114.356,26,127.274,0\H,34,1.09334,33,115.531,26,-104.495,0\S,34,1.80664,33,102.533,26,13.2444,0\O,37,1.49639,34,102.488,33,44.5421,0\C,37,1.80717,34,96.0154,33,152.682,0\H,39,1.09249,37,104.295,34,60.4009,0\H,39,1.093,37,106.105,34,-62.5801,0\H,39,1.09331,37,110.913,34,171.413,0\H,42,2.03839,39,129.292,37,61.9269,0\C,43,1.09276,42,117.896,39,166.248,0\H,44,1.09292,43,111.518,42,-115.719,0\H,44,1.09351,43,121.577,42,2.40643,0\S,44,1.80627,43,108.857,42,121.579,0\O,47,1.49707,44,103.951,43,67.0693,0\C,47,1.80717,44,99.803,43,-39.4596,0\H,49,1.0922,47,113.525,44,-77.1497,0\H,49,1.09277,47,104.872,44,158.762,0\H,49,1.09335,47,108.007,44,38.9588,0\H,50,2.11157,49,135.123,47,-177.541,0\C,53,1.0931,50,118.717,49,-26.5172,0\H,54,1.09225,53,111.126,50,50.6519,0\H,54,1.0926,53,99.9057,50,-63.8888,0\S,54,1.80652,53,119.412,50,172.055,0\O,57,1.49669,54,101.11,53,-36.4073,0\C,57,1.80748,54,87.132,53,59.6389,0\H,59,1.09304,57,113.394,54,-50.0408,0\H,59,1.09335,57,109.106,54,-163.532,0\H,59,1.09346,57,114.114,54,66.1871,0\H,19,2.19774,18,162.939,16,114.401,0\C,63,1.09217,19,160.146,18,-165.722,0\H,64,1.09324,63,106.545,19,34.3024,0\H,64,1.094,63,108.788,19,-81.7272,0\S,64,1.80664,63,101.913,19,158.423,0\O,67,1.49697,64,105.19,63,44.6974,0\C,67,1.80691,64,94.4485,63,155.789,0\H,69,1.09238,67,110.096,64,53.0876,0\H,69,1.09311,67,103.337,64,-70.5519,0\H,69,1.09333,67,103.971,64,174.018,0\H,71,1.93328,69,151.35,67,24.7219,0\C,73,1.09267,71,148.727,69,-120.987,0\H,74,1.09265,73,107.571,71,70.6454,0\H,74,1.09295,73,111.991,71,-167.382,0\S,74,1.80683,73,108.66,71,-46.5047,0\O,77,1.49753,74,107.034,73,-23.5366,0\C,77,1.80745,74,99.1919,73,86.0319,0\H,79,1.09234,77,113.087,74,-62.6695,0\H,79,1.09284,77,109.869,74,65.0632,0\H,79,1.09306,77,107.658,74,174.815,0\H,65,2.15783,64,135.004,63,-111.782,0\C,83,1.0931,65,124.539,64,93.9681,0\H,84,1.09255,83,112.005,65,-96.4493,0\H,84,1.09344,83,108.65,65,143.39,0\S,84,1.80744,83,108.377,65,28.13,0\O,87,1.49683,84,98.8735,83,156.616,0\C,87,1.80701,84,100.587,83,56.6812,0\H,89,1.09192,87,110.165,84,-68.1058,0\H,89,1.09317,87,114.159,84,177.915,0\H,89,1.09343,87,111.508,84,59.0215,0\H,35,2.2594,34,148.76,33,-27.3286,0\C,93,1.09308,35,145.943,34,-68.0682,0\H,94,1.09328,93,120.366,35,-75.0499,0\H,94,1.0934,93,106.009,35,161.007,0\S,94,1.80696,93,97.9265,35,53.3342,0\O,97,1.49712,94,96.3017,93,167.207,0\C,97,1.80728,94,97.6703,93,58.7494,0\H,99,1.09243,97,114.89,94,43.9101,0\H,99,1.09271,97,101.742,94,165.686,0\H,99,1.09299,97,108.493,94,-83.1906,0\H,22,2.32049,21,129.385,18,-158.739,0\C,103,1.09335,22,106.32,21,-60.7719,0\H,104,1.09274,103,100.619,22,-34.0164,0\H,104,1.09296,103,112.57,22,85.8155,0\S,104,1.8075,103,112.461,22,-147.443,0\O,107,1.49635,104,99.6849,103,165.811,0\C,107,1.80674,104,91.4371,103,62.6335,0\H,109,1.09232,107,117.03,104,62.3933,0\H,109,1.09291,107,106.963,104,-55.8646,0\H,109,1.09347,107,110.547,104,178.316,0\H,106,2.20278,104,107.369,103,-163.632,0\C,113,1.09324,106,159.855,104,93.5627,0\H,114,1.09237,113,107.109,106,167.729,0\H,114,1.09256,113,106.952,106,-65.1362,0\S,114,1.80718,113,109.761,106,51.2374,0\O,117,1.49746,114,98.8401,113,-60.8532,0\C,117,1.80687,114,95.4704,113,-166.234,0\H,119,1.09256,117,117.067,114,145.613,0\H,119,1.09314,117,104.105,114,31.8824,0\H,119,1.09342,117,108.095,114,-90.1868,0\O,66,2.35768,64,147.025,63,104.966,0\S,123,1.49719,66,112.372,64,100.936,0\C,124,1.80647,123,98.0754,66,112.71,0\H,125,1.09272,124,111.988,123,-177.297,0\H,125,1.09289,124,108.816,123,65.2639,0\H,125,1.09352,124,104.315,123,-57.04,0\C,124,1.80706,123,107.612,66,-148.933,0\H,129,1.09212,124,110.708,123,-171.199,0\H,129,1.09236,124,108.263,123,69.7619,0\H,129,1.0935,124,114.163,123,-48.8167,0\H,38,2.37409,37,145.54,34,-160.6,0\C,133,1.09357,38,115.084,37,-106.539,0\H,134,1.09246,133,107.202,38,-27.2174,0\H,134,1.09366,133,109.552,38,93.6838,0\S,134,1.80729,133,113.075,38,-152.881,0\O,137,1.49661,134,106.242,133,172.185,0\C,137,1.80709,134,97.2211,133,68.8273,0\H,139,1.09237,137,114.488,134,-69.4478,0\H,139,1.09307,137,105.791,134,54.1438,0\H,139,1.09315,137,105.693,134,169.335,0\H,25,2.38359,24,159.933,16,-24.3665,0\C,143,1.09222,25,95.2183,24,-50.3487,0\H,144,1.09303,143,116.263,25,35.3177,0\H,144,1.09355,143,108.312,25,155.416,0\S,144,1.80651,143,107.399,25,-91.7286,0\O,147,1.49672,144,96.5394,143,-82.3038,0\C,147,1.80698,144,97.144,143,172.308,0\H,149,1.09276,147,111.552,144,25.9734,0\H,149,1.09288,147,104.397,144,-95.1226,0\H,149,1.09368,147,108.038,144,143.967,0\H,14,2.40603,13,109.053,12,-155.683,0\C,153,1.09239,14,167.047,13,163.23,0\H,154,1.09233,153,108.097,14,-30.3911,0\H,154,1.09319,153,100.122,14,-147.701,0\S,154,1.80724,153,109.144,14,98.4915,0\O,157,1.49749,154,105.339,153,-34.6694,0\C,157,1.80764,154,91.7563,153,-135.974,0\H,159,1.09243,157,100.424,154,-53.848,0\H,159,1.09271,157,112.364,154,65.4934,0\H,159,1.09285,157,99.4637,154,-171.327,0\H,158,2.35509,157,178.057,154,56.2522,0\C,163,1.0923,158,147.82,157,-152.346,0\H,164,1.09264,163,106.62,158,-132.889,0\H,164,1.09344,163,109.43,158,-11.6821,0\S,164,1.80698,163,109.097,158,116.143,0\O,167,1.49727,164,107.262,163,-177.916,0\C,167,1.80668,164,95.7689,163,-67.4958,0\H,169,1.09282,167,113.709,164,-47.3904,0\H,169,1.09308,167,111.835,164,76.3815,0\H,169,1.09407,167,103.862,164,-169.973,0\H,170,2.36082,169,105.101,167,158.261,0\C,173,1.0935,170,141.066,169,102.35,0\H,174,1.09305,173,101.047,170,121.768,0\H,174,1.09337,173,112.04,170,-116.603,0\S,174,1.8063,173,114.199,170,9.78199,0\O,177,1.49753,174,96.5952,173,50.0277,0\C,177,1.80702,174,94.1339,173,152.205,0\H,179,1.09271,177,106.402,174,-160.513,0\H,179,1.09282,177,110.377,174,78.2983,0\H,179,1.09327,177,109.928,174,-43.2696,0\O,156,2.42031,154,161.452,153,151.638,0\S,183,1.4971,156,127.199,154,33.1865,0\C,184,1.80683,183,112.519,156,-65.6988,0\H,185,1.0929,184,105.281,183,-175.659,0\H,185,1.09301,184,112.104,183,-53.9026,0\H,185,1.0933,184,104.159,183,70.4425,0\C,184,1.80698,183,98.6255,156,-162.085,0\H,189,1.09223,184,107.29,183,-39.4362,0\H,189,1.09305,184,111.796,183,-159.909,0\H,189,1.09372,184,106.94,183,81.3995,0\H,165,2.48307,164,106.934,163,17.5183,0\C,193,1.09322,165,126.727,164,95.095,0\H,194,1.0922,193,117.338,165,129.271,0\H,194,1.09311,193,109.257,165,3.24647,0\S,194,1.80728,193,108.436,165,-113.651,0\O,197,1.49738,194,107.495,193,-165.864,0\C,197,1.80686,194,98.4983,193,-56.0002,0\H,199,1.09261,197,111.503,194,62.394,0\H,199,1.0928,197,109.197,194,-56.4584,0\H,199,1.0933,197,104.201,194,-174.913,0\O,202,2.48674,199,146.334,197,168.559,0\S,203,1.49656,202,114.478,199,53.5647,0\C,204,1.80636,203,104.29,202,135.199,0\H,205,1.09292,204,110.917,203,-160.971,0\H,205,1.09319,204,104.526,203,80.2483,0\H,205,1.09403,204,107.689,203,-38.9288,0\C,204,1.80713,203,98.5254,202,35.4058,0\H,209,1.09232,204,109.891,203,153.263,0\H,209,1.09311,204,107.93,203,-89.0529,0\H,209,1.09366,204,105.277,203,31.6795,0\H,90,2.49405,89,139.401,87,-147.113,0\C,213,1.09383,90,138.031,89,0.352875,0\H,214,1.09334,213,106.195,90,-48.5561,0\H,214,1.09348,213,117.757,90,-168.576,0\S,214,1.80665,213,101.236,90,64.2433,0\O,217,1.49699,214,105.014,213,175.845,0\C,217,1.80753,214,93.9605,213,75.9098,0\H,219,1.09249,217,114.538,214,-59.6679,0\H,219,1.09251,217,114.428,214,60.9414,0\H,219,1.09335,217,109.093,214,-177.842,0\O,9,2.49736,7,135.533,1,-24.5895,0\S,223,1.49719,9,110.082,7,-102.323,0\C,224,1.80656,223,108.3,9,103.102,0\H,225,1.09285,224,109.644,223,56.0868,0\H,225,1.09324,224,104.02,223,-52.4476,0\H,225,1.09349,224,114.962,223,178.854,0\C,224,1.80747,223,105.874,9,-150.385,0\H,229,1.09245,224,102.057,223,-165.958,0\H,229,1.0928,224,111.672,223,76.8049,0\H,229,1.09322,224,110.213,223,-47.4682,0\H,152,2.54875,149,142.342,147,122.383,0\C,233,1.09222,152,120.82,149,-29.5069,0\H,234,1.09307,233,111.313,152,163.473,0\H,234,1.09353,233,112.203,152,32.8218,0\S,234,1.80692,233,105.685,152,-78.8712,0\O,237,1.49659,234,101.546,233,61.5535,0\C,237,1.80734,234,96.4949,233,-46.2344,0\H,239,1.09216,237,107.873,234,176.961,0\H,239,1.09321,237,107.402,234,52.7078,0\H,239,1.09365,237,111.337,234,-64.282,0\H,51,2.56875,49,110.466,47,-100.319,0\C,243,1.09311,51,103.301,49,131.646,0\H,244,1.09281,243,112.883,51,-83.7248,0\H,244,1.09326,243,115.132,51,39.563,0\S,244,1.80628,243,108.382,51,153.261,0\O,247,1.49652,244,104.821,243,160.893,0\C,247,1.8066,244,96.5056,243,-102.186,0\H,249,1.09279,247,106.346,244,-169.737,0\H,249,1.09292,247,113.266,244,-54.4183,0\H,249,1.09347,247,107.769,244,80,0\H,248,2.39558,247,91.1017,244,-119.522,0\C,253,1.09301,248,138.368,247,-159.703,0\H,254,1.09275,253,103.704,248,37.4737,0\H,254,1.093,253,113.41,248,162.999,0\S,254,1.80704,253,108.644,248,-83.78,0\O,257,1.49688,254,102.718,253,153.418,0\C,257,1.80663,254,104.239,253,52.1464,0\H,259,1.09282,257,105.234,254,176.938,0\H,259,1.09293,257,108.512,254,-68.4883,0\H,259,1.09351,257,103.396,254,63.9626,0\H,252,2.46915,249,128.133,247,-139.804,0\C,263,1.0938,252,136.372,249,-151.248,0\H,264,1.09289,263,113.318,252,-88.9397,0\H,264,1.09304,263,105.668,252,150.075,0\S,264,1.80692,263,107.058,252,34.0946,0\O,267,1.49766,264,103.615,263,-69.3533,0\C,267,1.80608,264,105.07,263,47.8767,0\H,269,1.0927,267,111.392,264,152.402,0\H,269,1.09283,267,105.763,264,42.0683,0\H,269,1.09351,267,110.681,264,-78.6837,0\\\@

 Total job time:  51.02s(wall), 185.47s(cpu) 
 Fri Mar 12 07:00:59 2021

        *************************************************************
        *                                                           *
        *  Thank you very much for using Q-Chem.  Have a nice day.  *
        *                                                           *
        *************************************************************


