                  Welcome to Q-Chem
     A Quantum Leap Into The Future Of Chemistry


 Q-Chem 5.2 (devel), Q-Chem, Inc., Pleasanton, CA (2019)

 Yihan Shao,  Zhengting Gan,  E. Epifanovsky,  A. T. B. Gilbert,  M. Wormit,  
 J. Kussmann,  A. W. Lange,  A. Behn,  Jia Deng,  Xintian Feng,  D. Ghosh,  
 M. Goldey,  P. R. Horn,  L. D. Jacobson,  I. Kaliman,  T. Kus,  A. Landau,  
 Jie Liu,  E. I. Proynov,  R. M. Richard,  R. P. Steele,  E. J. Sundstrom,  
 H. L. Woodcock III,  P. M. Zimmerman,  D. Zuev,  B. Alam,  B. Albrecht,  
 E. Alguire,  S. A. Baeppler,  D. Barton,  Z. Benda,  Y. A. Bernard,  
 E. J. Berquist,  K. B. Bravaya,  H. Burton,  K. Carter-Fenk,  D. Casanova,  
 Chun-Min Chang,  Yunqing Chen,  A. Chien,  K. D. Closser,  M. P. Coons,  
 S. Coriani,  S. Dasgupta,  A. L. Dempwolff,  M. Diedenhofen,  Hainam Do,  
 R. G. Edgar,  Po-Tung Fang,  S. Faraji,  S. Fatehi,  Qingguo Feng,  
 J. Fosso-Tande,  J. Gayvert,  Qinghui Ge,  A. Ghysels,  G. Gidofalvi,  
 J. Gomes,  J. Gonthier,  A. Gunina,  D. Hait,  M. W. D. Hanson-Heine,  
 P. H. P. Harbach,  A. W. Hauser,  M. F. Herbst,  J. E. Herr,  
 E. G. Hohenstein,  Z. C. Holden,  Kerwin Hui,  B. C. Huynh,  T.-C. Jagau,  
 Hyunjun Ji,  B. Kaduk,  K. Khistyaev,  Jaehoon Kim,  P. Klunzinger,  K. Koh,  
 D. Kosenkov,  L. Koulias,  T. Kowalczyk,  C. M. Krauter,  A. Kunitsa,  
 Ka Un Lao,  A. Laurent,  K. V. Lawler,  Joonho Lee,  D. Lefrancois,  
 S. Lehtola,  D. S. Levine,  Yi-Pei Li,  You-Sheng Lin,  Fenglai Liu,  
 Kuan-Yu Liu,  E. Livshits,  M. Loipersberger,  A. Luenser,  P. Manohar,  
 E. Mansoor,  S. F. Manzer,  Shan-Ping Mao,  Yuezhi Mao,  N. Mardirossian,  
 A. V. Marenich,  T. Markovich,  L. A. Martinez-Martinez,  S. A. Maurer,  
 N. J. Mayhall,  S. C. McKenzie,  J.-M. Mewes,  P. Morgante,  A. F. Morrison,  
 J. W. Mullinax,  K. Nanda,  T. S. Nguyen-Beck,  R. Olivares-Amaya,  
 J. A. Parkhill,  S. K. Paul,  F. Pavosevic,  Zheng Pei,  T. M. Perrine,  
 F. Plasser,  P. Pokhilko,  S. Prager,  A. Prociuk,  E. Ramos,  B. Rana,  
 D. R. Rehn,  F. Rob,  M. Scheurer,  M. Schneider,  N. Sergueev,  
 S. M. Sharada,  S. Sharma,  D. W. Small,  T. Stauch,  C. J. Stein,  
 T. Stein,  Yu-Chuan Su,  S. P. Veccham,  Zhen Tao,  A. J. W. Thom,  
 A. Tkatchenko,  T. Tsuchimochi,  N. M. Tubman,  L. Vogt,  M. L. Vidal,  
 O. Vydrov,  M. A. Watson,  J. Wenzel,  M. de Wergifosse,  T. A. Wesolowski,  
 A. White,  J. Witte,  A. Yamada,  Jun Yang,  K. Yao,  S. Yeganeh,  
 S. R. Yost,  Zhi-Qiang You,  A. Zech,  Igor Ying Zhang,  Xing Zhang,  
 Yan Zhao,  Ying Zhu,  B. R. Brooks,  G. K. L. Chan,  C. J. Cramer,  
 M. S. Gordon,  W. J. Hehre,  A. Klamt,  M. W. Schmidt,  C. D. Sherrill,  
 D. G. Truhlar,  A. Aspuru-Guzik,  R. Baer,  A. T. Bell,  N. A. Besley,  
 Jeng-Da Chai,  A. E. DePrince, III,  R. A. DiStasio Jr.,  A. Dreuw,  
 B. D. Dunietz,  T. R. Furlani,  Chao-Ping Hsu,  Yousung Jung,  Jing Kong,  
 D. S. Lambrecht,  WanZhen Liang,  C. Ochsenfeld,  V. A. Rassolov,  
 L. V. Slipchenko,  J. E. Subotnik,  T. Van Voorhis,  J. M. Herbert,  
 A. I. Krylov,  P. M. W. Gill,  M. Head-Gordon

 Contributors to earlier versions of Q-Chem not listed above: 
 R. D. Adamson,  B. Austin,  J. Baker,  G. J. O. Beran,  K. Brandhorst,  
 S. T. Brown,  E. F. C. Byrd,  A. K. Chakraborty,  C.-L. Cheng,  
 Siu Hung Chien,  D. M. Chipman,  D. L. Crittenden,  H. Dachsel,  
 R. J. Doerksen,  A. D. Dutoi,  L. Fusti-Molnar,  W. A. Goddard III,  
 A. Golubeva-Zadorozhnaya,  S. R. Gwaltney,  G. Hawkins,  A. Heyden,  
 S. Hirata,  G. Kedziora,  F. J. Keil,  C. Kelley,  Jihan Kim,  R. A. King,  
 R. Z. Khaliullin,  P. P. Korambath,  W. Kurlancheek,  A. M. Lee,  M. S. Lee,  
 S. V. Levchenko,  Ching Yeh Lin,  D. Liotard,  R. C. Lochan,  I. Lotan,  
 P. E. Maslen,  N. Nair,  D. P. O'Neill,  D. Neuhauser,  E. Neuscamman,  
 C. M. Oana,  R. Olson,  B. Peters,  R. Peverati,  P. A. Pieniazek,  
 Y. M. Rhee,  J. Ritchie,  M. A. Rohrdanz,  E. Rosta,  N. J. Russ,  
 H. F. Schaefer III,  N. E. Schultz,  N. Shenvi,  A. C. Simmonett,  A. Sodt,  
 D. Stuck,  K. S. Thanthiriwatte,  V. Vanovschi,  Tao Wang,  A. Warshel,  
 C. F. Williams,  Q. Wu,  X. Xu,  W. Zhang

 Please cite Q-Chem as follows:
 Y. Shao et al., Mol. Phys. 113, 184-215 (2015)
 DOI: 10.1080/00268976.2014.952696

 Q-Chem 5.2.2 for Intel X86 EM64T Linux

 Parts of Q-Chem use Armadillo 9.800.1 (Horizon Scraper).
 http://arma.sourceforge.net/

 Q-Chem begins on Thu Mar 11 13:37:33 2021  

Host: n0072.mhg0
0

     Scratch files written to /local/scratch/users/ymao/r7.00_frame_0051_almo_B3LYP_dp.in20210311133731//

Checking the input file for inconsistencies... 	...done.

--------------------------------------------------------------
User input:
--------------------------------------------------------------
$molecule
0 1
--
0 1
C    26.27900   20.16000   27.31400  
C    26.24200   21.67600   27.05700  
C    27.62200   22.08000   26.51400  
C    28.03400   21.29300   25.25900  
C    27.96900   19.77400   25.48400  
C    26.60400   19.34800   26.05000  
H    27.73700   23.16600   26.41500  
H    25.53600   21.77900   26.22400  
H    27.04200   19.97000   28.08000  
H    25.34400   19.82400   27.77900  
H    27.37500   21.49300   24.40500  
H    29.03200   21.63300   24.95400  
H    28.25100   19.12500   24.64600  
H    28.66700   19.53400   26.29500  
H    25.78200   19.56400   25.35700  
H    26.66300   18.28900   26.33000  
H    28.33000   21.91900   27.33600  
N    25.91500   22.49500   28.22300  
H    26.00400   22.11400   29.15700  
C    25.48600   23.80600   28.22400  
H    25.26200   24.10200   29.26500  
O    25.36800   24.46500   27.20700  
--
0 1
C    23.99500   29.92400   24.15700  
H    23.99200   30.41200   23.18000  
H    23.30500   30.43200   24.83600  
H    24.97400   29.71800   24.59600  
S    23.23500   28.30500   23.89600  
C    21.72200   28.96400   23.16000  
H    21.01400   28.23100   22.76500  
H    21.17500   29.54400   23.90800  
H    22.14300   29.62500   22.39800  
O    22.71000   27.99900   25.26400  
C    28.79200   27.19500   31.00800  
H    27.85900   27.41600   30.48400  
H    28.98600   27.77400   31.91400  
H    29.59600   27.37600   30.29000  
S    29.10700   25.44400   31.32400  
C    29.79000   25.60700   32.98900  
H    30.25400   24.63300   33.16600  
H    30.61000   26.32300   32.89700  
H    29.07800   25.82000   33.79100  
O    30.35400   25.14500   30.55100  
C    29.49900   21.03900   32.26900  
H    28.63000   20.72900   31.68400  
H    29.59000   22.08000   31.94800  
H    30.31800   20.32100   32.18800  
S    28.90700   21.02300   33.97600  
C    30.56500   21.16700   34.68000  
H    30.40500   21.43700   35.72700  
H    30.95000   20.14800   34.58600  
H    31.02500   22.03200   34.19600  
O    28.64400   19.57000   34.22500  
C    31.54800   21.12100   29.60000  
H    31.02100   21.50200   28.72000  
H    31.52100   20.03000   29.66000  
H    31.22100   21.69800   30.46900  
S    33.25400   21.67400   29.37800  
C    32.77300   23.41300   29.28000  
H    32.29200   23.64900   28.32800  
H    32.10800   23.77400   30.06900  
H    33.75300   23.89600   29.22500  
O    33.38200   21.29000   27.93700  
C    30.54200   14.83100   27.33100  
H    31.58400   15.12000   27.17400  
H    29.94100   15.52300   27.92600  
H    30.47400   13.85100   27.81000  
S    29.79100   14.81200   25.68700  
C    30.37400   16.47600   25.29500  
H    31.46100   16.48800   25.17900  
H    29.82900   16.75000   24.38800  
H    30.11900   17.16000   26.10900  
O    28.32800   15.05000   25.90000  
C    24.38700   18.81800   30.15200  
H    23.91400   19.68800   29.69100  
H    25.06300   18.33000   29.44600  
H    23.68200   18.15800   30.66500  
S    25.51900   19.56500   31.34700  
C    24.03300   20.09400   32.22900  
H    23.56900   19.17000   32.58400  
H    24.29900   20.64500   33.13500  
H    23.39900   20.66300   31.54500  
O    26.04300   20.76300   30.61800  
C    24.91700   21.01000   22.88200  
H    25.99800   20.85100   22.86700  
H    24.69600   21.93300   23.42400  
H    24.46700   20.13700   23.36000  
S    24.51400   21.32700   21.14900  
C    22.80600   20.79200   21.39300  
H    22.76900   19.82600   21.90200  
H    22.37900   21.63300   21.94500  
H    22.33500   20.63900   20.41900  
O    25.31000   20.30600   20.39700  
C    26.60600   27.90100   27.34400  
H    26.41500   28.01400   26.27400  
H    27.20500   28.74300   27.70000  
H    27.16100   26.97800   27.53100  
S    25.00900   27.74400   28.17300  
C    24.66500   29.51100   28.02100  
H    25.56800   29.98800   28.41100  
H    24.47500   29.60200   26.94900  
H    23.74600   29.72800   28.57100  
O    25.32700   27.61300   29.63000  
C    21.27100   16.45100   29.91900  
H    22.34400   16.24000   29.89000  
H    20.67100   15.55000   29.77200  
H    20.94000   17.25100   29.25400  
S    20.80500   17.14700   31.52000  
C    19.03600   17.19400   31.15300  
H    18.49500   17.58300   32.01900  
H    18.83000   17.93500   30.37600  
H    18.61900   16.22700   30.86300  
O    21.31100   18.54600   31.35500  
C    33.10100   15.61300   31.32700  
H    32.50000   16.19600   32.02900  
H    32.68200   14.66100   30.99000  
H    34.14900   15.52900   31.62500  
S    33.02400   16.65400   29.85100  
C    33.86000   18.15000   30.42300  
H    34.82500   17.85300   30.84200  
H    33.99300   18.90700   29.64600  
H    33.25300   18.55700   31.23500  
O    31.55900   16.91400   30.01800  
C    26.04200   24.75800   24.20800  
H    26.88200   25.00100   24.86400  
H    25.17300   25.41600   24.29800  
H    25.70100   23.73400   24.38200  
S    26.64400   24.72500   22.50500  
C    26.46800   26.49100   22.16400  
H    25.44100   26.65400   21.82700  
H    26.54500   27.02400   23.11500  
H    27.24200   26.68200   21.41700  
O    25.47900   24.15600   21.75700  
C    29.47800   25.97300   26.12100  
H    28.72300   26.56300   25.59400  
H    29.17200   25.03300   26.58700  
H    29.93900   26.56700   26.91400  
S    30.88200   25.49200   25.09000  
C    30.61200   26.93900   24.04100  
H    29.57500   26.85100   23.70900  
H    30.56200   27.89800   24.56300  
H    31.23000   26.97500   23.14000  
O    30.27100   24.45800   24.19600  
C    24.97300   29.75800   32.37500  
H    24.85500   29.13200   31.48700  
H    24.02400   29.92700   32.89100  
H    25.49000   30.67600   32.08600  
S    26.22200   29.11800   33.51400  
C    25.29200   27.80900   34.34200  
H    24.32700   28.16000   34.71700  
H    25.14800   27.02200   33.59800  
H    25.86100   27.48500   35.21800  
O    26.52200   30.15200   34.55400  
C    28.18900   14.93900   30.13800  
H    27.50100   15.09800   30.97300  
H    28.03200   13.99100   29.61800  
H    29.21700   14.97400   30.50600  
S    27.83600   16.32800   29.03600  
C    28.19600   17.58200   30.28600  
H    27.77000   17.39700   31.27600  
H    29.28700   17.54900   30.34300  
H    27.85500   18.55300   29.91900  
O    26.34200   16.31900   28.95600  
C    31.99700   21.37300   24.21000  
H    32.99100   21.40000   23.75400  
H    31.27100   21.86700   23.56000  
H    31.90700   21.89500   25.16500  
S    31.47500   19.66000   24.45500  
C    33.06900   19.40400   25.26800  
H    33.84300   19.92700   24.70000  
H    32.92300   19.83200   26.26300  
H    33.25200   18.32700   25.25600  
O    31.65400   19.02900   23.11000  
C    28.97600   19.67200   19.95900  
H    29.03900   18.81500   20.63400  
H    27.99900   20.16100   19.90600  
H    29.26300   19.36900   18.94900  
S    30.18000   20.93500   20.42800  
C    29.16300   21.67700   21.72400  
H    28.23800   22.12700   21.35600  
H    29.02700   20.80000   22.36400  
H    29.73700   22.34800   22.36900  
O    30.07500   21.87600   19.26900  
C    22.18300   25.76100   29.23300  
H    21.65600   26.56500   28.71300  
H    23.26500   25.91500   29.20500  
H    21.88400   24.80400   28.79800  
S    21.68700   25.84600   30.96900  
C    22.79200   27.12700   31.60400  
H    22.44700   28.03100   31.09600  
H    22.65500   27.11900   32.68800  
H    23.83500   26.96800   31.31900  
O    22.55300   24.71400   31.42800  
C    24.34100   13.66300   28.83800  
H    23.75900   13.60900   29.76200  
H    25.13400   14.41600   28.83000  
H    23.66700   14.04900   28.06900  
S    25.00200   12.13700   28.13300  
C    25.80200   12.98300   26.75000  
H    25.14900   13.78800   26.40500  
H    26.67600   13.41900   27.24000  
H    26.03800   12.24800   25.97600  
O    23.67500   11.61200   27.68200  
C    27.45400   17.91300   22.46500  
H    28.46900   17.85600   22.86500  
H    27.30000   18.80000   21.84500  
H    26.79300   17.86400   23.33400  
S    26.96500   16.57600   21.35300  
C    27.13200   15.09100   22.37000  
H    28.19500   14.84000   22.34600  
H    26.71800   15.27800   23.36400  
H    26.67000   14.24600   21.85400  
O    28.21600   16.55900   20.53200  
C    22.65900   21.84100   28.08200  
H    21.86600   22.52400   28.39600  
H    22.99700   21.15000   28.85800  
H    23.43000   22.49800   27.67100  
S    22.18600   20.87200   26.63200  
C    21.75500   19.35200   27.50900  
H    20.72200   19.44100   27.85500  
H    21.81300   18.48200   26.85000  
H    22.48700   19.17500   28.30200  
O    23.41700   20.35500   25.95600  
C    17.91100   24.85300   30.83200  
H    17.25300   23.98600   30.73600  
H    18.74100   24.55800   31.47900  
H    17.49500   25.78500   31.22300  
S    18.68100   25.24100   29.24400  
C    17.15100   25.04600   28.30200  
H    16.82200   24.00600   28.37200  
H    16.51900   25.72800   28.87700  
H    17.41700   25.34900   27.28600  
O    19.45000   24.04300   28.78000  
C    22.66200   24.12800   25.23300  
H    23.47200   23.54400   24.78900  
H    22.84700   25.19800   25.35400  
H    22.32700   23.72400   26.19200  
S    21.22000   24.10100   24.14400  
C    20.15700   24.90900   25.36100  
H    20.32700   25.98600   25.45000  
H    19.10900   24.74400   25.09800  
H    20.27500   24.45200   26.34700  
O    20.79200   22.67600   24.31000  
C    35.36600   23.13100   25.74900  
H    35.83900   22.69800   24.86400  
H    36.23700   23.11500   26.41000  
H    34.66200   22.42300   26.19300  
S    34.68200   24.79400   25.56800  
C    34.10400   24.43600   23.89400  
H    33.43900   25.23800   23.56400  
H    35.01700   24.52800   23.30100  
H    33.59800   23.46800   23.94600  
O    35.77900   25.80200   25.41700  
C    25.84400   23.57900   32.34700  
H    26.84900   23.39500   31.96100  
H    25.13400   22.80100   32.05500  
H    25.48900   24.47300   31.82700  
S    25.75800   23.68100   34.14900  
C    24.06900   24.23900   34.46400  
H    23.51300   24.36800   33.53200  
H    23.46500   23.67800   35.18200  
H    24.32400   25.18900   34.93900  
O    26.64400   24.84500   34.46800  
C    24.27700   16.62700   24.87900  
H    24.57900   17.46500   25.51300  
H    23.38100   16.11000   25.23000  
H    25.05000   15.89000   24.65000  
S    23.83900   17.39800   23.30400  
C    22.07100   17.60000   23.62200  
H    21.83200   18.34600   24.38500  
H    21.67600   17.92200   22.65500  
H    21.69000   16.60600   23.86800  
O    23.88500   16.24700   22.34900  
C    31.76600   24.62300   20.63700  
H    32.30200   25.22000   19.89500  
H    32.10800   24.70000   21.67300  
H    31.70300   23.60000   20.25900  
S    30.08500   25.27700   20.51400  
C    29.95200   25.23300   18.71300  
H    30.80100   25.84200   18.39200  
H    30.03000   24.19700   18.37400  
H    28.96800   25.64200   18.46700  
O    30.11000   26.76600   20.66200  
$end

$rem
JOBTYPE  SP
METHOD  B3LYP
BASIS  6-31+G(D)
SYMMETRY  FALSE
SYM_IGNORE  TRUE
MEM_TOTAL  16000
MEM_STATIC  8000
MAX_SUB_FILE_NUM  16000
BASIS_LIN_DEP_THRESH  6
THRESH  14
SCF_CONVERGENCE  8
GEN_SCFMAN  TRUE
SCF_GUESS  FRAGMO
FD_MAT_VEC_PROD  FALSE
XC_GRID  000075000302
NL_GRID  1
MAX_SCF_CYCLES  200
FRGM_METHOD  STOLL
SCFMI_MODE  1
$end

$development
almo_efield  1
$end

$rem_frgm
SCF_CONVERGENCE  4
$end

--------------------------------------------------------------
 ----------------------------------------------------------------
             Standard Nuclear Orientation (Angstroms)
    I     Atom           X                Y                Z
 ----------------------------------------------------------------
    1      C      26.2790000000    20.1600000000    27.3140000000
    2      C      26.2420000000    21.6760000000    27.0570000000
    3      C      27.6220000000    22.0800000000    26.5140000000
    4      C      28.0340000000    21.2930000000    25.2590000000
    5      C      27.9690000000    19.7740000000    25.4840000000
    6      C      26.6040000000    19.3480000000    26.0500000000
    7      H      27.7370000000    23.1660000000    26.4150000000
    8      H      25.5360000000    21.7790000000    26.2240000000
    9      H      27.0420000000    19.9700000000    28.0800000000
   10      H      25.3440000000    19.8240000000    27.7790000000
   11      H      27.3750000000    21.4930000000    24.4050000000
   12      H      29.0320000000    21.6330000000    24.9540000000
   13      H      28.2510000000    19.1250000000    24.6460000000
   14      H      28.6670000000    19.5340000000    26.2950000000
   15      H      25.7820000000    19.5640000000    25.3570000000
   16      H      26.6630000000    18.2890000000    26.3300000000
   17      H      28.3300000000    21.9190000000    27.3360000000
   18      N      25.9150000000    22.4950000000    28.2230000000
   19      H      26.0040000000    22.1140000000    29.1570000000
   20      C      25.4860000000    23.8060000000    28.2240000000
   21      H      25.2620000000    24.1020000000    29.2650000000
   22      O      25.3680000000    24.4650000000    27.2070000000
   23      C      23.9950000000    29.9240000000    24.1570000000
   24      H      23.9920000000    30.4120000000    23.1800000000
   25      H      23.3050000000    30.4320000000    24.8360000000
   26      H      24.9740000000    29.7180000000    24.5960000000
   27      S      23.2350000000    28.3050000000    23.8960000000
   28      C      21.7220000000    28.9640000000    23.1600000000
   29      H      21.0140000000    28.2310000000    22.7650000000
   30      H      21.1750000000    29.5440000000    23.9080000000
   31      H      22.1430000000    29.6250000000    22.3980000000
   32      O      22.7100000000    27.9990000000    25.2640000000
   33      C      28.7920000000    27.1950000000    31.0080000000
   34      H      27.8590000000    27.4160000000    30.4840000000
   35      H      28.9860000000    27.7740000000    31.9140000000
   36      H      29.5960000000    27.3760000000    30.2900000000
   37      S      29.1070000000    25.4440000000    31.3240000000
   38      C      29.7900000000    25.6070000000    32.9890000000
   39      H      30.2540000000    24.6330000000    33.1660000000
   40      H      30.6100000000    26.3230000000    32.8970000000
   41      H      29.0780000000    25.8200000000    33.7910000000
   42      O      30.3540000000    25.1450000000    30.5510000000
   43      C      29.4990000000    21.0390000000    32.2690000000
   44      H      28.6300000000    20.7290000000    31.6840000000
   45      H      29.5900000000    22.0800000000    31.9480000000
   46      H      30.3180000000    20.3210000000    32.1880000000
   47      S      28.9070000000    21.0230000000    33.9760000000
   48      C      30.5650000000    21.1670000000    34.6800000000
   49      H      30.4050000000    21.4370000000    35.7270000000
   50      H      30.9500000000    20.1480000000    34.5860000000
   51      H      31.0250000000    22.0320000000    34.1960000000
   52      O      28.6440000000    19.5700000000    34.2250000000
   53      C      31.5480000000    21.1210000000    29.6000000000
   54      H      31.0210000000    21.5020000000    28.7200000000
   55      H      31.5210000000    20.0300000000    29.6600000000
   56      H      31.2210000000    21.6980000000    30.4690000000
   57      S      33.2540000000    21.6740000000    29.3780000000
   58      C      32.7730000000    23.4130000000    29.2800000000
   59      H      32.2920000000    23.6490000000    28.3280000000
   60      H      32.1080000000    23.7740000000    30.0690000000
   61      H      33.7530000000    23.8960000000    29.2250000000
   62      O      33.3820000000    21.2900000000    27.9370000000
   63      C      30.5420000000    14.8310000000    27.3310000000
   64      H      31.5840000000    15.1200000000    27.1740000000
   65      H      29.9410000000    15.5230000000    27.9260000000
   66      H      30.4740000000    13.8510000000    27.8100000000
   67      S      29.7910000000    14.8120000000    25.6870000000
   68      C      30.3740000000    16.4760000000    25.2950000000
   69      H      31.4610000000    16.4880000000    25.1790000000
   70      H      29.8290000000    16.7500000000    24.3880000000
   71      H      30.1190000000    17.1600000000    26.1090000000
   72      O      28.3280000000    15.0500000000    25.9000000000
   73      C      24.3870000000    18.8180000000    30.1520000000
   74      H      23.9140000000    19.6880000000    29.6910000000
   75      H      25.0630000000    18.3300000000    29.4460000000
   76      H      23.6820000000    18.1580000000    30.6650000000
   77      S      25.5190000000    19.5650000000    31.3470000000
   78      C      24.0330000000    20.0940000000    32.2290000000
   79      H      23.5690000000    19.1700000000    32.5840000000
   80      H      24.2990000000    20.6450000000    33.1350000000
   81      H      23.3990000000    20.6630000000    31.5450000000
   82      O      26.0430000000    20.7630000000    30.6180000000
   83      C      24.9170000000    21.0100000000    22.8820000000
   84      H      25.9980000000    20.8510000000    22.8670000000
   85      H      24.6960000000    21.9330000000    23.4240000000
   86      H      24.4670000000    20.1370000000    23.3600000000
   87      S      24.5140000000    21.3270000000    21.1490000000
   88      C      22.8060000000    20.7920000000    21.3930000000
   89      H      22.7690000000    19.8260000000    21.9020000000
   90      H      22.3790000000    21.6330000000    21.9450000000
   91      H      22.3350000000    20.6390000000    20.4190000000
   92      O      25.3100000000    20.3060000000    20.3970000000
   93      C      26.6060000000    27.9010000000    27.3440000000
   94      H      26.4150000000    28.0140000000    26.2740000000
   95      H      27.2050000000    28.7430000000    27.7000000000
   96      H      27.1610000000    26.9780000000    27.5310000000
   97      S      25.0090000000    27.7440000000    28.1730000000
   98      C      24.6650000000    29.5110000000    28.0210000000
   99      H      25.5680000000    29.9880000000    28.4110000000
  100      H      24.4750000000    29.6020000000    26.9490000000
  101      H      23.7460000000    29.7280000000    28.5710000000
  102      O      25.3270000000    27.6130000000    29.6300000000
  103      C      21.2710000000    16.4510000000    29.9190000000
  104      H      22.3440000000    16.2400000000    29.8900000000
  105      H      20.6710000000    15.5500000000    29.7720000000
  106      H      20.9400000000    17.2510000000    29.2540000000
  107      S      20.8050000000    17.1470000000    31.5200000000
  108      C      19.0360000000    17.1940000000    31.1530000000
  109      H      18.4950000000    17.5830000000    32.0190000000
  110      H      18.8300000000    17.9350000000    30.3760000000
  111      H      18.6190000000    16.2270000000    30.8630000000
  112      O      21.3110000000    18.5460000000    31.3550000000
  113      C      33.1010000000    15.6130000000    31.3270000000
  114      H      32.5000000000    16.1960000000    32.0290000000
  115      H      32.6820000000    14.6610000000    30.9900000000
  116      H      34.1490000000    15.5290000000    31.6250000000
  117      S      33.0240000000    16.6540000000    29.8510000000
  118      C      33.8600000000    18.1500000000    30.4230000000
  119      H      34.8250000000    17.8530000000    30.8420000000
  120      H      33.9930000000    18.9070000000    29.6460000000
  121      H      33.2530000000    18.5570000000    31.2350000000
  122      O      31.5590000000    16.9140000000    30.0180000000
  123      C      26.0420000000    24.7580000000    24.2080000000
  124      H      26.8820000000    25.0010000000    24.8640000000
  125      H      25.1730000000    25.4160000000    24.2980000000
  126      H      25.7010000000    23.7340000000    24.3820000000
  127      S      26.6440000000    24.7250000000    22.5050000000
  128      C      26.4680000000    26.4910000000    22.1640000000
  129      H      25.4410000000    26.6540000000    21.8270000000
  130      H      26.5450000000    27.0240000000    23.1150000000
  131      H      27.2420000000    26.6820000000    21.4170000000
  132      O      25.4790000000    24.1560000000    21.7570000000
  133      C      29.4780000000    25.9730000000    26.1210000000
  134      H      28.7230000000    26.5630000000    25.5940000000
  135      H      29.1720000000    25.0330000000    26.5870000000
  136      H      29.9390000000    26.5670000000    26.9140000000
  137      S      30.8820000000    25.4920000000    25.0900000000
  138      C      30.6120000000    26.9390000000    24.0410000000
  139      H      29.5750000000    26.8510000000    23.7090000000
  140      H      30.5620000000    27.8980000000    24.5630000000
  141      H      31.2300000000    26.9750000000    23.1400000000
  142      O      30.2710000000    24.4580000000    24.1960000000
  143      C      24.9730000000    29.7580000000    32.3750000000
  144      H      24.8550000000    29.1320000000    31.4870000000
  145      H      24.0240000000    29.9270000000    32.8910000000
  146      H      25.4900000000    30.6760000000    32.0860000000
  147      S      26.2220000000    29.1180000000    33.5140000000
  148      C      25.2920000000    27.8090000000    34.3420000000
  149      H      24.3270000000    28.1600000000    34.7170000000
  150      H      25.1480000000    27.0220000000    33.5980000000
  151      H      25.8610000000    27.4850000000    35.2180000000
  152      O      26.5220000000    30.1520000000    34.5540000000
  153      C      28.1890000000    14.9390000000    30.1380000000
  154      H      27.5010000000    15.0980000000    30.9730000000
  155      H      28.0320000000    13.9910000000    29.6180000000
  156      H      29.2170000000    14.9740000000    30.5060000000
  157      S      27.8360000000    16.3280000000    29.0360000000
  158      C      28.1960000000    17.5820000000    30.2860000000
  159      H      27.7700000000    17.3970000000    31.2760000000
  160      H      29.2870000000    17.5490000000    30.3430000000
  161      H      27.8550000000    18.5530000000    29.9190000000
  162      O      26.3420000000    16.3190000000    28.9560000000
  163      C      31.9970000000    21.3730000000    24.2100000000
  164      H      32.9910000000    21.4000000000    23.7540000000
  165      H      31.2710000000    21.8670000000    23.5600000000
  166      H      31.9070000000    21.8950000000    25.1650000000
  167      S      31.4750000000    19.6600000000    24.4550000000
  168      C      33.0690000000    19.4040000000    25.2680000000
  169      H      33.8430000000    19.9270000000    24.7000000000
  170      H      32.9230000000    19.8320000000    26.2630000000
  171      H      33.2520000000    18.3270000000    25.2560000000
  172      O      31.6540000000    19.0290000000    23.1100000000
  173      C      28.9760000000    19.6720000000    19.9590000000
  174      H      29.0390000000    18.8150000000    20.6340000000
  175      H      27.9990000000    20.1610000000    19.9060000000
  176      H      29.2630000000    19.3690000000    18.9490000000
  177      S      30.1800000000    20.9350000000    20.4280000000
  178      C      29.1630000000    21.6770000000    21.7240000000
  179      H      28.2380000000    22.1270000000    21.3560000000
  180      H      29.0270000000    20.8000000000    22.3640000000
  181      H      29.7370000000    22.3480000000    22.3690000000
  182      O      30.0750000000    21.8760000000    19.2690000000
  183      C      22.1830000000    25.7610000000    29.2330000000
  184      H      21.6560000000    26.5650000000    28.7130000000
  185      H      23.2650000000    25.9150000000    29.2050000000
  186      H      21.8840000000    24.8040000000    28.7980000000
  187      S      21.6870000000    25.8460000000    30.9690000000
  188      C      22.7920000000    27.1270000000    31.6040000000
  189      H      22.4470000000    28.0310000000    31.0960000000
  190      H      22.6550000000    27.1190000000    32.6880000000
  191      H      23.8350000000    26.9680000000    31.3190000000
  192      O      22.5530000000    24.7140000000    31.4280000000
  193      C      24.3410000000    13.6630000000    28.8380000000
  194      H      23.7590000000    13.6090000000    29.7620000000
  195      H      25.1340000000    14.4160000000    28.8300000000
  196      H      23.6670000000    14.0490000000    28.0690000000
  197      S      25.0020000000    12.1370000000    28.1330000000
  198      C      25.8020000000    12.9830000000    26.7500000000
  199      H      25.1490000000    13.7880000000    26.4050000000
  200      H      26.6760000000    13.4190000000    27.2400000000
  201      H      26.0380000000    12.2480000000    25.9760000000
  202      O      23.6750000000    11.6120000000    27.6820000000
  203      C      27.4540000000    17.9130000000    22.4650000000
  204      H      28.4690000000    17.8560000000    22.8650000000
  205      H      27.3000000000    18.8000000000    21.8450000000
  206      H      26.7930000000    17.8640000000    23.3340000000
  207      S      26.9650000000    16.5760000000    21.3530000000
  208      C      27.1320000000    15.0910000000    22.3700000000
  209      H      28.1950000000    14.8400000000    22.3460000000
  210      H      26.7180000000    15.2780000000    23.3640000000
  211      H      26.6700000000    14.2460000000    21.8540000000
  212      O      28.2160000000    16.5590000000    20.5320000000
  213      C      22.6590000000    21.8410000000    28.0820000000
  214      H      21.8660000000    22.5240000000    28.3960000000
  215      H      22.9970000000    21.1500000000    28.8580000000
  216      H      23.4300000000    22.4980000000    27.6710000000
  217      S      22.1860000000    20.8720000000    26.6320000000
  218      C      21.7550000000    19.3520000000    27.5090000000
  219      H      20.7220000000    19.4410000000    27.8550000000
  220      H      21.8130000000    18.4820000000    26.8500000000
  221      H      22.4870000000    19.1750000000    28.3020000000
  222      O      23.4170000000    20.3550000000    25.9560000000
  223      C      17.9110000000    24.8530000000    30.8320000000
  224      H      17.2530000000    23.9860000000    30.7360000000
  225      H      18.7410000000    24.5580000000    31.4790000000
  226      H      17.4950000000    25.7850000000    31.2230000000
  227      S      18.6810000000    25.2410000000    29.2440000000
  228      C      17.1510000000    25.0460000000    28.3020000000
  229      H      16.8220000000    24.0060000000    28.3720000000
  230      H      16.5190000000    25.7280000000    28.8770000000
  231      H      17.4170000000    25.3490000000    27.2860000000
  232      O      19.4500000000    24.0430000000    28.7800000000
  233      C      22.6620000000    24.1280000000    25.2330000000
  234      H      23.4720000000    23.5440000000    24.7890000000
  235      H      22.8470000000    25.1980000000    25.3540000000
  236      H      22.3270000000    23.7240000000    26.1920000000
  237      S      21.2200000000    24.1010000000    24.1440000000
  238      C      20.1570000000    24.9090000000    25.3610000000
  239      H      20.3270000000    25.9860000000    25.4500000000
  240      H      19.1090000000    24.7440000000    25.0980000000
  241      H      20.2750000000    24.4520000000    26.3470000000
  242      O      20.7920000000    22.6760000000    24.3100000000
  243      C      35.3660000000    23.1310000000    25.7490000000
  244      H      35.8390000000    22.6980000000    24.8640000000
  245      H      36.2370000000    23.1150000000    26.4100000000
  246      H      34.6620000000    22.4230000000    26.1930000000
  247      S      34.6820000000    24.7940000000    25.5680000000
  248      C      34.1040000000    24.4360000000    23.8940000000
  249      H      33.4390000000    25.2380000000    23.5640000000
  250      H      35.0170000000    24.5280000000    23.3010000000
  251      H      33.5980000000    23.4680000000    23.9460000000
  252      O      35.7790000000    25.8020000000    25.4170000000
  253      C      25.8440000000    23.5790000000    32.3470000000
  254      H      26.8490000000    23.3950000000    31.9610000000
  255      H      25.1340000000    22.8010000000    32.0550000000
  256      H      25.4890000000    24.4730000000    31.8270000000
  257      S      25.7580000000    23.6810000000    34.1490000000
  258      C      24.0690000000    24.2390000000    34.4640000000
  259      H      23.5130000000    24.3680000000    33.5320000000
  260      H      23.4650000000    23.6780000000    35.1820000000
  261      H      24.3240000000    25.1890000000    34.9390000000
  262      O      26.6440000000    24.8450000000    34.4680000000
  263      C      24.2770000000    16.6270000000    24.8790000000
  264      H      24.5790000000    17.4650000000    25.5130000000
  265      H      23.3810000000    16.1100000000    25.2300000000
  266      H      25.0500000000    15.8900000000    24.6500000000
  267      S      23.8390000000    17.3980000000    23.3040000000
  268      C      22.0710000000    17.6000000000    23.6220000000
  269      H      21.8320000000    18.3460000000    24.3850000000
  270      H      21.6760000000    17.9220000000    22.6550000000
  271      H      21.6900000000    16.6060000000    23.8680000000
  272      O      23.8850000000    16.2470000000    22.3490000000
  273      C      31.7660000000    24.6230000000    20.6370000000
  274      H      32.3020000000    25.2200000000    19.8950000000
  275      H      32.1080000000    24.7000000000    21.6730000000
  276      H      31.7030000000    23.6000000000    20.2590000000
  277      S      30.0850000000    25.2770000000    20.5140000000
  278      C      29.9520000000    25.2330000000    18.7130000000
  279      H      30.8010000000    25.8420000000    18.3920000000
  280      H      30.0300000000    24.1970000000    18.3740000000
  281      H      28.9680000000    25.6420000000    18.4670000000
  282      O      30.1100000000    26.7660000000    20.6620000000
 ----------------------------------------------------------------
 Nuclear Repulsion Energy =       45176.53825339 hartrees
 There are      581 alpha and      581 beta electrons
 Requested basis set is 6-31+G(d)
 There are 929 shells and 2589 basis functions

 Total QAlloc Memory Limit  16000 MB
 Mega-Array Size      7821 MB
 MEM_STATIC part      8000 MB
 A cutoff of  1.0D-14 yielded 167316 shell pairs
 There are   1448536 function pairs
 Smallest overlap matrix eigenvalue = 4.91E-07
 Linear dependence detected in AO basis
 Tighter screening thresholds may be required for diffuse basis sets
 Use S2THRESH > 14 and THRESH = 14 in case of SCF convergence issues
 Number of orthogonalized atomic orbitals = 2587
 Maximum deviation from orthogonality = 1.884E-10

 Scale SEOQF with 1.000000e-03/1.000000e-03/1.000000e-03

 Standard Electronic Orientation quadrupole field applied
 Nucleus-field energy     =    -0.0000002232 hartrees
Attempting to make child job directory: /local/scratch/users/ymao/r7.00_frame_0051_almo_B3LYP_dp.in20210311133731//Frg1/
Attempting to make child job directory: /local/scratch/users/ymao/r7.00_frame_0051_almo_B3LYP_dp.in20210311133731//Frg2/
Creating input file /local/scratch/users/ymao/r7.00_frame_0051_almo_B3LYP_dp.in20210311133731/Frg1.input
using default PutDataFrgm: nothing
calling putenv with: QCSCRATCH=/local/scratch/users/ymao/r7.00_frame_0051_almo_B3LYP_dp.in20210311133731/ 
Spawning Job For Fragment 0
Done Job For Fragment 0
calling putenv with: QCSCRATCH=/local/scratch/users/ymao 
calling putenv with: QCTHREADS=8 
Creating input file /local/scratch/users/ymao/r7.00_frame_0051_almo_B3LYP_dp.in20210311133731/Frg2.input
using default PutDataFrgm: nothing
calling putenv with: QCSCRATCH=/local/scratch/users/ymao/r7.00_frame_0051_almo_B3LYP_dp.in20210311133731/ 
Spawning Job For Fragment 1
Done Job For Fragment 1
calling putenv with: QCSCRATCH=/local/scratch/users/ymao 
calling putenv with: QCTHREADS=8 
 Time for running child jobs:  CPU 0.47 s  wall 21285.92 s

 -----------------------------------------------------------------------
  General SCF calculation program by
  Eric Jon Sundstrom, Paul Horn, Yuezhi Mao, Dmitri Zuev, Alec White,
  David Stuck, Shaama M.S., Shane Yost, Joonho Lee, David Small,
  Daniel Levine, Susi Lehtola, Hugh Burton, Evgeny Epifanovsky,
  Bang C. Huynh
 -----------------------------------------------------------------------
Performing Restricted Closed Shell SCFMI
Doing General SCFMI
 Exchange:     0.2000 Hartree-Fock + 0.0800 Slater + 0.7200 B88
 Correlation:  0.1900 VWN1RPA + 0.8100 LYP
 Using Euler-Maclaurin-Lebedev (75,302) quadrature formula
performing fock build before subrot guess so that all methods have access
Printing subrot_rss_gen Method Specification:
Occupied Subspace Method is 0
Virtual Subspace Method is 0
Energy prior to optimization (guess energy) = -14787.475876545752
Begin Timing: Total SCF Calculation
begin iterations for algorithm: DIIS         
the SCF tolerance is set to 1.00e-08
    1  -14787.4758765458      4.24e-05     00000 
    2  -14787.4776413727      6.00e-05     00000 
    3  -14787.4858616618      1.71e-05     00000 
    4  -14787.4864906744      7.34e-06     00000 
    5  -14787.4866385929      3.15e-06     00000 
    6  -14787.4866649746      1.95e-06     00000 
    7  -14787.4866737103      1.30e-06     00000 
    8  -14787.4866780946      7.09e-07     00000 
    9  -14787.4866792167      4.19e-07     00000 
   10  -14787.4866795372      2.69e-07     00000 
   11  -14787.4866796561      1.90e-07     00000 
   12  -14787.4866797277      1.13e-07     00000 
   13  -14787.4866797594      5.53e-08     00000 
   14  -14787.4866797672      3.56e-08     00000 
   15  -14787.4866797692      2.55e-08     00000 
   16  -14787.4866797705      1.48e-08     00000 
   17  -14787.4866797707      7.53e-09     00000 Convergence criterion met
write pseudocanon occs and virts to disk
write pseudocanon orbital energies to disk
Timing for Total SCF: 47882.00s (wall), 377919.42s (cpu)
SCFMI Energy  -14787.4866797707
<S^2>            0.00000
 Total energy in the final basis set =   -14787.4866797707
    ==================================================
        The end of Object-Oriented SCFman: SCFMI      
    ==================================================
 
 --------------------------------------------------------------
 
                    Orbital Energies (a.u.)
 --------------------------------------------------------------
 
 Alpha MOs
 -- Occupied --
-89.0348 -89.0286 -89.0250 -89.0232 -89.0196 -89.0171 -89.0154 -89.0146
-89.0100 -89.0047 -89.0046 -89.0024 -88.9994 -88.9988 -88.9958 -88.9946
-88.9933 -88.9904 -88.9898 -88.9835 -88.9808 -88.9779 -88.9686 -88.9561
-88.9552 -88.9529 -19.1434 -19.1430 -19.1411 -19.1390 -19.1370 -19.1354
-19.1318 -19.1302 -19.1293 -19.1226 -19.1181 -19.1175 -19.1153 -19.1146
-19.1139 -19.1135 -19.1128 -19.1075 -19.1044 -19.1012 -19.0965 -19.0911
-19.0900 -19.0872 -19.0780 -19.0725 -19.0598 -14.3601 -10.2950 -10.2582
-10.2498 -10.2488 -10.2484 -10.2454 -10.2452 -10.2448 -10.2441 -10.2375
-10.2355 -10.2326 -10.2310 -10.2291 -10.2285 -10.2246 -10.2236 -10.2233
-10.2232 -10.2224 -10.2207 -10.2200 -10.2198 -10.2195 -10.2164 -10.2157
-10.2155 -10.2147 -10.2135 -10.2134 -10.2129 -10.2121 -10.2116 -10.2109
-10.2106 -10.2105 -10.2098 -10.2081 -10.2052 -10.2048 -10.2045 -10.2028
-10.2012 -10.1989 -10.1988 -10.1954 -10.1915 -10.1836 -10.1815 -10.1806
-10.1801 -10.1796 -10.1792 -10.1768 -10.1765 -10.1752 -10.1750 -10.1722
-10.1587  -8.0814  -8.0757  -8.0716  -8.0692  -8.0662  -8.0640  -8.0619
 -8.0603  -8.0563  -8.0511  -8.0510  -8.0481  -8.0454  -8.0450  -8.0416
 -8.0403  -8.0396  -8.0363  -8.0360  -8.0298  -8.0272  -8.0241  -8.0151
 -8.0024  -8.0010  -7.9992  -6.0457  -6.0444  -6.0399  -6.0389  -6.0387
 -6.0359  -6.0345  -6.0337  -6.0330  -6.0321  -6.0304  -6.0292  -6.0291
 -6.0282  -6.0268  -6.0265  -6.0261  -6.0249  -6.0245  -6.0236  -6.0232
 -6.0217  -6.0206  -6.0197  -6.0194  -6.0181  -6.0155  -6.0152  -6.0141
 -6.0137  -6.0135  -6.0124  -6.0111  -6.0097  -6.0094  -6.0087  -6.0087
 -6.0084  -6.0082  -6.0058  -6.0055  -6.0046  -6.0046  -6.0039  -6.0034
 -6.0030  -6.0029  -6.0020  -6.0007  -6.0002  -5.9995  -5.9993  -5.9987
 -5.9978  -5.9967  -5.9941  -5.9938  -5.9934  -5.9930  -5.9915  -5.9902
 -5.9883  -5.9873  -5.9871  -5.9849  -5.9815  -5.9795  -5.9780  -5.9724
 -5.9670  -5.9654  -5.9653  -5.9640  -5.9634  -5.9625  -5.9598  -5.9581
 -5.9562  -1.0583  -1.0553  -1.0536  -1.0506  -1.0504  -1.0458  -1.0449
 -1.0403  -1.0400  -1.0365  -1.0354  -1.0291  -1.0287  -1.0248  -1.0240
 -1.0196  -1.0176  -1.0173  -1.0152  -1.0139  -1.0095  -1.0023  -1.0007
 -1.0002  -0.9835  -0.9825  -0.9761  -0.9226  -0.8380  -0.8337  -0.8327
 -0.8267  -0.8234  -0.8221  -0.8147  -0.8143  -0.8138  -0.8104  -0.8075
 -0.8061  -0.8034  -0.8031  -0.8015  -0.7994  -0.7981  -0.7966  -0.7963
 -0.7934  -0.7896  -0.7827  -0.7824  -0.7754  -0.7678  -0.7628  -0.7625
 -0.7603  -0.7553  -0.7532  -0.7519  -0.7470  -0.7433  -0.7408  -0.7407
 -0.7380  -0.7375  -0.7346  -0.7328  -0.7318  -0.7303  -0.7289  -0.7281
 -0.7257  -0.7221  -0.7210  -0.7183  -0.7177  -0.7135  -0.7096  -0.7039
 -0.6996  -0.6968  -0.6895  -0.6819  -0.6467  -0.6413  -0.6376  -0.6363
 -0.6347  -0.6334  -0.6285  -0.6282  -0.6263  -0.6209  -0.6207  -0.6170
 -0.6158  -0.6120  -0.6112  -0.6103  -0.6097  -0.6094  -0.6071  -0.6052
 -0.6031  -0.5991  -0.5931  -0.5910  -0.5793  -0.5779  -0.5735  -0.5716
 -0.5656  -0.5621  -0.5301  -0.5235  -0.5146  -0.5136  -0.5107  -0.5084
 -0.5033  -0.5020  -0.5012  -0.4991  -0.4984  -0.4977  -0.4972  -0.4971
 -0.4944  -0.4915  -0.4905  -0.4894  -0.4888  -0.4886  -0.4879  -0.4867
 -0.4861  -0.4852  -0.4843  -0.4838  -0.4824  -0.4820  -0.4808  -0.4797
 -0.4790  -0.4788  -0.4775  -0.4769  -0.4765  -0.4762  -0.4756  -0.4752
 -0.4748  -0.4739  -0.4731  -0.4722  -0.4716  -0.4700  -0.4691  -0.4681
 -0.4678  -0.4671  -0.4669  -0.4654  -0.4650  -0.4641  -0.4637  -0.4636
 -0.4630  -0.4624  -0.4621  -0.4608  -0.4603  -0.4598  -0.4583  -0.4579
 -0.4578  -0.4569  -0.4559  -0.4551  -0.4538  -0.4527  -0.4515  -0.4509
 -0.4496  -0.4494  -0.4491  -0.4487  -0.4474  -0.4458  -0.4450  -0.4442
 -0.4427  -0.4420  -0.4410  -0.4402  -0.4400  -0.4393  -0.4388  -0.4378
 -0.4371  -0.4361  -0.4358  -0.4351  -0.4342  -0.4338  -0.4331  -0.4327
 -0.4325  -0.4313  -0.4300  -0.4299  -0.4296  -0.4290  -0.4285  -0.4283
 -0.4275  -0.4268  -0.4253  -0.4243  -0.4239  -0.4233  -0.4219  -0.4217
 -0.4214  -0.4210  -0.4206  -0.4202  -0.4192  -0.4179  -0.4172  -0.4160
 -0.4159  -0.4149  -0.4138  -0.4131  -0.4129  -0.4111  -0.4105  -0.4084
 -0.4081  -0.4081  -0.4065  -0.4060  -0.4053  -0.4048  -0.4034  -0.4032
 -0.4024  -0.4020  -0.4008  -0.4007  -0.3995  -0.3986  -0.3983  -0.3966
 -0.3964  -0.3958  -0.3950  -0.3945  -0.3929  -0.3920  -0.3915  -0.3908
 -0.3897  -0.3895  -0.3880  -0.3865  -0.3855  -0.3833  -0.3829  -0.3815
 -0.3808  -0.3806  -0.3795  -0.3781  -0.3773  -0.3766  -0.3764  -0.3753
 -0.3736  -0.3729  -0.3714  -0.3705  -0.3700  -0.3698  -0.3684  -0.3678
 -0.3624  -0.3608  -0.3595  -0.3590  -0.3585  -0.3581  -0.3562  -0.3561
 -0.3548  -0.3522  -0.3508  -0.3474  -0.3439  -0.3420  -0.3403  -0.3376
 -0.3335  -0.3263  -0.3217  -0.3199  -0.3117  -0.3094  -0.3037  -0.3027
 -0.3014  -0.3009  -0.2988  -0.2966  -0.2929  -0.2872  -0.2870  -0.2810
 -0.2806  -0.2781  -0.2770  -0.2758  -0.2755  -0.2751  -0.2744  -0.2736
 -0.2717  -0.2700  -0.2691  -0.2683  -0.2665  -0.2638  -0.2632  -0.2614
 -0.2609  -0.2604  -0.2578  -0.2571  -0.2536  -0.2531  -0.2528  -0.2504
 -0.2500  -0.2496  -0.2476  -0.2446  -0.2395  -0.2379  -0.2376  -0.2362
 -0.2352  -0.2342  -0.2338  -0.2298  -0.2261  -0.2242  -0.2214  -0.2186
 -0.2173  -0.2118  -0.1987  -0.1965  -0.1868
 -- Virtual --
 -0.0416  -0.0357  -0.0338  -0.0331  -0.0298  -0.0280  -0.0276  -0.0264
 -0.0247  -0.0235  -0.0222  -0.0204  -0.0195  -0.0185  -0.0175  -0.0156
 -0.0154  -0.0145  -0.0118  -0.0105  -0.0083  -0.0071  -0.0066  -0.0056
 -0.0051  -0.0042  -0.0037  -0.0015  -0.0005   0.0003   0.0008   0.0012
  0.0017   0.0029   0.0033   0.0046   0.0055   0.0059   0.0074   0.0082
  0.0093   0.0099   0.0108   0.0112   0.0115   0.0122   0.0136   0.0139
  0.0148   0.0151   0.0166   0.0171   0.0177   0.0184   0.0189   0.0193
  0.0199   0.0211   0.0213   0.0220   0.0227   0.0233   0.0238   0.0247
  0.0256   0.0269   0.0275   0.0279   0.0287   0.0294   0.0295   0.0307
  0.0315   0.0319   0.0321   0.0327   0.0333   0.0341   0.0344   0.0347
  0.0360   0.0370   0.0373   0.0377   0.0386   0.0390   0.0395   0.0404
  0.0413   0.0424   0.0427   0.0435   0.0446   0.0459   0.0462   0.0472
  0.0474   0.0486   0.0492   0.0505   0.0506   0.0512   0.0519   0.0533
  0.0539   0.0543   0.0551   0.0559   0.0567   0.0570   0.0571   0.0583
  0.0592   0.0595   0.0601   0.0606   0.0618   0.0620   0.0626   0.0629
  0.0635   0.0636   0.0646   0.0650   0.0655   0.0656   0.0663   0.0676
  0.0680   0.0686   0.0693   0.0695   0.0705   0.0709   0.0717   0.0725
  0.0727   0.0738   0.0743   0.0744   0.0751   0.0763   0.0771   0.0779
  0.0781   0.0786   0.0794   0.0800   0.0804   0.0814   0.0816   0.0834
  0.0843   0.0850   0.0852   0.0855   0.0871   0.0872   0.0878   0.0884
  0.0900   0.0903   0.0909   0.0914   0.0926   0.0935   0.0941   0.0944
  0.0950   0.0957   0.0962   0.0972   0.0979   0.0989   0.0994   0.0998
  0.1006   0.1010   0.1012   0.1022   0.1028   0.1033   0.1038   0.1044
  0.1054   0.1058   0.1063   0.1069   0.1079   0.1083   0.1084   0.1090
  0.1092   0.1102   0.1107   0.1115   0.1117   0.1124   0.1131   0.1135
  0.1142   0.1157   0.1162   0.1169   0.1175   0.1180   0.1185   0.1188
  0.1194   0.1203   0.1208   0.1221   0.1224   0.1235   0.1241   0.1244
  0.1253   0.1256   0.1263   0.1273   0.1275   0.1280   0.1286   0.1295
  0.1302   0.1306   0.1313   0.1330   0.1336   0.1343   0.1345   0.1351
  0.1353   0.1357   0.1362   0.1375   0.1383   0.1394   0.1399   0.1402
  0.1410   0.1416   0.1421   0.1430   0.1437   0.1443   0.1455   0.1458
  0.1463   0.1466   0.1474   0.1486   0.1489   0.1490   0.1500   0.1503
  0.1504   0.1512   0.1520   0.1525   0.1529   0.1540   0.1541   0.1548
  0.1558   0.1564   0.1577   0.1578   0.1587   0.1595   0.1601   0.1610
  0.1617   0.1620   0.1629   0.1633   0.1641   0.1643   0.1648   0.1653
  0.1661   0.1663   0.1671   0.1675   0.1687   0.1689   0.1697   0.1704
  0.1712   0.1713   0.1716   0.1719   0.1729   0.1731   0.1734   0.1738
  0.1747   0.1756   0.1765   0.1771   0.1772   0.1774   0.1781   0.1791
  0.1794   0.1797   0.1806   0.1812   0.1819   0.1825   0.1837   0.1839
  0.1844   0.1845   0.1856   0.1861   0.1870   0.1878   0.1880   0.1890
  0.1898   0.1905   0.1913   0.1917   0.1922   0.1928   0.1931   0.1941
  0.1945   0.1952   0.1958   0.1962   0.1977   0.1977   0.1983   0.1989
  0.1998   0.2005   0.2010   0.2017   0.2021   0.2028   0.2035   0.2044
  0.2048   0.2055   0.2056   0.2060   0.2066   0.2073   0.2079   0.2086
  0.2096   0.2102   0.2109   0.2110   0.2116   0.2122   0.2132   0.2134
  0.2137   0.2142   0.2156   0.2163   0.2164   0.2179   0.2188   0.2192
  0.2194   0.2197   0.2207   0.2214   0.2221   0.2231   0.2238   0.2246
  0.2255   0.2261   0.2271   0.2278   0.2284   0.2289   0.2298   0.2308
  0.2312   0.2320   0.2323   0.2331   0.2340   0.2344   0.2351   0.2357
  0.2367   0.2378   0.2382   0.2388   0.2391   0.2396   0.2399   0.2417
  0.2421   0.2424   0.2432   0.2438   0.2447   0.2459   0.2464   0.2469
  0.2473   0.2487   0.2490   0.2500   0.2502   0.2506   0.2526   0.2532
  0.2538   0.2551   0.2553   0.2565   0.2573   0.2575   0.2582   0.2591
  0.2598   0.2605   0.2609   0.2622   0.2634   0.2637   0.2645   0.2657
  0.2658   0.2672   0.2678   0.2688   0.2702   0.2707   0.2710   0.2713
  0.2717   0.2725   0.2735   0.2746   0.2748   0.2763   0.2765   0.2780
  0.2784   0.2785   0.2800   0.2810   0.2817   0.2821   0.2831   0.2841
  0.2843   0.2854   0.2857   0.2863   0.2879   0.2884   0.2888   0.2901
  0.2910   0.2913   0.2927   0.2933   0.2938   0.2941   0.2952   0.2954
  0.2960   0.2973   0.2986   0.2986   0.2993   0.3004   0.3015   0.3016
  0.3030   0.3037   0.3050   0.3053   0.3060   0.3067   0.3071   0.3079
  0.3083   0.3095   0.3106   0.3109   0.3124   0.3129   0.3137   0.3147
  0.3157   0.3163   0.3174   0.3185   0.3194   0.3197   0.3202   0.3204
  0.3208   0.3227   0.3242   0.3254   0.3260   0.3268   0.3281   0.3294
  0.3304   0.3308   0.3316   0.3324   0.3329   0.3342   0.3350   0.3354
  0.3369   0.3379   0.3390   0.3393   0.3398   0.3415   0.3424   0.3429
  0.3433   0.3440   0.3447   0.3456   0.3468   0.3479   0.3490   0.3494
  0.3503   0.3509   0.3516   0.3520   0.3538   0.3546   0.3551   0.3554
  0.3568   0.3573   0.3578   0.3591   0.3597   0.3609   0.3616   0.3630
  0.3633   0.3648   0.3666   0.3668   0.3684   0.3693   0.3700   0.3707
  0.3719   0.3728   0.3734   0.3743   0.3755   0.3760   0.3770   0.3778
  0.3781   0.3790   0.3812   0.3821   0.3823   0.3839   0.3847   0.3854
  0.3864   0.3874   0.3878   0.3885   0.3901   0.3908   0.3921   0.3924
  0.3927   0.3936   0.3950   0.3966   0.3977   0.3981   0.3995   0.3999
  0.4010   0.4023   0.4030   0.4042   0.4046   0.4058   0.4060   0.4068
  0.4078   0.4082   0.4094   0.4104   0.4116   0.4128   0.4132   0.4138
  0.4150   0.4158   0.4169   0.4174   0.4187   0.4205   0.4217   0.4227
  0.4232   0.4247   0.4255   0.4267   0.4272   0.4295   0.4299   0.4306
  0.4318   0.4326   0.4332   0.4348   0.4368   0.4372   0.4382   0.4388
  0.4391   0.4402   0.4421   0.4433   0.4436   0.4447   0.4449   0.4463
  0.4478   0.4488   0.4516   0.4520   0.4529   0.4556   0.4559   0.4577
  0.4588   0.4599   0.4618   0.4643   0.4651   0.4660   0.4665   0.4680
  0.4693   0.4706   0.4709   0.4715   0.4739   0.4753   0.4765   0.4776
  0.4802   0.4814   0.4829   0.4832   0.4840   0.4863   0.4870   0.4895
  0.4903   0.4906   0.4919   0.4933   0.4954   0.4962   0.4967   0.4988
  0.5008   0.5018   0.5031   0.5062   0.5069   0.5074   0.5097   0.5122
  0.5130   0.5160   0.5163   0.5179   0.5193   0.5209   0.5223   0.5233
  0.5259   0.5269   0.5289   0.5316   0.5323   0.5337   0.5362   0.5376
  0.5408   0.5421   0.5427   0.5443   0.5450   0.5482   0.5491   0.5497
  0.5509   0.5511   0.5536   0.5558   0.5567   0.5579   0.5607   0.5613
  0.5625   0.5634   0.5650   0.5662   0.5696   0.5700   0.5725   0.5733
  0.5745   0.5755   0.5778   0.5797   0.5803   0.5811   0.5822   0.5856
  0.5863   0.5880   0.5883   0.5912   0.5920   0.5932   0.5936   0.5954
  0.5978   0.5999   0.6015   0.6019   0.6038   0.6054   0.6060   0.6072
  0.6084   0.6096   0.6107   0.6113   0.6132   0.6144   0.6151   0.6163
  0.6179   0.6190   0.6200   0.6238   0.6250   0.6251   0.6271   0.6280
  0.6293   0.6311   0.6319   0.6328   0.6353   0.6368   0.6373   0.6400
  0.6413   0.6422   0.6429   0.6443   0.6472   0.6477   0.6482   0.6504
  0.6518   0.6528   0.6531   0.6556   0.6559   0.6567   0.6572   0.6591
  0.6604   0.6614   0.6620   0.6635   0.6644   0.6658   0.6665   0.6676
  0.6687   0.6703   0.6713   0.6725   0.6729   0.6755   0.6766   0.6772
  0.6772   0.6788   0.6800   0.6812   0.6824   0.6839   0.6843   0.6858
  0.6865   0.6888   0.6895   0.6907   0.6924   0.6931   0.6935   0.6952
  0.6971   0.6977   0.6990   0.6991   0.7009   0.7016   0.7031   0.7043
  0.7053   0.7062   0.7086   0.7092   0.7102   0.7112   0.7128   0.7142
  0.7152   0.7164   0.7188   0.7198   0.7211   0.7212   0.7232   0.7245
  0.7253   0.7280   0.7285   0.7290   0.7303   0.7312   0.7337   0.7340
  0.7353   0.7362   0.7378   0.7407   0.7418   0.7428   0.7435   0.7464
  0.7486   0.7499   0.7506   0.7518   0.7540   0.7560   0.7566   0.7585
  0.7600   0.7607   0.7625   0.7629   0.7646   0.7654   0.7678   0.7688
  0.7700   0.7715   0.7719   0.7730   0.7751   0.7763   0.7770   0.7789
  0.7808   0.7814   0.7841   0.7861   0.7865   0.7880   0.7889   0.7910
  0.7927   0.7948   0.7959   0.7976   0.7989   0.7996   0.8019   0.8027
  0.8032   0.8044   0.8055   0.8083   0.8093   0.8120   0.8133   0.8144
  0.8146   0.8172   0.8187   0.8194   0.8203   0.8208   0.8233   0.8237
  0.8247   0.8272   0.8292   0.8299   0.8317   0.8335   0.8340   0.8357
  0.8362   0.8379   0.8391   0.8402   0.8417   0.8443   0.8449   0.8467
  0.8484   0.8494   0.8502   0.8510   0.8524   0.8556   0.8574   0.8591
  0.8608   0.8612   0.8638   0.8653   0.8657   0.8677   0.8689   0.8699
  0.8706   0.8722   0.8733   0.8735   0.8760   0.8780   0.8785   0.8793
  0.8803   0.8816   0.8836   0.8851   0.8882   0.8890   0.8898   0.8909
  0.8924   0.8938   0.8957   0.8969   0.8985   0.8986   0.9009   0.9017
  0.9025   0.9037   0.9048   0.9065   0.9077   0.9089   0.9097   0.9107
  0.9114   0.9126   0.9138   0.9141   0.9153   0.9163   0.9174   0.9181
  0.9194   0.9219   0.9222   0.9237   0.9244   0.9253   0.9264   0.9274
  0.9288   0.9289   0.9303   0.9307   0.9329   0.9343   0.9365   0.9368
  0.9376   0.9395   0.9400   0.9408   0.9424   0.9441   0.9447   0.9451
  0.9474   0.9499   0.9503   0.9516   0.9527   0.9534   0.9558   0.9572
  0.9581   0.9588   0.9607   0.9615   0.9630   0.9648   0.9659   0.9668
  0.9669   0.9678   0.9683   0.9689   0.9700   0.9715   0.9727   0.9739
  0.9749   0.9753   0.9770   0.9787   0.9804   0.9819   0.9831   0.9836
  0.9849   0.9852   0.9869   0.9877   0.9883   0.9897   0.9914   0.9926
  0.9930   0.9947   0.9964   0.9969   0.9990   0.9991   1.0001   1.0023
  1.0026   1.0041   1.0049   1.0053   1.0077   1.0088   1.0098   1.0108
  1.0119   1.0124   1.0146   1.0161   1.0172   1.0177   1.0194   1.0200
  1.0220   1.0223   1.0240   1.0252   1.0260   1.0273   1.0284   1.0304
  1.0313   1.0331   1.0348   1.0352   1.0377   1.0383   1.0387   1.0400
  1.0413   1.0418   1.0441   1.0446   1.0456   1.0484   1.0487   1.0499
  1.0518   1.0532   1.0546   1.0571   1.0574   1.0599   1.0612   1.0617
  1.0635   1.0659   1.0665   1.0682   1.0687   1.0716   1.0719   1.0725
  1.0745   1.0753   1.0769   1.0777   1.0784   1.0792   1.0812   1.0830
  1.0846   1.0855   1.0866   1.0872   1.0889   1.0897   1.0913   1.0937
  1.0941   1.0943   1.0965   1.0978   1.1000   1.1020   1.1032   1.1039
  1.1053   1.1056   1.1080   1.1092   1.1093   1.1115   1.1128   1.1144
  1.1153   1.1164   1.1175   1.1180   1.1196   1.1221   1.1237   1.1251
  1.1258   1.1266   1.1277   1.1289   1.1299   1.1317   1.1340   1.1343
  1.1354   1.1363   1.1374   1.1383   1.1394   1.1402   1.1428   1.1436
  1.1449   1.1468   1.1490   1.1496   1.1501   1.1533   1.1539   1.1549
  1.1562   1.1573   1.1585   1.1608   1.1621   1.1642   1.1643   1.1653
  1.1669   1.1684   1.1685   1.1704   1.1728   1.1742   1.1746   1.1774
  1.1784   1.1802   1.1820   1.1838   1.1853   1.1867   1.1872   1.1901
  1.1916   1.1945   1.1954   1.1967   1.1986   1.2001   1.2017   1.2021
  1.2059   1.2083   1.2092   1.2114   1.2122   1.2145   1.2183   1.2195
  1.2233   1.2250   1.2263   1.2288   1.2297   1.2317   1.2336   1.2366
  1.2379   1.2386   1.2405   1.2452   1.2463   1.2499   1.2520   1.2549
  1.2579   1.2592   1.2617   1.2648   1.2658   1.2675   1.2690   1.2704
  1.2728   1.2759   1.2764   1.2826   1.2843   1.2848   1.2856   1.2905
  1.2920   1.2946   1.2970   1.2987   1.3003   1.3031   1.3064   1.3105
  1.3132   1.3148   1.3164   1.3191   1.3199   1.3218   1.3263   1.3267
  1.3301   1.3306   1.3333   1.3344   1.3360   1.3378   1.3384   1.3404
  1.3423   1.3442   1.3463   1.3468   1.3499   1.3513   1.3544   1.3553
  1.3563   1.3578   1.3590   1.3590   1.3620   1.3639   1.3663   1.3671
  1.3683   1.3717   1.3739   1.3752   1.3783   1.3788   1.3813   1.3821
  1.3837   1.3853   1.3862   1.3871   1.3895   1.3909   1.3922   1.3932
  1.3944   1.3955   1.3964   1.3996   1.4004   1.4011   1.4021   1.4034
  1.4043   1.4066   1.4074   1.4085   1.4097   1.4118   1.4137   1.4150
  1.4160   1.4186   1.4207   1.4223   1.4233   1.4247   1.4266   1.4283
  1.4300   1.4327   1.4348   1.4369   1.4376   1.4404   1.4408   1.4412
  1.4427   1.4454   1.4466   1.4481   1.4506   1.4523   1.4542   1.4554
  1.4558   1.4588   1.4599   1.4615   1.4624   1.4633   1.4643   1.4654
  1.4669   1.4694   1.4750   1.4756   1.4775   1.4784   1.4814   1.4823
  1.4838   1.4853   1.4864   1.4896   1.4914   1.4929   1.4938   1.4971
  1.4993   1.5001   1.5017   1.5071   1.5087   1.5121   1.5146   1.5165
  1.5177   1.5216   1.5235   1.5252   1.5274   1.5321   1.5328   1.5335
  1.5395   1.5427   1.5432   1.5452   1.5471   1.5482   1.5523   1.5550
  1.5577   1.5601   1.5653   1.5682   1.5724   1.5747   1.5771   1.5804
  1.5816   1.5888   1.5899   1.5931   1.5949   1.6010   1.6016   1.6056
  1.6101   1.6192   1.6225   1.6279   1.6290   1.6333   1.6377   1.6386
  1.6405   1.6431   1.6441   1.6463   1.6470   1.6503   1.6517   1.6530
  1.6548   1.6587   1.6599   1.6607   1.6639   1.6674   1.6681   1.6720
  1.6746   1.6758   1.6765   1.6771   1.6788   1.6807   1.6822   1.6835
  1.6842   1.6857   1.6864   1.6875   1.6908   1.6933   1.6944   1.6965
  1.6992   1.7001   1.7011   1.7015   1.7034   1.7039   1.7051   1.7070
  1.7096   1.7123   1.7133   1.7137   1.7178   1.7186   1.7193   1.7198
  1.7211   1.7234   1.7240   1.7241   1.7259   1.7276   1.7283   1.7289
  1.7298   1.7304   1.7317   1.7327   1.7351   1.7363   1.7367   1.7377
  1.7416   1.7419   1.7445   1.7453   1.7470   1.7479   1.7499   1.7510
  1.7537   1.7544   1.7561   1.7584   1.7591   1.7602   1.7612   1.7622
  1.7633   1.7644   1.7663   1.7680   1.7687   1.7702   1.7730   1.7750
  1.7762   1.7769   1.7800   1.7804   1.7822   1.7831   1.7846   1.7867
  1.7892   1.7915   1.7931   1.7948   1.7977   1.8012   1.8028   1.8043
  1.8051   1.8061   1.8073   1.8099   1.8140   1.8144   1.8157   1.8192
  1.8199   1.8232   1.8236   1.8277   1.8306   1.8350   1.8367   1.8397
  1.8421   1.8466   1.8486   1.8528   1.8558   1.8573   1.8609   1.8627
  1.8636   1.8657   1.8680   1.8713   1.8727   1.8758   1.8768   1.8778
  1.8785   1.8792   1.8799   1.8813   1.8822   1.8827   1.8837   1.8843
  1.8870   1.8890   1.8907   1.8913   1.8940   1.8962   1.8983   1.8994
  1.9002   1.9022   1.9051   1.9064   1.9075   1.9093   1.9106   1.9124
  1.9148   1.9176   1.9188   1.9217   1.9220   1.9228   1.9242   1.9260
  1.9270   1.9283   1.9316   1.9322   1.9347   1.9350   1.9357   1.9381
  1.9387   1.9399   1.9424   1.9436   1.9474   1.9491   1.9504   1.9550
  1.9562   1.9597   1.9619   1.9664   1.9700   1.9714   1.9741   1.9773
  1.9784   1.9833   1.9914   1.9946   1.9976   2.0049   2.0136   2.0261
  2.0305   2.0324   2.0353   2.0366   2.0410   2.0437   2.0466   2.0495
  2.0563   2.0570   2.0571   2.0599   2.0610   2.0627   2.0643   2.0648
  2.0675   2.0682   2.0687   2.0697   2.0721   2.0735   2.0769   2.0794
  2.0837   2.0844   2.0853   2.0883   2.0893   2.0917   2.0927   2.0946
  2.0949   2.0959   2.0970   2.0975   2.0985   2.0989   2.0996   2.1023
  2.1034   2.1055   2.1094   2.1110   2.1136   2.1159   2.1183   2.1212
  2.1232   2.1258   2.1291   2.1293   2.1322   2.1346   2.1410   2.1419
  2.1433   2.1466   2.1492   2.1520   2.1553   2.1572   2.1588   2.1606
  2.1667   2.1698   2.1715   2.1742   2.1777   2.1791   2.1852   2.1880
  2.1910   2.1917   2.1923   2.1958   2.1986   2.2002   2.2012   2.2042
  2.2050   2.2074   2.2100   2.2113   2.2119   2.2137   2.2143   2.2152
  2.2164   2.2173   2.2176   2.2192   2.2201   2.2202   2.2228   2.2245
  2.2248   2.2264   2.2293   2.2338   2.2342   2.2371   2.2375   2.2408
  2.2421   2.2428   2.2445   2.2457   2.2465   2.2482   2.2500   2.2510
  2.2517   2.2519   2.2528   2.2529   2.2535   2.2550   2.2562   2.2567
  2.2591   2.2599   2.2616   2.2622   2.2629   2.2642   2.2656   2.2665
  2.2669   2.2679   2.2695   2.2703   2.2724   2.2739   2.2751   2.2754
  2.2768   2.2776   2.2788   2.2802   2.2804   2.2819   2.2826   2.2831
  2.2834   2.2841   2.2854   2.2869   2.2872   2.2877   2.2890   2.2898
  2.2909   2.2912   2.2932   2.2949   2.2966   2.2977   2.2990   2.3011
  2.3018   2.3027   2.3034   2.3049   2.3066   2.3072   2.3075   2.3084
  2.3098   2.3109   2.3113   2.3122   2.3125   2.3133   2.3158   2.3171
  2.3175   2.3186   2.3205   2.3215   2.3217   2.3251   2.3267   2.3272
  2.3292   2.3297   2.3302   2.3321   2.3333   2.3346   2.3361   2.3390
  2.3397   2.3413   2.3421   2.3441   2.3458   2.3473   2.3495   2.3502
  2.3523   2.3539   2.3565   2.3581   2.3609   2.3630   2.3661   2.3672
  2.3692   2.3708   2.3727   2.3742   2.3792   2.3797   2.3865   2.3897
  2.3912   2.3961   2.4013   2.4046   2.4099   2.4156   2.4183   2.4242
  2.4378   2.4446   2.4688   2.4837   2.4929   2.5576   2.5773   2.5876
  2.6751   2.7457   2.7623   2.7874   2.8152   2.8176   2.8213   2.8229
  2.8252   2.8331   2.8371   2.8377   2.8415   2.8438   2.8467   2.8491
  2.8514   2.8525   2.8562   2.8589   2.8610   2.8618   2.8694   2.8747
  2.8760   2.8799   2.8883   2.8892   2.8937   2.8957   2.9000   2.9029
  2.9084   2.9112   2.9700   3.1157   3.2639   3.9399   3.9465   3.9541
  3.9584   3.9600   3.9628   3.9640   3.9679   3.9700   3.9757   3.9766
  3.9826   3.9851   3.9877   3.9915   3.9999   4.0044   4.0069   4.0109
  4.0119   4.0171   4.0236   4.0245   4.0328   4.0419   4.0468   4.1593
  4.1882   4.1932   4.1984   4.2116   4.2146   4.2280   4.2313   4.2353
  4.2415   4.2440   4.2565   4.2601   4.2635   4.2644   4.2650   4.2674
  4.2713   4.2748   4.2758   4.2794   4.2845   4.2863   4.2917   4.2969
  4.2975   4.3008   4.3052   4.3060   4.3071   4.3097   4.3135   4.3151
  4.3173   4.3198   4.3203   4.3230   4.3256   4.3278   4.3332   4.3346
  4.3369   4.3408   4.3422   4.3452   4.3501   4.3515   4.3534   4.3552
  4.3614   4.3632   4.3675   4.3730   4.3749   4.3763   4.3814   4.3860
  4.3884   4.3930   4.3969   4.4013   4.4045   4.4138   4.4162   4.4194
  4.4288   4.4344   4.4421   4.4671   4.4726   4.4826   4.4856   4.5029
  4.5080   4.5204   4.5354   4.5430   4.5496   4.5733   4.5912   4.5966
  4.6188   4.6809   4.7294   4.7721   4.8155   4.9140
 --------------------------------------------------------------
 
          Ground-State Mulliken Net Atomic Charges

     Atom                 Charge (a.u.)
  ----------------------------------------
      1 C                    -0.302187
      2 C                    -0.515772
      3 C                    -0.113861
      4 C                    -0.487005
      5 C                    -0.272889
      6 C                    -0.645722
      7 H                     0.197989
      8 H                     0.256960
      9 H                     0.193878
     10 H                     0.200029
     11 H                     0.202015
     12 H                     0.210061
     13 H                     0.189808
     14 H                     0.186849
     15 H                     0.239115
     16 H                     0.225839
     17 H                     0.192372
     18 N                    -0.408831
     19 H                     0.482177
     20 C                     0.337570
     21 H                     0.166777
     22 O                    -0.535171
     23 C                    -0.797192
     24 H                     0.239284
     25 H                     0.265638
     26 H                     0.243439
     27 S                     0.895537
     28 C                    -0.856158
     29 H                     0.263768
     30 H                     0.265156
     31 H                     0.211931
     32 O                    -0.742180
     33 C                    -1.125545
     34 H                     0.293343
     35 H                     0.267373
     36 H                     0.271274
     37 S                     1.307379
     38 C                    -0.927422
     39 H                     0.226548
     40 H                     0.251901
     41 H                     0.297230
     42 O                    -0.803585
     43 C                    -1.021778
     44 H                     0.309136
     45 H                     0.240349
     46 H                     0.249271
     47 S                     1.051471
     48 C                    -0.881033
     49 H                     0.252529
     50 H                     0.262482
     51 H                     0.220007
     52 O                    -0.701978
     53 C                    -0.829599
     54 H                     0.271474
     55 H                     0.265636
     56 H                     0.217330
     57 S                     0.995826
     58 C                    -0.922254
     59 H                     0.278381
     60 H                     0.293317
     61 H                     0.248398
     62 O                    -0.759027
     63 C                    -0.820120
     64 H                     0.225085
     65 H                     0.266551
     66 H                     0.242837
     67 S                     0.772304
     68 C                    -0.864242
     69 H                     0.238534
     70 H                     0.275008
     71 H                     0.270677
     72 O                    -0.704126
     73 C                    -0.907705
     74 H                     0.208108
     75 H                     0.311563
     76 H                     0.234460
     77 S                     1.005937
     78 C                    -0.899350
     79 H                     0.263362
     80 H                     0.242059
     81 H                     0.273295
     82 O                    -0.756526
     83 C                    -1.124996
     84 H                     0.256622
     85 H                     0.227775
     86 H                     0.269427
     87 S                     1.156672
     88 C                    -0.880888
     89 H                     0.217653
     90 H                     0.252283
     91 H                     0.243970
     92 O                    -0.667447
     93 C                    -0.808391
     94 H                     0.229150
     95 H                     0.245908
     96 H                     0.284597
     97 S                     0.738138
     98 C                    -0.691496
     99 H                     0.244840
    100 H                     0.236850
    101 H                     0.251131
    102 O                    -0.685054
    103 C                    -0.794020
    104 H                     0.265509
    105 H                     0.230674
    106 H                     0.257165
    107 S                     0.907302
    108 C                    -0.845432
    109 H                     0.251514
    110 H                     0.258371
    111 H                     0.237754
    112 O                    -0.727265
    113 C                    -0.759973
    114 H                     0.264155
    115 H                     0.250163
    116 H                     0.222686
    117 S                     0.866238
    118 C                    -0.828175
    119 H                     0.238217
    120 H                     0.279040
    121 H                     0.256588
    122 O                    -0.796566
    123 C                    -1.077631
    124 H                     0.248001
    125 H                     0.255983
    126 H                     0.261450
    127 S                     1.391833
    128 C                    -1.107553
    129 H                     0.278544
    130 H                     0.217186
    131 H                     0.283035
    132 O                    -0.681946
    133 C                    -0.739200
    134 H                     0.230840
    135 H                     0.274552
    136 H                     0.253850
    137 S                     0.331832
    138 C                    -0.695732
    139 H                     0.265742
    140 H                     0.239780
    141 H                     0.289311
    142 O                    -0.584663
    143 C                    -0.767410
    144 H                     0.282240
    145 H                     0.236282
    146 H                     0.244304
    147 S                     0.824376
    148 C                    -0.851879
    149 H                     0.239331
    150 H                     0.248561
    151 H                     0.285673
    152 O                    -0.692601
    153 C                    -0.841611
    154 H                     0.258958
    155 H                     0.253848
    156 H                     0.267945
    157 S                     0.929888
    158 C                    -1.087598
    159 H                     0.268165
    160 H                     0.303512
    161 H                     0.261887
    162 O                    -0.640698
    163 C                    -1.113575
    164 H                     0.229652
    165 H                     0.276318
    166 H                     0.266688
    167 S                     1.363438
    168 C                    -0.937793
    169 H                     0.231781
    170 H                     0.288229
    171 H                     0.226496
    172 O                    -0.688653
    173 C                    -0.946853
    174 H                     0.282792
    175 H                     0.290046
    176 H                     0.259111
    177 S                     1.209933
    178 C                    -1.182097
    179 H                     0.284619
    180 H                     0.238722
    181 H                     0.273645
    182 O                    -0.772633
    183 C                    -0.912372
    184 H                     0.241524
    185 H                     0.269994
    186 H                     0.300342
    187 S                     0.620979
    188 C                    -0.820739
    189 H                     0.225478
    190 H                     0.253243
    191 H                     0.333893
    192 O                    -0.679694
    193 C                    -0.883445
    194 H                     0.229261
    195 H                     0.289185
    196 H                     0.258442
    197 S                     0.883089
    198 C                    -0.797917
    199 H                     0.248602
    200 H                     0.249715
    201 H                     0.246921
    202 O                    -0.740731
    203 C                    -0.857936
    204 H                     0.252596
    205 H                     0.290613
    206 H                     0.219527
    207 S                     0.994565
    208 C                    -0.863820
    209 H                     0.256431
    210 H                     0.230925
    211 H                     0.255378
    212 O                    -0.761238
    213 C                    -0.629204
    214 H                     0.288651
    215 H                     0.215939
    216 H                     0.268820
    217 S                     0.563435
    218 C                    -0.757402
    219 H                     0.233875
    220 H                     0.255890
    221 H                     0.237117
    222 O                    -0.666315
    223 C                    -0.909956
    224 H                     0.250152
    225 H                     0.269794
    226 H                     0.242607
    227 S                     1.099767
    228 C                    -0.877116
    229 H                     0.268489
    230 H                     0.218899
    231 H                     0.247646
    232 O                    -0.731747
    233 C                    -0.950135
    234 H                     0.260767
    235 H                     0.268265
    236 H                     0.231446
    237 S                     1.011537
    238 C                    -0.903437
    239 H                     0.246795
    240 H                     0.240743
    241 H                     0.284655
    242 O                    -0.725942
    243 C                    -1.006521
    244 H                     0.249247
    245 H                     0.258239
    246 H                     0.310514
    247 S                     0.993876
    248 C                    -0.820402
    249 H                     0.235221
    250 H                     0.269394
    251 H                     0.241235
    252 O                    -0.695742
    253 C                    -0.983286
    254 H                     0.267877
    255 H                     0.275122
    256 H                     0.287659
    257 S                     1.122294
    258 C                    -1.064609
    259 H                     0.328108
    260 H                     0.246884
    261 H                     0.263868
    262 O                    -0.743445
    263 C                    -0.965656
    264 H                     0.272836
    265 H                     0.228550
    266 H                     0.261504
    267 S                     1.199845
    268 C                    -1.058123
    269 H                     0.246606
    270 H                     0.251372
    271 H                     0.246225
    272 O                    -0.697976
    273 C                    -0.847434
    274 H                     0.231587
    275 H                     0.232607
    276 H                     0.289096
    277 S                     0.967601
    278 C                    -0.867768
    279 H                     0.230125
    280 H                     0.300085
    281 H                     0.239170
    282 O                    -0.716947
  ----------------------------------------
  Sum of atomic charges =     0.000000

 -----------------------------------------------------------------
                    Cartesian Multipole Moments
 -----------------------------------------------------------------
    Charge (ESU x 10^10)
                 0.0000
    Dipole Moment (Debye)
         X     -10.4960      Y      12.0541      Z      22.4893
       Tot      27.5906
    Quadrupole Moments (Debye-Ang)
        XX   -1333.2357     XY     -77.2214     YY    -407.8490
        XZ     341.9451     YZ     672.0596     ZZ     116.9846
    Octopole Moments (Debye-Ang^2)
       XXX  -85786.4419    XXY  -29883.3188    XYY  -23531.6208
       YYY  -42890.8337    XXZ  -17815.1394    XYZ    7667.7702
       YYZ   -6865.4118    XZZ   -3547.1826    YZZ    3484.7089
       ZZZ  -39385.6224
    Hexadecapole Moments (Debye-Ang^3)
      XXXX ************   XXXY ************   XXYY ************
      XYYY ************   YYYY ************   XXXZ ************
      XXYZ -517533.0132   XYYZ -511489.2669   YYYZ ************
      XXZZ -819973.4154   XYZZ -178750.2965   YYZZ -638337.2462
      XZZZ ************   YZZZ -953227.5340   ZZZZ ************
 -----------------------------------------------------------------
Archival summary:
[...]
    2  -0.0275792  -0.0126581  -0.0241503   0.0073709  -0.0016879   0.0163327
    3   0.0018145   0.0194003  -0.0442438   0.0050796   0.0111480  -0.0261753
          121         122         123         124         125         126
    1  -0.0195342  -0.1080355   0.0002210   0.0251784  -0.0238726  -0.0047042
    2   0.0143710   0.0172198  -0.0032937   0.0040359   0.0194804  -0.0351270
    3   0.0235680   0.0126606  -0.0039355   0.0195354  -0.0029117   0.0056951
          127         128         129         130         131         132
    1   0.0542521  -0.0007703  -0.0271302   0.0143586   0.0206399  -0.0832285
    2  -0.0196273   0.0040980  -0.0028339   0.0249936   0.0226118  -0.0447008
    3  -0.0061562  -0.0059439  -0.0206800   0.0198801  -0.0213762  -0.0595280
          133         134         135         136         137         138
    1   0.0009424  -0.0194723  -0.0181694   0.0080364   0.0449103  -0.0033666
    2  -0.0002652   0.0077470  -0.0260948   0.0214184  -0.0022621   0.0075680
    3   0.0057257  -0.0157663   0.0128836   0.0306732   0.0249065  -0.0107885
          139         140         141         142         143         144
    1  -0.0230326   0.0153519   0.0164175  -0.0436533  -0.0046652   0.0006925
    2  -0.0125407   0.0313538   0.0030416  -0.0767731   0.0017676  -0.0217885
    3  -0.0245028   0.0167467  -0.0258878  -0.0658326  -0.0038451  -0.0248864
          145         146         147         148         149         150
    1  -0.0267306   0.0015332   0.0453176  -0.0030269  -0.0286458   0.0005072
    2   0.0122976   0.0348162  -0.0278082  -0.0066033   0.0141571  -0.0316029
    3   0.0142360  -0.0117254  -0.0312741   0.0048411   0.0113244  -0.0124640
          151         152         153         154         155         156
    1   0.0204388   0.0264976   0.0003638  -0.0219687  -0.0093700   0.0311077
    2  -0.0167296   0.0753111  -0.0034268  -0.0048786  -0.0262402   0.0032024
    3   0.0175515   0.0773419   0.0065937   0.0230483  -0.0123378   0.0108599
          157         158         159         160         161         162
    1   0.0362608   0.0046741  -0.0153590   0.0349776  -0.0080338  -0.1084547
    2   0.0076506   0.0060288  -0.0060330   0.0099940   0.0317706   0.0016075
    3  -0.0442060   0.0053044   0.0260947   0.0076007  -0.0124633  -0.0090421
          163         164         165         166         167         168
    1  -0.0032735   0.0232259  -0.0168709   0.0041156  -0.0381494   0.0051719
    2   0.0086333  -0.0000703   0.0164039   0.0186289  -0.0047041  -0.0005496
    3  -0.0032247  -0.0151010  -0.0178054   0.0286953   0.0318766   0.0053361
          169         170         171         172         173         174
    1   0.0243912   0.0123694   0.0109102   0.0117409  -0.0074553  -0.0009910
    2   0.0071531   0.0100912  -0.0304372  -0.0478457  -0.0086257  -0.0304542
    3  -0.0125852   0.0362220   0.0046966  -0.0994794  -0.0016898   0.0102107
          175         176         177         178         179         180
    1  -0.0327605   0.0055716   0.0465257  -0.0034614  -0.0250622  -0.0213134
    2   0.0070324  -0.0131293  -0.0235175   0.0020304   0.0098118  -0.0240196
    3  -0.0032550  -0.0277703   0.0203840   0.0049108  -0.0139053   0.0259356
          181         182         183         184         185         186
    1   0.0123289  -0.0078160   0.0028925  -0.0126937   0.0278870  -0.0133457
    2   0.0292440   0.0656840  -0.0009975   0.0229711  -0.0030989  -0.0281803
    3   0.0102985  -0.0864859  -0.0061427  -0.0257207   0.0039250  -0.0007177
          187         188         189         190         191         192
    1  -0.0439469   0.0078498  -0.0035114  -0.0028397   0.0268880   0.0665857
    2   0.0052009   0.0045902   0.0405809   0.0046954  -0.0147090  -0.0852066
    3   0.0089993  -0.0007282  -0.0009375   0.0302643  -0.0123250   0.0321637
          193         194         195         196         197         198
    1   0.0015078  -0.0083208   0.0213557  -0.0249366   0.0322715   0.0022845
    2   0.0135407  -0.0110328   0.0318835   0.0027042  -0.0247530   0.0060985
    3  -0.0020318   0.0280708   0.0151357  -0.0230352   0.0291651  -0.0042243
          199         200         201         202         203         204
    1  -0.0154153   0.0343120   0.0096257  -0.0987006   0.0004657   0.0351651
    2   0.0217874   0.0207328  -0.0152049  -0.0388001   0.0050610  -0.0071824
    3  -0.0174261  -0.0057108  -0.0243828  -0.0311272   0.0064701   0.0010321
          205         206         207         208         209         210
    1  -0.0085601  -0.0217311  -0.0538898   0.0040954   0.0337551  -0.0063690
    2   0.0275080   0.0135476   0.0088049  -0.0045394  -0.0006879  -0.0062106
    3  -0.0084700   0.0296718  -0.0229256   0.0041666   0.0060354   0.0317438
          211         212         213         214         215         216
    1  -0.0237422   0.0915906   0.0043884  -0.0307122   0.0179509   0.0355377
    2  -0.0203911  -0.0007062  -0.0001095   0.0091988  -0.0077807   0.0095067
    3  -0.0123420  -0.0614880   0.0086394   0.0181188   0.0278911   0.0035578
          217         218         219         220         221         222
    1  -0.0488852   0.0009069  -0.0281213   0.0048201   0.0168173   0.0924658
    2   0.0218107  -0.0062850  -0.0009219  -0.0181860  -0.0065231  -0.0405035
    3  -0.0294670   0.0051445   0.0200874  -0.0250201   0.0236052  -0.0511185
          223         224         225         226         227         228
    1   0.0006996  -0.0234843   0.0222749  -0.0203861   0.0160347  -0.0040407
    2  -0.0046741  -0.0223230  -0.0100677   0.0217352   0.0502860  -0.0017220
    3   0.0071234   0.0012406   0.0231931   0.0169861  -0.0024639  -0.0019956
          229         230         231         232         233         234
    1  -0.0077788  -0.0391967  -0.0060565   0.0552112  -0.0008779   0.0188318
    2  -0.0299614   0.0202351   0.0078685  -0.0884480  -0.0011029  -0.0190155
    3  -0.0013515  -0.0021201  -0.0306307  -0.0347602   0.0020551  -0.0131884
          235         236         237         238         239         240
    1   0.0164562  -0.0113110   0.0062695  -0.0060004   0.0067966  -0.0298046
    2   0.0310244  -0.0167290   0.0228506   0.0017629   0.0329324  -0.0082903
    3   0.0080674   0.0226227  -0.0439810   0.0082277   0.0018840  -0.0138499
          241         242         243         244         245         246
    1   0.0020090  -0.0319563   0.0050407   0.0056965   0.0215905  -0.0251811
    2  -0.0186227  -0.1069558  -0.0110135  -0.0083595   0.0103304  -0.0198395
    3   0.0277281   0.0118297   0.0026798  -0.0355198   0.0283253   0.0143753
          247         248         249         250         251         252
    1  -0.0458445   0.0005909  -0.0194870   0.0249757  -0.0135038   0.0792446
    2   0.0073070  -0.0004982   0.0204049  -0.0064663  -0.0255183   0.0764596
    3   0.0374858  -0.0064990  -0.0104370  -0.0234629  -0.0120596  -0.0083804
          253         254         255         256         257         258
    1  -0.0042872   0.0256367  -0.0107068  -0.0128569   0.0122831  -0.0093626
    2  -0.0031556  -0.0154371  -0.0283282   0.0273771  -0.0586246   0.0075436
    3  -0.0163857  -0.0078378  -0.0244779  -0.0113246   0.0205945  -0.0030115
          259         260         261         262         263         264
    1  -0.0190140  -0.0097474  -0.0023120   0.0656722   0.0022656   0.0140208
    2   0.0067964  -0.0256324   0.0318715   0.0821123  -0.0017645   0.0174224
    3  -0.0301031   0.0190308   0.0113672   0.0243391   0.0051614   0.0317901
          265         266         267         268         269         270
    1  -0.0206823   0.0249858   0.0287485  -0.0062640  -0.0034784  -0.0188462
    2  -0.0177839  -0.0171922   0.0493675  -0.0003977   0.0231634   0.0064141
    3   0.0175856   0.0004610  -0.0065183   0.0009663   0.0213965  -0.0249913
          271         272         273         274         275         276
    1  -0.0147247   0.0054289   0.0057237   0.0301565   0.0124034   0.0014427
    2  -0.0286617  -0.0833546  -0.0032815   0.0174003   0.0000980  -0.0342568
    3   0.0035054  -0.0721933  -0.0037704  -0.0127892   0.0246631  -0.0094218
          277         278         279         280         281         282
    1  -0.0402657   0.0014547   0.0170835   0.0009611  -0.0231823  -0.0001255
    2  -0.0371164  -0.0056436   0.0224847  -0.0333397   0.0145971   0.1089166
    3   0.0247931  -0.0081141  -0.0185606  -0.0134073  -0.0113382   0.0085129
  --- DONE ESP SUMMARY ---
Archival summary:
1\1\n0072.mhg0\SP\ProcedureUnspecified\6-31+G*\262652h22\ymao\FriMar1210:38:072021FriMar1210:38:072021\0\\#,ProcedureUnspecified,6-31+G*,\\0,1\S\O,1,1.49654\C,1,1.80698,2,109.415\H,3,1.09266,1,108.164,2,-73.4181,0\H,3,1.09267,1,112.075,2,159.34,0\H,3,1.09317,1,101.842,2,48.5888,0\C,1,1.80701,2,97.1709,3,-100.191,0\H,7,1.09295,1,111.364,2,-46.4627,0\H,7,1.09304,1,108.093,2,-164.71,0\H,7,1.09362,1,109.173,2,70.0378,0\H,4,1.9163,3,159.921,1,45.6992,0\C,11,1.09231,4,176.68,3,-89.2271,0\H,12,1.0925,11,110.547,4,95.9091,0\H,12,1.09352,11,113.549,4,-35.941,0\S,12,1.80761,11,102.77,4,-154.787,0\O,15,1.49707,12,103.178,11,-38.6406,0\C,15,1.8072,12,85.9099,11,67.8059,0\H,17,1.09251,15,108.909,12,-55.1679,0\H,17,1.0932,15,105.075,12,66.6416,0\H,17,1.09325,15,110.605,12,179.54,0\Gh,16,1.99029,15,153.353,12,15.4989,0\Gh,21,1.01264,16,159.095,15,-43.8013,0\Gh,22,1.37941,21,112.597,16,152.326,0\Gh,23,1.1052,22,108.558,21,-4.54421,0\Gh,23,1.21758,22,122.952,21,176.867,0\Gh,22,1.46193,21,120.345,16,-28.2992,0\Gh,26,1.09678,22,114.152,21,138.056,0\Gh,26,1.53703,22,109.593,21,-102.532,0\Gh,28,1.09655,26,112.729,22,-47.3314,0\Gh,28,1.09675,26,106.035,22,59.1894,0\Gh,28,1.53758,26,113.228,22,-178.461,0\Gh,31,1.09709,28,112.402,26,64.4296,0\Gh,31,1.09756,28,108.174,26,-179.046,0\Gh,31,1.53695,28,112.027,26,-54.2766,0\Gh,34,1.0966,31,107.317,28,-60.7297,0\Gh,34,1.0968,31,117.522,28,-179.651,0\Gh,34,1.53787,31,111.419,28,51.8221,0\Gh,37,1.09663,34,112.22,31,62.8257,0\Gh,37,1.09698,34,108.277,31,-171.682,0\Gh,37,1.5371,34,110.12,31,-53.6267,0\Gh,40,1.09697,37,111.53,34,-175.835,0\Gh,40,1.09774,37,109.598,34,-61.0963,0\H,32,2.16188,31,151.915,28,-121.246,0\C,43,1.09273,32,125.249,31,105.215,0\H,44,1.0923,43,107.293,32,-91.2394,0\H,44,1.09295,43,109.252,32,30.3855,0\S,44,1.80726,43,103.471,32,143.412,0\O,47,1.49718,44,104.091,43,43.0922,0\C,47,1.80638,44,91.6829,43,155.895,0\H,49,1.09252,47,110.905,44,-49.6342,0\H,49,1.09267,47,109.186,44,-166.169,0\H,49,1.09285,47,102.108,44,74.0604,0\H,36,2.19769,34,170.524,31,-86.8855,0\C,53,1.09246,36,100.046,34,1.46736,0\H,54,1.09292,53,105.572,36,-40.1242,0\H,54,1.09311,53,112.39,36,84.3699,0\S,54,1.80644,53,115.994,36,-158.403,0\O,57,1.49644,54,96.8826,53,-45.1863,0\C,57,1.8076,54,103.691,53,59.8642,0\H,59,1.0925,57,105.443,54,-81.2262,0\H,59,1.09258,57,109.305,54,168.756,0\H,59,1.09289,57,109.643,54,43.5194,0\H,56,2.11917,54,102.372,53,45.3748,0\C,63,1.09272,56,108.134,54,179.366,0\H,64,1.09283,63,109.774,56,-135.366,0\H,64,1.09383,63,115.597,56,-12.5522,0\S,64,1.80686,63,110.454,56,109.325,0\O,67,1.49659,64,101.054,63,171.12,0\C,67,1.80678,64,95.6341,63,-82.4283,0\H,69,1.0925,67,113.836,64,-63.6962,0\H,69,1.0935,67,112.311,64,166.317,0\H,69,1.09418,67,99.2277,64,58.926,0\H,71,2.00075,69,127.305,67,-63.0603,0\C,73,1.09253,71,166.497,69,-25.9345,0\H,74,1.09207,73,104.441,71,-116.24,0\H,74,1.09394,73,110.16,71,119.363,0\S,74,1.80745,73,108.498,71,-1.12409,0\O,77,1.4964,74,104.079,73,68.1883,0\C,77,1.80758,74,86.5896,73,171.6,0\H,79,1.0925,77,106.403,74,-160.243,0\H,79,1.09294,77,103.663,74,78.3962,0\H,79,1.09327,77,108.838,74,-41.3641,0\H,76,2.16378,74,103.975,73,72.3518,0\C,83,1.09351,76,166.319,74,-172.365,0\H,84,1.09256,83,119.146,76,1.72368,0\H,84,1.09285,83,112.483,76,127.261,0\S,84,1.8068,83,106.223,76,-113.315,0\O,87,1.49742,84,105.921,83,159.178,0\C,87,1.80726,84,91.8075,83,47.1234,0\H,89,1.09271,87,113.145,84,-91.8445,0\H,89,1.09291,87,116.568,84,38.004,0\H,89,1.09353,87,112.052,84,149.732,0\H,62,2.1933,59,150.355,57,55.8115,0\C,93,1.09231,62,148.144,59,-51.0817,0\H,94,1.09239,93,109.177,62,143.574,0\H,94,1.09335,93,116.311,62,-86.0397,0\S,94,1.80746,93,106.058,62,29.2423,0\O,97,1.49631,94,102.743,93,38.2993,0\C,97,1.80769,94,97.5496,93,143.731,0\H,99,1.09257,97,106.201,94,-55.7018,0\H,99,1.09307,97,103.34,94,-171.426,0\H,99,1.09353,97,114.377,94,69.3614,0\H,6,2.2152,3,103.442,1,64.0184,0\C,103,1.09322,6,129.616,3,-145.819,0\H,104,1.0926,103,108.46,6,-104.411,0\H,104,1.09284,103,112.709,6,25.8141,0\S,104,1.80721,103,106.175,6,146.051,0\O,107,1.49712,104,100.109,103,-51.7378,0\C,107,1.80663,104,93.2608,103,49.5733,0\H,109,1.09302,107,109.545,104,-161.699,0\H,109,1.09315,107,110.923,104,-46.3476,0\H,109,1.09396,107,113.808,104,76.6641,0\O,81,2.26687,79,153.78,77,-118.934,0\S,113,1.49677,81,149.164,79,-164.345,0\C,114,1.80695,113,102.56,81,-132.549,0\H,115,1.09241,114,111.863,113,24.1025,0\H,115,1.09319,114,116.142,113,147.11,0\H,115,1.09394,114,100.905,113,-86.8374,0\C,114,1.80708,113,96.9208,81,-38.0462,0\H,119,1.09298,114,109.605,113,75.0307,0\H,119,1.09317,114,102.623,113,-158.286,0\H,119,1.09421,114,104.438,113,-45.5028,0\H,121,2.23462,119,146.584,114,-175.357,0\C,123,1.09316,121,95.2971,119,54.1231,0\H,124,1.09217,123,122.809,121,24.9475,0\H,124,1.09247,123,100.323,121,-99.4662,0\S,124,1.80681,123,108.248,121,151.878,0\O,127,1.49746,124,102.899,123,172.375,0\C,127,1.80702,124,93.8265,123,-86.4447,0\H,129,1.09274,127,106.067,124,52.6366,0\H,129,1.09303,127,104.985,124,165.584,0\H,129,1.09335,127,102.435,124,-77.992,0\H,106,2.27381,104,138.995,103,-108.991,0\C,133,1.09322,106,114.364,104,-30.3054,0\H,134,1.09315,133,110.634,106,127.508,0\H,134,1.09372,133,107.613,106,0.728977,0\S,134,1.80657,133,103.702,106,-116.591,0\O,137,1.49683,134,102.63,133,52.9577,0\C,137,1.80721,134,97.3291,133,156.661,0\H,139,1.0925,137,103.348,134,151.487,0\H,139,1.09289,137,107.79,134,26.5673,0\H,139,1.0931,137,107.181,134,-86.1963,0\O,117,2.27782,115,145.075,114,-143.197,0\S,143,1.49731,117,150.545,115,145.225,0\C,144,1.80695,143,104.383,117,167.034,0\H,145,1.09257,144,109.728,143,-109.355,0\H,145,1.09266,144,115.386,143,117.011,0\H,145,1.09302,144,98.4598,143,4.46404,0\C,144,1.80701,143,100.307,117,65.8979,0\H,149,1.09248,144,105.38,143,51.9138,0\H,149,1.0933,144,103.251,143,-59.3099,0\H,149,1.0934,144,116.57,143,-179.189,0\H,5,2.31524,3,131.286,1,-127.249,0\C,153,1.09292,5,158.994,3,-55.4401,0\H,154,1.09295,153,108.836,5,172.902,0\H,154,1.09326,153,112.576,5,49.165,0\S,154,1.80747,153,110.388,5,-70.1153,0\O,157,1.49735,154,95.7482,153,63.4657,0\C,157,1.80699,154,101.715,153,159.055,0\H,159,1.09265,157,105.472,154,-171.27,0\H,159,1.09284,157,103.298,154,67.3066,0\H,159,1.09287,157,112.882,154,-48.4662,0\H,53,2.32215,36,78.557,34,-141.905,0\C,163,1.09305,53,162.869,36,-0.909135,0\H,164,1.09324,163,113.889,53,-116.58,0\H,164,1.09338,163,110.161,53,4.53926,0\S,164,1.80623,163,104.483,53,122.466,0\O,167,1.49746,164,101.525,163,-61.0711,0\C,167,1.80751,164,93.0727,163,-168.042,0\H,169,1.09267,167,105.564,164,-51.6364,0\H,169,1.09274,167,105.866,164,71.6518,0\H,169,1.09292,167,111.306,164,-172.244,0\H,158,2.3384,157,128.69,154,151.416,0\C,173,1.09289,158,173.528,157,-105.666,0\H,174,1.09231,173,112.765,158,75.478,0\H,174,1.09319,173,109.852,158,-165.475,0\S,174,1.80646,173,111.31,158,-32.618,0\O,177,1.49722,174,106.021,173,108.943,0\C,177,1.80693,174,103.641,173,0.642876,0\H,179,1.09219,177,113.939,174,171.442,0\H,179,1.093,177,106.003,174,-64.2444,0\H,179,1.09346,177,114.371,174,49.8739,0\O,162,2.3441,159,139.053,157,93.5506,0\S,183,1.49704,162,126.167,159,-39.6454,0\C,184,1.80618,183,105.456,162,-167.661,0\H,185,1.09277,184,107.69,183,-179.189,0\H,185,1.09293,184,113.707,183,-57.5772,0\H,185,1.09313,184,107.278,183,62.3307,0\C,184,1.80658,183,102.001,162,96.2417,0\H,189,1.0925,184,101.37,183,177.777,0\H,189,1.09277,184,108.181,183,-67.2949,0\H,189,1.09318,184,103.856,183,55.7643,0\H,29,2.36104,28,147.173,26,143.73,0\C,193,1.09288,29,145.01,28,138.07,0\H,194,1.0928,193,106.035,29,158.503,0\H,194,1.09355,193,118.439,29,33.9564,0\S,194,1.80708,193,103.407,29,-93.1046,0\O,197,1.49724,194,101.972,193,58.1781,0\C,197,1.80751,194,90.1128,193,156.748,0\H,199,1.0924,197,104.696,194,-55.8351,0\H,199,1.09301,197,115.599,194,53.0264,0\H,199,1.09317,197,114.85,194,-172.612,0\H,86,2.37421,84,114.541,83,-46.2756,0\C,203,1.0937,86,161.033,84,-96.1844,0\H,204,1.09242,203,114.313,86,116.197,0\H,204,1.09283,203,116.828,86,-10.9214,0\S,204,1.80793,203,109.252,86,-126.297,0\O,207,1.49655,204,109.734,203,71.6146,0\C,207,1.80644,204,97.3237,203,171.926,0\H,209,1.09284,207,109.093,204,62.7001,0\H,209,1.09303,207,102.829,204,-56.8396,0\H,209,1.09364,207,106.343,204,-178.2,0\H,162,2.39823,159,104.854,157,157.832,0\C,213,1.09286,162,128.295,159,62.4344,0\H,214,1.09249,213,108.51,162,179.594,0\H,214,1.09335,213,112.228,162,-53.6063,0\S,214,1.80746,213,112.571,162,72.3847,0\O,217,1.49692,214,109.373,213,168.794,0\C,217,1.80664,214,100.932,213,-79.1283,0\H,219,1.09254,217,106.121,214,70.3101,0\H,219,1.09318,217,112.271,214,-50.3818,0\H,219,1.09367,217,108.296,214,-167.36,0\H,190,2.40812,189,157.933,184,-75.4014,0\C,223,1.09252,190,102.476,189,-175.387,0\H,224,1.0921,223,116.5,190,156.07,0\H,224,1.09325,223,113.804,190,26.0676,0\S,224,1.80745,223,105.422,190,-87.1606,0\O,227,1.49689,224,101.456,223,81.2147,0\C,227,1.80697,224,94.831,223,-178.769,0\H,229,1.09297,227,116.424,224,174.225,0\H,229,1.09307,227,100.486,224,50.8745,0\H,229,1.09321,227,109.497,224,-65.3509,0\O,13,2.43312,12,145.547,11,-164.927,0\S,233,1.49617,13,120.608,12,-109.281,0\C,234,1.80682,233,103.894,13,29.0365,0\H,235,1.09262,234,108.797,233,-64.0845,0\H,235,1.09299,234,102.357,233,178.566,0\H,235,1.09353,234,115.55,233,59.4497,0\C,234,1.80785,233,102.882,13,126.698,0\H,239,1.09244,234,111.374,233,-164.938,0\H,239,1.09259,234,110.394,233,74.0008,0\H,239,1.09355,234,103.349,233,-47.7279,0\H,233,2.25755,13,115.256,12,58.1066,0\C,243,1.09358,233,165.473,13,-2.83746,0\H,244,1.09299,243,101.469,233,60.5279,0\H,244,1.09335,243,115.226,233,-54.0344,0\S,244,1.80627,243,108.27,233,170.1,0\O,247,1.49665,244,95.135,243,-154.581,0\C,247,1.80787,244,93.7367,243,-45.0776,0\H,249,1.09246,247,108.778,244,-38.5374,0\H,249,1.09274,247,101.397,244,76.2628,0\H,249,1.09316,247,108.817,244,-162.814,0\O,237,2.38135,235,162.417,234,-6.13604,0\S,253,1.49724,237,174.307,235,156.777,0\C,254,1.80668,253,105.882,237,6.31163,0\H,255,1.09245,254,106.661,253,33.3474,0\H,255,1.09292,254,113.876,253,-87.8709,0\H,255,1.09316,254,107.75,253,148.946,0\C,254,1.80781,253,92.9007,237,109.09,0\H,259,1.09265,254,101.179,253,-43.362,0\H,259,1.09278,254,107.924,253,-162.394,0\H,259,1.09336,254,103.498,253,78.0426,0\H,14,2.46365,12,132.256,11,88.6042,0\C,263,1.09393,14,111.975,12,-113.78,0\H,264,1.09169,263,114.999,14,63.7028,0\H,264,1.09243,263,112.091,14,-168.487,0\S,264,1.80687,263,110.534,14,-48.9948,0\O,267,1.49682,264,100.088,263,76.4723,0\C,267,1.80728,264,94.7339,263,-175.807,0\H,269,1.09228,267,113.864,264,55.8821,0\H,269,1.09268,267,109.447,264,179.01,0\H,269,1.09327,267,110.266,264,-68.1038,0\O,153,2.55026,5,72.3918,3,169.272,0\S,273,1.49728,153,104.433,5,171.593,0\C,274,1.80698,273,108.626,153,-114.802,0\H,275,1.09264,274,110.474,273,-58.4484,0\H,275,1.09295,274,104.749,273,56.6451,0\H,275,1.09296,274,107.066,273,171.062,0\C,274,1.80729,273,100.774,153,146.931,0\H,279,1.09304,274,108.911,273,45.8403,0\H,279,1.09308,274,104.392,273,-75.5341,0\H,279,1.09324,274,98.5082,273,163.465,0\\\@

 Total job time:  64.23s(wall), 228.08s(cpu) 
 Fri Mar 12 10:38:07 2021

        *************************************************************
        *                                                           *
        *  Thank you very much for using Q-Chem.  Have a nice day.  *
        *                                                           *
        *************************************************************


