                  Welcome to Q-Chem
     A Quantum Leap Into The Future Of Chemistry


 Q-Chem 5.2 (devel), Q-Chem, Inc., Pleasanton, CA (2019)

 Yihan Shao,  Zhengting Gan,  E. Epifanovsky,  A. T. B. Gilbert,  M. Wormit,  
 J. Kussmann,  A. W. Lange,  A. Behn,  Jia Deng,  Xintian Feng,  D. Ghosh,  
 M. Goldey,  P. R. Horn,  L. D. Jacobson,  I. Kaliman,  T. Kus,  A. Landau,  
 Jie Liu,  E. I. Proynov,  R. M. Richard,  R. P. Steele,  E. J. Sundstrom,  
 H. L. Woodcock III,  P. M. Zimmerman,  D. Zuev,  B. Alam,  B. Albrecht,  
 E. Alguire,  S. A. Baeppler,  D. Barton,  Z. Benda,  Y. A. Bernard,  
 E. J. Berquist,  K. B. Bravaya,  H. Burton,  K. Carter-Fenk,  D. Casanova,  
 Chun-Min Chang,  Yunqing Chen,  A. Chien,  K. D. Closser,  M. P. Coons,  
 S. Coriani,  S. Dasgupta,  A. L. Dempwolff,  M. Diedenhofen,  Hainam Do,  
 R. G. Edgar,  Po-Tung Fang,  S. Faraji,  S. Fatehi,  Qingguo Feng,  
 J. Fosso-Tande,  J. Gayvert,  Qinghui Ge,  A. Ghysels,  G. Gidofalvi,  
 J. Gomes,  J. Gonthier,  A. Gunina,  D. Hait,  M. W. D. Hanson-Heine,  
 P. H. P. Harbach,  A. W. Hauser,  M. F. Herbst,  J. E. Herr,  
 E. G. Hohenstein,  Z. C. Holden,  Kerwin Hui,  B. C. Huynh,  T.-C. Jagau,  
 Hyunjun Ji,  B. Kaduk,  K. Khistyaev,  Jaehoon Kim,  P. Klunzinger,  K. Koh,  
 D. Kosenkov,  L. Koulias,  T. Kowalczyk,  C. M. Krauter,  A. Kunitsa,  
 Ka Un Lao,  A. Laurent,  K. V. Lawler,  Joonho Lee,  D. Lefrancois,  
 S. Lehtola,  D. S. Levine,  Yi-Pei Li,  You-Sheng Lin,  Fenglai Liu,  
 Kuan-Yu Liu,  E. Livshits,  M. Loipersberger,  A. Luenser,  P. Manohar,  
 E. Mansoor,  S. F. Manzer,  Shan-Ping Mao,  Yuezhi Mao,  N. Mardirossian,  
 A. V. Marenich,  T. Markovich,  L. A. Martinez-Martinez,  S. A. Maurer,  
 N. J. Mayhall,  S. C. McKenzie,  J.-M. Mewes,  P. Morgante,  A. F. Morrison,  
 J. W. Mullinax,  K. Nanda,  T. S. Nguyen-Beck,  R. Olivares-Amaya,  
 J. A. Parkhill,  S. K. Paul,  F. Pavosevic,  Zheng Pei,  T. M. Perrine,  
 F. Plasser,  P. Pokhilko,  S. Prager,  A. Prociuk,  E. Ramos,  B. Rana,  
 D. R. Rehn,  F. Rob,  M. Scheurer,  M. Schneider,  N. Sergueev,  
 S. M. Sharada,  S. Sharma,  D. W. Small,  T. Stauch,  C. J. Stein,  
 T. Stein,  Yu-Chuan Su,  S. P. Veccham,  Zhen Tao,  A. J. W. Thom,  
 A. Tkatchenko,  T. Tsuchimochi,  N. M. Tubman,  L. Vogt,  M. L. Vidal,  
 O. Vydrov,  M. A. Watson,  J. Wenzel,  M. de Wergifosse,  T. A. Wesolowski,  
 A. White,  J. Witte,  A. Yamada,  Jun Yang,  K. Yao,  S. Yeganeh,  
 S. R. Yost,  Zhi-Qiang You,  A. Zech,  Igor Ying Zhang,  Xing Zhang,  
 Yan Zhao,  Ying Zhu,  B. R. Brooks,  G. K. L. Chan,  C. J. Cramer,  
 M. S. Gordon,  W. J. Hehre,  A. Klamt,  M. W. Schmidt,  C. D. Sherrill,  
 D. G. Truhlar,  A. Aspuru-Guzik,  R. Baer,  A. T. Bell,  N. A. Besley,  
 Jeng-Da Chai,  A. E. DePrince, III,  R. A. DiStasio Jr.,  A. Dreuw,  
 B. D. Dunietz,  T. R. Furlani,  Chao-Ping Hsu,  Yousung Jung,  Jing Kong,  
 D. S. Lambrecht,  WanZhen Liang,  C. Ochsenfeld,  V. A. Rassolov,  
 L. V. Slipchenko,  J. E. Subotnik,  T. Van Voorhis,  J. M. Herbert,  
 A. I. Krylov,  P. M. W. Gill,  M. Head-Gordon

 Contributors to earlier versions of Q-Chem not listed above: 
 R. D. Adamson,  B. Austin,  J. Baker,  G. J. O. Beran,  K. Brandhorst,  
 S. T. Brown,  E. F. C. Byrd,  A. K. Chakraborty,  C.-L. Cheng,  
 Siu Hung Chien,  D. M. Chipman,  D. L. Crittenden,  H. Dachsel,  
 R. J. Doerksen,  A. D. Dutoi,  L. Fusti-Molnar,  W. A. Goddard III,  
 A. Golubeva-Zadorozhnaya,  S. R. Gwaltney,  G. Hawkins,  A. Heyden,  
 S. Hirata,  G. Kedziora,  F. J. Keil,  C. Kelley,  Jihan Kim,  R. A. King,  
 R. Z. Khaliullin,  P. P. Korambath,  W. Kurlancheek,  A. M. Lee,  M. S. Lee,  
 S. V. Levchenko,  Ching Yeh Lin,  D. Liotard,  R. C. Lochan,  I. Lotan,  
 P. E. Maslen,  N. Nair,  D. P. O'Neill,  D. Neuhauser,  E. Neuscamman,  
 C. M. Oana,  R. Olson,  B. Peters,  R. Peverati,  P. A. Pieniazek,  
 Y. M. Rhee,  J. Ritchie,  M. A. Rohrdanz,  E. Rosta,  N. J. Russ,  
 H. F. Schaefer III,  N. E. Schultz,  N. Shenvi,  A. C. Simmonett,  A. Sodt,  
 D. Stuck,  K. S. Thanthiriwatte,  V. Vanovschi,  Tao Wang,  A. Warshel,  
 C. F. Williams,  Q. Wu,  X. Xu,  W. Zhang

 Please cite Q-Chem as follows:
 Y. Shao et al., Mol. Phys. 113, 184-215 (2015)
 DOI: 10.1080/00268976.2014.952696

 Q-Chem 5.2.2 for Intel X86 EM64T Linux

 Parts of Q-Chem use Armadillo 9.800.1 (Horizon Scraper).
 http://arma.sourceforge.net/

 Q-Chem begins on Thu Mar 11 13:37:45 2021  

Host: n0096.mhg0
0

     Scratch files written to /local/scratch/users/ymao/r7.00_frame_0027_almo_B3LYP_dp.in20210311133742//

Checking the input file for inconsistencies... 	...done.

--------------------------------------------------------------
User input:
--------------------------------------------------------------
$molecule
0 1
--
0 1
C    24.70500   15.45900   28.62200  
C    25.60800   15.93500   27.47300  
C    25.56100   17.47200   27.50900  
C    25.89100   18.04000   28.89900  
C    25.21400   17.38100   30.11200  
C    25.16000   15.84600   30.03900  
H    26.16200   17.89100   26.69300  
H    26.61200   15.56800   27.71600  
H    23.67000   15.77400   28.44600  
H    24.73800   14.36300   28.57900  
H    26.94500   17.78600   29.06200  
H    25.80600   19.13200   28.84000  
H    25.76900   17.76200   30.97700  
H    24.18100   17.73900   30.20600  
H    26.12800   15.44700   30.36500  
H    24.44000   15.48100   30.78200  
H    24.53500   17.78900   27.28100  
N    25.33500   15.33100   26.16900  
H    24.86400   15.90300   25.47900  
C    25.86600   14.13900   25.72600  
H    25.61600   13.94900   24.66700  
O    26.66500   13.45300   26.34000  
--
0 1
C    19.91100   19.09100   29.95400  
H    19.19600   18.68700   30.67600  
H    20.79200   18.45000   29.86700  
H    20.18400   20.10000   30.27200  
S    18.97200   19.30200   28.42500  
C    20.32800   20.16200   27.59700  
H    20.47200   21.06100   28.20200  
H    21.21600   19.52500   27.62500  
H    20.16700   20.51200   26.57400  
O    18.00000   20.40100   28.72300  
C    21.72800   19.11300   24.60100  
H    22.50600   19.79300   24.95600  
H    21.23700   18.72300   25.49700  
H    22.23600   18.25900   24.14600  
S    20.59200   19.99300   23.50500  
C    21.92100   20.55100   22.41500  
H    22.72800   21.02600   22.98000  
H    22.18500   19.77600   21.69100  
H    21.41600   21.34100   21.85400  
O    20.18500   21.12600   24.39500  
C    29.16700   17.02900   31.45000  
H    28.66100   17.75800   32.08800  
H    29.25500   17.36600   30.41400  
H    28.63100   16.08300   31.55700  
S    30.86500   16.70100   31.97300  
C    30.52900   16.67700   33.74900  
H    30.00500   17.59200   34.03600  
H    30.00200   15.77600   34.07100  
H    31.43600   16.56800   34.35000  
O    31.52100   18.00900   31.65400  
C    23.03100   23.42300   36.35300  
H    23.57200   22.94100   37.17100  
H    23.37700   24.44800   36.19800  
H    21.95500   23.42200   36.54700  
S    23.27600   22.47800   34.83200  
C    25.07100   22.65200   34.94300  
H    25.37200   22.19000   33.99900  
H    25.45100   23.67000   34.82900  
H    25.55400   22.13000   35.77300  
O    22.85600   23.42900   33.75500  
C    27.56800   9.83000    27.74100  
H    27.48400   9.32200    28.70500  
H    26.91000   10.70000   27.67000  
H    27.42200   9.06800    26.97100  
S    29.19400   10.61500   27.67200  
C    29.20100   10.48000   25.87000  
H    30.17500   10.90800   25.62000  
H    29.12900   9.42500    25.59500  
H    28.42300   11.19200   25.58200  
O    30.18500   9.56500    28.06700  
C    24.15000   19.55000   36.85300  
H    23.75100   18.53400   36.90700  
H    23.59300   20.25500   37.47600  
H    24.16400   19.93300   35.82900  
S    25.86700   19.40900   37.39600  
C    25.50900   18.10200   38.59100  
H    25.41000   17.15100   38.06000  
H    26.27100   18.15700   39.37300  
H    24.62300   18.36900   39.17300  
O    26.18000   20.70400   38.07700  
C    23.18300   12.89900   35.53900  
H    24.17900   12.60500   35.19700  
H    23.10200   13.95600   35.80700  
H    23.05800   12.33500   36.46600  
S    21.81100   12.33300   34.50900  
C    22.38400   13.44400   33.20400  
H    23.03700   14.16900   33.69600  
H    22.95100   12.86300   32.47100  
H    21.48800   13.84800   32.72600  
O    20.64400   13.10600   35.03900  
C    31.41400   13.96700   22.57000  
H    30.79600   14.39200   21.77500  
H    31.87400   14.68900   23.25000  
H    32.32800   13.56300   22.12600  
S    30.44200   12.86000   23.61600  
C    29.42300   14.07300   24.48500  
H    28.61900   14.41000   23.82500  
H    29.04000   13.65600   25.41900  
H    30.08400   14.89700   24.76300  
O    31.47500   12.53300   24.64800  
C    26.96300   19.90600   32.74100  
H    27.64800   19.42700   32.03600  
H    26.32700   19.08600   33.08300  
H    26.53100   20.83800   32.36800  
S    28.04700   20.30300   34.13100  
C    29.46000   20.90500   33.18000  
H    30.04900   21.68400   33.67200  
H    30.15100   20.11600   32.87200  
H    28.98600   21.38900   32.32200  
O    28.42700   19.01000   34.78300  
C    28.71500   22.63200   24.18300  
H    28.40000   21.71300   24.68500  
H    29.80400   22.71300   24.13200  
H    28.33000   23.58100   24.56300  
S    28.13700   22.66700   22.47100  
C    27.48900   20.98100   22.43900  
H    26.61300   20.85500   23.07900  
H    27.10300   20.68400   21.46000  
H    28.23700   20.24700   22.75100  
O    29.41500   22.53800   21.70000  
C    20.40100   18.67500   33.27300  
H    20.27900   19.03100   34.29900  
H    20.30700   19.50500   32.56800  
H    19.61500   17.95900   33.02400  
S    22.14200   18.24600   33.04900  
C    22.21500   17.16300   34.49300  
H    23.19300   16.67700   34.54000  
H    22.27100   17.90200   35.29800  
H    21.33800   16.51800   34.58500  
O    22.89500   19.47600   33.45300  
C    30.72000   12.67200   30.23100  
H    31.19900   13.43200   30.85300  
H    30.94300   11.72300   30.72600  
H    31.16600   12.60200   29.23600  
S    28.94700   13.02000   30.18100  
C    29.13600   14.47500   29.12700  
H    28.21100   15.04000   29.27300  
H    29.98200   15.06300   29.49100  
H    29.24800   14.15900   28.08700  
O    28.74700   13.50500   31.58300  
C    24.83100   14.41700   20.99400  
H    25.79300   14.93400   21.04400  
H    24.35200   14.49000   21.97300  
H    24.93500   13.38600   20.64700  
S    23.79200   15.33200   19.83300  
C    22.75500   14.06800   19.06300  
H    22.39500   14.56600   18.15900  
H    23.42900   13.23800   18.83700  
H    22.10000   13.64000   19.82600  
O    24.72300   15.73300   18.73100  
C    23.45100   24.24200   30.13400  
H    22.75300   24.37900   29.30400  
H    23.10200   24.73700   31.04400  
H    24.51000   24.33100   29.87500  
S    22.99400   22.52900   30.48000  
C    24.43000   21.92300   31.39400  
H    25.19000   21.57100   30.69100  
H    24.80400   22.67600   32.09300  
H    24.08200   21.04800   31.94800  
O    23.01600   21.84100   29.15000  
C    27.54000   25.43600   30.83500  
H    27.41400   24.86600   29.91100  
H    26.55500   25.86500   31.03500  
H    28.27200   26.23800   30.70800  
S    27.82600   24.24100   32.16000  
C    29.61000   24.07000   31.92700  
H    29.87800   23.45000   31.06800  
H    30.13900   25.02300   31.85000  
H    29.97200   23.66600   32.87600  
O    27.07700   22.99500   31.80200  
C    32.10900   18.60700   22.09300  
H    32.55000   17.78600   22.66400  
H    32.14800   18.43800   21.01400  
H    32.54200   19.58900   22.30100  
S    30.32200   18.54100   22.35400  
C    30.47500   19.09800   24.06700  
H    31.49500   18.84900   24.37100  
H    30.29400   20.16900   24.18800  
H    29.73000   18.56800   24.66500  
O    30.05300   17.07300   22.47000  
C    16.23200   15.17600   32.36500  
H    16.17000   16.15400   32.85000  
H    15.46300   15.23600   31.59100  
H    15.89000   14.37800   33.03000  
S    17.93300   14.91400   31.81400  
C    18.56100   15.19200   33.48500  
H    18.82800   14.31400   34.08000  
H    19.47000   15.78000   33.33000  
H    17.85100   15.79600   34.05500  
O    18.28600   16.25400   31.24700  
C    24.78500   17.87000   22.21400  
H    24.65800   16.82300   21.92500  
H    23.86800   18.44100   22.04600  
H    25.55300   18.33300   21.59100  
S    25.48200   18.04400   23.87200  
C    26.80200   16.84000   23.60100  
H    26.41800   15.99700   23.02100  
H    27.49100   17.30300   22.89100  
H    27.27800   16.62200   24.56000  
O    24.45500   17.42600   24.76900  
C    25.00100   20.91600   26.45000  
H    24.90000   21.06500   27.52900  
H    24.26200   20.20100   26.08000  
H    25.99700   20.55200   26.18700  
S    24.76600   22.43000   25.49200  
C    23.08700   22.75800   26.07500  
H    22.81300   23.50400   25.32400  
H    22.35400   21.95300   25.97800  
H    23.06700   23.18400   27.08100  
O    24.61700   21.89500   24.10200  
C    20.96200   15.50200   29.53600  
H    20.00200   15.29000   30.01500  
H    21.68200   15.93500   30.23400  
H    20.65600   16.15400   28.71300  
S    21.48900   13.88900   28.91500  
C    19.90800   13.16200   28.42800  
H    19.98200   12.08600   28.60300  
H    19.14600   13.47100   29.14800  
H    19.64600   13.30300   27.37600  
O    21.89900   13.01900   30.06200  
C    22.60900   11.20800   21.66000  
H    23.61400   11.38900   22.04800  
H    22.26600   12.03400   21.03300  
H    21.84200   11.04300   22.42100  
S    22.57700   9.74500    20.60000  
C    23.03300   8.69600    21.99900  
H    22.31700   8.84600    22.81100  
H    23.08800   7.65500    21.67000  
H    24.04500   8.82100    22.39300  
O    23.89400   9.93400    19.91400  
C    26.11100   15.40500   33.49600  
H    27.04100   15.07700   33.02500  
H    25.37500   14.59800   33.52600  
H    25.71700   16.20600   32.86600  
S    26.41000   16.03200   35.16400  
C    27.48100   14.63700   35.57800  
H    28.37700   14.83900   34.98600  
H    27.76300   14.79300   36.62300  
H    26.87800   13.73500   35.45100  
O    25.16100   15.78400   35.95000  
C    28.12300   21.83900   28.15400  
H    27.03600   21.93500   28.09600  
H    28.56500   22.52800   28.87900  
H    28.65400   22.08000   27.22900  
S    28.44900   20.08200   28.41800  
C    30.24600   20.10700   28.61100  
H    30.57700   19.07700   28.45400  
H    30.66200   20.77300   27.85100  
H    30.49500   20.63600   29.53400  
O    28.17700   19.42600   27.10100  
C    24.60500   11.01600   31.07700  
H    24.32600   9.97900    31.28100  
H    23.73500   11.65500   31.24300  
H    24.87600   11.10000   30.02200  
S    26.00500   11.73200   31.96800  
C    26.98700   10.23000   31.75500  
H    28.02600   10.43000   32.02900  
H    26.56600   9.50300    32.45400  
H    26.97400   9.89500    30.71400  
O    25.62700   11.88200   33.40900  
C    24.06700   9.91900    27.10400  
H    23.19300   9.28000    26.95400  
H    24.96100   9.34700    27.36400  
H    23.93200   10.78200   27.76100  
S    23.98500   10.69000   25.47200  
C    22.24100   11.14700   25.59700  
H    21.86500   11.64200   24.69800  
H    21.56500   10.30500   25.76600  
H    22.14000   11.92700   26.35500  
O    23.88100   9.43400    24.66400  
C    34.76500   15.90300   26.42600  
H    35.33600   15.12400   26.93700  
H    34.70900   15.70300   25.35300  
H    35.19100   16.89600   26.58900  
S    33.16600   15.91400   27.26800  
C    32.52500   14.42100   26.47700  
H    31.44900   14.59300   26.39600  
H    32.83900   14.35100   25.43300  
H    32.87700   13.59800   27.10400  
O    32.31000   17.03700   26.77100  
C    27.05200   8.25500    22.29200  
H    27.46100   7.24200    22.31200  
H    26.18300   8.46000    22.92100  
H    26.86900   8.43100    21.22900  
S    28.30300   9.48600    22.72200  
C    27.04300   10.72200   23.11300  
H    26.51100   10.48700   24.03800  
H    27.54800   11.69100   23.14000  
H    26.36000   10.81400   22.26400  
O    28.74500   10.08900   21.42600  
C    21.58600   15.22000   25.38800  
H    22.40900   15.48500   26.05500  
H    20.93200   16.07500   25.20000  
H    21.03100   14.35300   25.75500  
S    22.34900   14.79300   23.80600  
C    20.85700   14.02100   23.14100  
H    21.07300   13.52400   22.19200  
H    20.43300   13.32800   23.87200  
H    20.08700   14.78200   22.99300  
O    23.30300   13.65400   23.98600  
$end

$rem
JOBTYPE  SP
METHOD  B3LYP
BASIS  6-31+G(D)
SYMMETRY  FALSE
SYM_IGNORE  TRUE
MEM_TOTAL  16000
MEM_STATIC  8000
MAX_SUB_FILE_NUM  16000
BASIS_LIN_DEP_THRESH  6
THRESH  14
SCF_CONVERGENCE  8
GEN_SCFMAN  TRUE
SCF_GUESS  FRAGMO
FD_MAT_VEC_PROD  FALSE
XC_GRID  000075000302
NL_GRID  1
MAX_SCF_CYCLES  200
FRGM_METHOD  STOLL
SCFMI_MODE  1
$end

$development
almo_efield  1
$end

$rem_frgm
SCF_CONVERGENCE  4
$end

--------------------------------------------------------------
 ----------------------------------------------------------------
             Standard Nuclear Orientation (Angstroms)
    I     Atom           X                Y                Z
 ----------------------------------------------------------------
    1      C      24.7050000000    15.4590000000    28.6220000000
    2      C      25.6080000000    15.9350000000    27.4730000000
    3      C      25.5610000000    17.4720000000    27.5090000000
    4      C      25.8910000000    18.0400000000    28.8990000000
    5      C      25.2140000000    17.3810000000    30.1120000000
    6      C      25.1600000000    15.8460000000    30.0390000000
    7      H      26.1620000000    17.8910000000    26.6930000000
    8      H      26.6120000000    15.5680000000    27.7160000000
    9      H      23.6700000000    15.7740000000    28.4460000000
   10      H      24.7380000000    14.3630000000    28.5790000000
   11      H      26.9450000000    17.7860000000    29.0620000000
   12      H      25.8060000000    19.1320000000    28.8400000000
   13      H      25.7690000000    17.7620000000    30.9770000000
   14      H      24.1810000000    17.7390000000    30.2060000000
   15      H      26.1280000000    15.4470000000    30.3650000000
   16      H      24.4400000000    15.4810000000    30.7820000000
   17      H      24.5350000000    17.7890000000    27.2810000000
   18      N      25.3350000000    15.3310000000    26.1690000000
   19      H      24.8640000000    15.9030000000    25.4790000000
   20      C      25.8660000000    14.1390000000    25.7260000000
   21      H      25.6160000000    13.9490000000    24.6670000000
   22      O      26.6650000000    13.4530000000    26.3400000000
   23      C      19.9110000000    19.0910000000    29.9540000000
   24      H      19.1960000000    18.6870000000    30.6760000000
   25      H      20.7920000000    18.4500000000    29.8670000000
   26      H      20.1840000000    20.1000000000    30.2720000000
   27      S      18.9720000000    19.3020000000    28.4250000000
   28      C      20.3280000000    20.1620000000    27.5970000000
   29      H      20.4720000000    21.0610000000    28.2020000000
   30      H      21.2160000000    19.5250000000    27.6250000000
   31      H      20.1670000000    20.5120000000    26.5740000000
   32      O      18.0000000000    20.4010000000    28.7230000000
   33      C      21.7280000000    19.1130000000    24.6010000000
   34      H      22.5060000000    19.7930000000    24.9560000000
   35      H      21.2370000000    18.7230000000    25.4970000000
   36      H      22.2360000000    18.2590000000    24.1460000000
   37      S      20.5920000000    19.9930000000    23.5050000000
   38      C      21.9210000000    20.5510000000    22.4150000000
   39      H      22.7280000000    21.0260000000    22.9800000000
   40      H      22.1850000000    19.7760000000    21.6910000000
   41      H      21.4160000000    21.3410000000    21.8540000000
   42      O      20.1850000000    21.1260000000    24.3950000000
   43      C      29.1670000000    17.0290000000    31.4500000000
   44      H      28.6610000000    17.7580000000    32.0880000000
   45      H      29.2550000000    17.3660000000    30.4140000000
   46      H      28.6310000000    16.0830000000    31.5570000000
   47      S      30.8650000000    16.7010000000    31.9730000000
   48      C      30.5290000000    16.6770000000    33.7490000000
   49      H      30.0050000000    17.5920000000    34.0360000000
   50      H      30.0020000000    15.7760000000    34.0710000000
   51      H      31.4360000000    16.5680000000    34.3500000000
   52      O      31.5210000000    18.0090000000    31.6540000000
   53      C      23.0310000000    23.4230000000    36.3530000000
   54      H      23.5720000000    22.9410000000    37.1710000000
   55      H      23.3770000000    24.4480000000    36.1980000000
   56      H      21.9550000000    23.4220000000    36.5470000000
   57      S      23.2760000000    22.4780000000    34.8320000000
   58      C      25.0710000000    22.6520000000    34.9430000000
   59      H      25.3720000000    22.1900000000    33.9990000000
   60      H      25.4510000000    23.6700000000    34.8290000000
   61      H      25.5540000000    22.1300000000    35.7730000000
   62      O      22.8560000000    23.4290000000    33.7550000000
   63      C      27.5680000000     9.8300000000    27.7410000000
   64      H      27.4840000000     9.3220000000    28.7050000000
   65      H      26.9100000000    10.7000000000    27.6700000000
   66      H      27.4220000000     9.0680000000    26.9710000000
   67      S      29.1940000000    10.6150000000    27.6720000000
   68      C      29.2010000000    10.4800000000    25.8700000000
   69      H      30.1750000000    10.9080000000    25.6200000000
   70      H      29.1290000000     9.4250000000    25.5950000000
   71      H      28.4230000000    11.1920000000    25.5820000000
   72      O      30.1850000000     9.5650000000    28.0670000000
   73      C      24.1500000000    19.5500000000    36.8530000000
   74      H      23.7510000000    18.5340000000    36.9070000000
   75      H      23.5930000000    20.2550000000    37.4760000000
   76      H      24.1640000000    19.9330000000    35.8290000000
   77      S      25.8670000000    19.4090000000    37.3960000000
   78      C      25.5090000000    18.1020000000    38.5910000000
   79      H      25.4100000000    17.1510000000    38.0600000000
   80      H      26.2710000000    18.1570000000    39.3730000000
   81      H      24.6230000000    18.3690000000    39.1730000000
   82      O      26.1800000000    20.7040000000    38.0770000000
   83      C      23.1830000000    12.8990000000    35.5390000000
   84      H      24.1790000000    12.6050000000    35.1970000000
   85      H      23.1020000000    13.9560000000    35.8070000000
   86      H      23.0580000000    12.3350000000    36.4660000000
   87      S      21.8110000000    12.3330000000    34.5090000000
   88      C      22.3840000000    13.4440000000    33.2040000000
   89      H      23.0370000000    14.1690000000    33.6960000000
   90      H      22.9510000000    12.8630000000    32.4710000000
   91      H      21.4880000000    13.8480000000    32.7260000000
   92      O      20.6440000000    13.1060000000    35.0390000000
   93      C      31.4140000000    13.9670000000    22.5700000000
   94      H      30.7960000000    14.3920000000    21.7750000000
   95      H      31.8740000000    14.6890000000    23.2500000000
   96      H      32.3280000000    13.5630000000    22.1260000000
   97      S      30.4420000000    12.8600000000    23.6160000000
   98      C      29.4230000000    14.0730000000    24.4850000000
   99      H      28.6190000000    14.4100000000    23.8250000000
  100      H      29.0400000000    13.6560000000    25.4190000000
  101      H      30.0840000000    14.8970000000    24.7630000000
  102      O      31.4750000000    12.5330000000    24.6480000000
  103      C      26.9630000000    19.9060000000    32.7410000000
  104      H      27.6480000000    19.4270000000    32.0360000000
  105      H      26.3270000000    19.0860000000    33.0830000000
  106      H      26.5310000000    20.8380000000    32.3680000000
  107      S      28.0470000000    20.3030000000    34.1310000000
  108      C      29.4600000000    20.9050000000    33.1800000000
  109      H      30.0490000000    21.6840000000    33.6720000000
  110      H      30.1510000000    20.1160000000    32.8720000000
  111      H      28.9860000000    21.3890000000    32.3220000000
  112      O      28.4270000000    19.0100000000    34.7830000000
  113      C      28.7150000000    22.6320000000    24.1830000000
  114      H      28.4000000000    21.7130000000    24.6850000000
  115      H      29.8040000000    22.7130000000    24.1320000000
  116      H      28.3300000000    23.5810000000    24.5630000000
  117      S      28.1370000000    22.6670000000    22.4710000000
  118      C      27.4890000000    20.9810000000    22.4390000000
  119      H      26.6130000000    20.8550000000    23.0790000000
  120      H      27.1030000000    20.6840000000    21.4600000000
  121      H      28.2370000000    20.2470000000    22.7510000000
  122      O      29.4150000000    22.5380000000    21.7000000000
  123      C      20.4010000000    18.6750000000    33.2730000000
  124      H      20.2790000000    19.0310000000    34.2990000000
  125      H      20.3070000000    19.5050000000    32.5680000000
  126      H      19.6150000000    17.9590000000    33.0240000000
  127      S      22.1420000000    18.2460000000    33.0490000000
  128      C      22.2150000000    17.1630000000    34.4930000000
  129      H      23.1930000000    16.6770000000    34.5400000000
  130      H      22.2710000000    17.9020000000    35.2980000000
  131      H      21.3380000000    16.5180000000    34.5850000000
  132      O      22.8950000000    19.4760000000    33.4530000000
  133      C      30.7200000000    12.6720000000    30.2310000000
  134      H      31.1990000000    13.4320000000    30.8530000000
  135      H      30.9430000000    11.7230000000    30.7260000000
  136      H      31.1660000000    12.6020000000    29.2360000000
  137      S      28.9470000000    13.0200000000    30.1810000000
  138      C      29.1360000000    14.4750000000    29.1270000000
  139      H      28.2110000000    15.0400000000    29.2730000000
  140      H      29.9820000000    15.0630000000    29.4910000000
  141      H      29.2480000000    14.1590000000    28.0870000000
  142      O      28.7470000000    13.5050000000    31.5830000000
  143      C      24.8310000000    14.4170000000    20.9940000000
  144      H      25.7930000000    14.9340000000    21.0440000000
  145      H      24.3520000000    14.4900000000    21.9730000000
  146      H      24.9350000000    13.3860000000    20.6470000000
  147      S      23.7920000000    15.3320000000    19.8330000000
  148      C      22.7550000000    14.0680000000    19.0630000000
  149      H      22.3950000000    14.5660000000    18.1590000000
  150      H      23.4290000000    13.2380000000    18.8370000000
  151      H      22.1000000000    13.6400000000    19.8260000000
  152      O      24.7230000000    15.7330000000    18.7310000000
  153      C      23.4510000000    24.2420000000    30.1340000000
  154      H      22.7530000000    24.3790000000    29.3040000000
  155      H      23.1020000000    24.7370000000    31.0440000000
  156      H      24.5100000000    24.3310000000    29.8750000000
  157      S      22.9940000000    22.5290000000    30.4800000000
  158      C      24.4300000000    21.9230000000    31.3940000000
  159      H      25.1900000000    21.5710000000    30.6910000000
  160      H      24.8040000000    22.6760000000    32.0930000000
  161      H      24.0820000000    21.0480000000    31.9480000000
  162      O      23.0160000000    21.8410000000    29.1500000000
  163      C      27.5400000000    25.4360000000    30.8350000000
  164      H      27.4140000000    24.8660000000    29.9110000000
  165      H      26.5550000000    25.8650000000    31.0350000000
  166      H      28.2720000000    26.2380000000    30.7080000000
  167      S      27.8260000000    24.2410000000    32.1600000000
  168      C      29.6100000000    24.0700000000    31.9270000000
  169      H      29.8780000000    23.4500000000    31.0680000000
  170      H      30.1390000000    25.0230000000    31.8500000000
  171      H      29.9720000000    23.6660000000    32.8760000000
  172      O      27.0770000000    22.9950000000    31.8020000000
  173      C      32.1090000000    18.6070000000    22.0930000000
  174      H      32.5500000000    17.7860000000    22.6640000000
  175      H      32.1480000000    18.4380000000    21.0140000000
  176      H      32.5420000000    19.5890000000    22.3010000000
  177      S      30.3220000000    18.5410000000    22.3540000000
  178      C      30.4750000000    19.0980000000    24.0670000000
  179      H      31.4950000000    18.8490000000    24.3710000000
  180      H      30.2940000000    20.1690000000    24.1880000000
  181      H      29.7300000000    18.5680000000    24.6650000000
  182      O      30.0530000000    17.0730000000    22.4700000000
  183      C      16.2320000000    15.1760000000    32.3650000000
  184      H      16.1700000000    16.1540000000    32.8500000000
  185      H      15.4630000000    15.2360000000    31.5910000000
  186      H      15.8900000000    14.3780000000    33.0300000000
  187      S      17.9330000000    14.9140000000    31.8140000000
  188      C      18.5610000000    15.1920000000    33.4850000000
  189      H      18.8280000000    14.3140000000    34.0800000000
  190      H      19.4700000000    15.7800000000    33.3300000000
  191      H      17.8510000000    15.7960000000    34.0550000000
  192      O      18.2860000000    16.2540000000    31.2470000000
  193      C      24.7850000000    17.8700000000    22.2140000000
  194      H      24.6580000000    16.8230000000    21.9250000000
  195      H      23.8680000000    18.4410000000    22.0460000000
  196      H      25.5530000000    18.3330000000    21.5910000000
  197      S      25.4820000000    18.0440000000    23.8720000000
  198      C      26.8020000000    16.8400000000    23.6010000000
  199      H      26.4180000000    15.9970000000    23.0210000000
  200      H      27.4910000000    17.3030000000    22.8910000000
  201      H      27.2780000000    16.6220000000    24.5600000000
  202      O      24.4550000000    17.4260000000    24.7690000000
  203      C      25.0010000000    20.9160000000    26.4500000000
  204      H      24.9000000000    21.0650000000    27.5290000000
  205      H      24.2620000000    20.2010000000    26.0800000000
  206      H      25.9970000000    20.5520000000    26.1870000000
  207      S      24.7660000000    22.4300000000    25.4920000000
  208      C      23.0870000000    22.7580000000    26.0750000000
  209      H      22.8130000000    23.5040000000    25.3240000000
  210      H      22.3540000000    21.9530000000    25.9780000000
  211      H      23.0670000000    23.1840000000    27.0810000000
  212      O      24.6170000000    21.8950000000    24.1020000000
  213      C      20.9620000000    15.5020000000    29.5360000000
  214      H      20.0020000000    15.2900000000    30.0150000000
  215      H      21.6820000000    15.9350000000    30.2340000000
  216      H      20.6560000000    16.1540000000    28.7130000000
  217      S      21.4890000000    13.8890000000    28.9150000000
  218      C      19.9080000000    13.1620000000    28.4280000000
  219      H      19.9820000000    12.0860000000    28.6030000000
  220      H      19.1460000000    13.4710000000    29.1480000000
  221      H      19.6460000000    13.3030000000    27.3760000000
  222      O      21.8990000000    13.0190000000    30.0620000000
  223      C      22.6090000000    11.2080000000    21.6600000000
  224      H      23.6140000000    11.3890000000    22.0480000000
  225      H      22.2660000000    12.0340000000    21.0330000000
  226      H      21.8420000000    11.0430000000    22.4210000000
  227      S      22.5770000000     9.7450000000    20.6000000000
  228      C      23.0330000000     8.6960000000    21.9990000000
  229      H      22.3170000000     8.8460000000    22.8110000000
  230      H      23.0880000000     7.6550000000    21.6700000000
  231      H      24.0450000000     8.8210000000    22.3930000000
  232      O      23.8940000000     9.9340000000    19.9140000000
  233      C      26.1110000000    15.4050000000    33.4960000000
  234      H      27.0410000000    15.0770000000    33.0250000000
  235      H      25.3750000000    14.5980000000    33.5260000000
  236      H      25.7170000000    16.2060000000    32.8660000000
  237      S      26.4100000000    16.0320000000    35.1640000000
  238      C      27.4810000000    14.6370000000    35.5780000000
  239      H      28.3770000000    14.8390000000    34.9860000000
  240      H      27.7630000000    14.7930000000    36.6230000000
  241      H      26.8780000000    13.7350000000    35.4510000000
  242      O      25.1610000000    15.7840000000    35.9500000000
  243      C      28.1230000000    21.8390000000    28.1540000000
  244      H      27.0360000000    21.9350000000    28.0960000000
  245      H      28.5650000000    22.5280000000    28.8790000000
  246      H      28.6540000000    22.0800000000    27.2290000000
  247      S      28.4490000000    20.0820000000    28.4180000000
  248      C      30.2460000000    20.1070000000    28.6110000000
  249      H      30.5770000000    19.0770000000    28.4540000000
  250      H      30.6620000000    20.7730000000    27.8510000000
  251      H      30.4950000000    20.6360000000    29.5340000000
  252      O      28.1770000000    19.4260000000    27.1010000000
  253      C      24.6050000000    11.0160000000    31.0770000000
  254      H      24.3260000000     9.9790000000    31.2810000000
  255      H      23.7350000000    11.6550000000    31.2430000000
  256      H      24.8760000000    11.1000000000    30.0220000000
  257      S      26.0050000000    11.7320000000    31.9680000000
  258      C      26.9870000000    10.2300000000    31.7550000000
  259      H      28.0260000000    10.4300000000    32.0290000000
  260      H      26.5660000000     9.5030000000    32.4540000000
  261      H      26.9740000000     9.8950000000    30.7140000000
  262      O      25.6270000000    11.8820000000    33.4090000000
  263      C      24.0670000000     9.9190000000    27.1040000000
  264      H      23.1930000000     9.2800000000    26.9540000000
  265      H      24.9610000000     9.3470000000    27.3640000000
  266      H      23.9320000000    10.7820000000    27.7610000000
  267      S      23.9850000000    10.6900000000    25.4720000000
  268      C      22.2410000000    11.1470000000    25.5970000000
  269      H      21.8650000000    11.6420000000    24.6980000000
  270      H      21.5650000000    10.3050000000    25.7660000000
  271      H      22.1400000000    11.9270000000    26.3550000000
  272      O      23.8810000000     9.4340000000    24.6640000000
  273      C      34.7650000000    15.9030000000    26.4260000000
  274      H      35.3360000000    15.1240000000    26.9370000000
  275      H      34.7090000000    15.7030000000    25.3530000000
  276      H      35.1910000000    16.8960000000    26.5890000000
  277      S      33.1660000000    15.9140000000    27.2680000000
  278      C      32.5250000000    14.4210000000    26.4770000000
  279      H      31.4490000000    14.5930000000    26.3960000000
  280      H      32.8390000000    14.3510000000    25.4330000000
  281      H      32.8770000000    13.5980000000    27.1040000000
  282      O      32.3100000000    17.0370000000    26.7710000000
  283      C      27.0520000000     8.2550000000    22.2920000000
  284      H      27.4610000000     7.2420000000    22.3120000000
  285      H      26.1830000000     8.4600000000    22.9210000000
  286      H      26.8690000000     8.4310000000    21.2290000000
  287      S      28.3030000000     9.4860000000    22.7220000000
  288      C      27.0430000000    10.7220000000    23.1130000000
  289      H      26.5110000000    10.4870000000    24.0380000000
  290      H      27.5480000000    11.6910000000    23.1400000000
  291      H      26.3600000000    10.8140000000    22.2640000000
  292      O      28.7450000000    10.0890000000    21.4260000000
  293      C      21.5860000000    15.2200000000    25.3880000000
  294      H      22.4090000000    15.4850000000    26.0550000000
  295      H      20.9320000000    16.0750000000    25.2000000000
  296      H      21.0310000000    14.3530000000    25.7550000000
  297      S      22.3490000000    14.7930000000    23.8060000000
  298      C      20.8570000000    14.0210000000    23.1410000000
  299      H      21.0730000000    13.5240000000    22.1920000000
  300      H      20.4330000000    13.3280000000    23.8720000000
  301      H      20.0870000000    14.7820000000    22.9930000000
  302      O      23.3030000000    13.6540000000    23.9860000000
 ----------------------------------------------------------------
 Nuclear Repulsion Energy =       51016.51983977 hartrees
 There are      623 alpha and      623 beta electrons
 Requested basis set is 6-31+G(d)
 There are 995 shells and 2773 basis functions

 Total QAlloc Memory Limit  16000 MB
 Mega-Array Size      7821 MB
 MEM_STATIC part      8000 MB
 A cutoff of  1.0D-14 yielded 186983 shell pairs
 There are   1617420 function pairs
 Smallest overlap matrix eigenvalue = 4.47E-07
 Linear dependence detected in AO basis
 Tighter screening thresholds may be required for diffuse basis sets
 Use S2THRESH > 14 and THRESH = 14 in case of SCF convergence issues
 Number of orthogonalized atomic orbitals = 2770
 Maximum deviation from orthogonality = 2.200E-10

 Scale SEOQF with 1.000000e-03/1.000000e-03/1.000000e-03

 Standard Electronic Orientation quadrupole field applied
 Nucleus-field energy     =    -0.0000005429 hartrees
Attempting to make child job directory: /local/scratch/users/ymao/r7.00_frame_0027_almo_B3LYP_dp.in20210311133742//Frg1/
Attempting to make child job directory: /local/scratch/users/ymao/r7.00_frame_0027_almo_B3LYP_dp.in20210311133742//Frg2/
Creating input file /local/scratch/users/ymao/r7.00_frame_0027_almo_B3LYP_dp.in20210311133742/Frg1.input
using default PutDataFrgm: nothing
calling putenv with: QCSCRATCH=/local/scratch/users/ymao/r7.00_frame_0027_almo_B3LYP_dp.in20210311133742/ 
Spawning Job For Fragment 0
Done Job For Fragment 0
calling putenv with: QCSCRATCH=/local/scratch/users/ymao 
calling putenv with: QCTHREADS=8 
Creating input file /local/scratch/users/ymao/r7.00_frame_0027_almo_B3LYP_dp.in20210311133742/Frg2.input
using default PutDataFrgm: nothing
calling putenv with: QCSCRATCH=/local/scratch/users/ymao/r7.00_frame_0027_almo_B3LYP_dp.in20210311133742/ 
Spawning Job For Fragment 1
Done Job For Fragment 1
calling putenv with: QCSCRATCH=/local/scratch/users/ymao 
calling putenv with: QCTHREADS=8 
 Time for running child jobs:  CPU 0.78 s  wall 22412.49 s

 -----------------------------------------------------------------------
  General SCF calculation program by
  Eric Jon Sundstrom, Paul Horn, Yuezhi Mao, Dmitri Zuev, Alec White,
  David Stuck, Shaama M.S., Shane Yost, Joonho Lee, David Small,
  Daniel Levine, Susi Lehtola, Hugh Burton, Evgeny Epifanovsky,
  Bang C. Huynh
 -----------------------------------------------------------------------
Performing Restricted Closed Shell SCFMI
Doing General SCFMI
 Exchange:     0.2000 Hartree-Fock + 0.0800 Slater + 0.7200 B88
 Correlation:  0.1900 VWN1RPA + 0.8100 LYP
 Using Euler-Maclaurin-Lebedev (75,302) quadrature formula
performing fock build before subrot guess so that all methods have access
Printing subrot_rss_gen Method Specification:
Occupied Subspace Method is 0
Virtual Subspace Method is 0
Energy prior to optimization (guess energy) = -15893.886518270876
Begin Timing: Total SCF Calculation
begin iterations for algorithm: DIIS         
the SCF tolerance is set to 1.00e-08
    1  -15893.8865182709      4.58e-05     00000 
    2  -15893.8894651805      5.98e-05     00000 
    3  -15893.8984664476      2.24e-05     00000 
    4  -15893.8997969236      6.75e-06     00000 
    5  -15893.8999614843      3.22e-06     00000 
    6  -15893.9000014368      2.07e-06     00000 
    7  -15893.9000181253      1.46e-06     00000 
    8  -15893.9000265514      7.47e-07     00000 
    9  -15893.9000285992      4.54e-07     00000 
   10  -15893.9000291210      3.16e-07     00000 
   11  -15893.9000293539      2.13e-07     00000 
   12  -15893.9000294702      1.37e-07     00000 
   13  -15893.9000295335      7.39e-08     00000 
   14  -15893.9000295512      5.05e-08     00000 
   15  -15893.9000295577      3.78e-08     00000 
   16  -15893.9000295617      1.95e-08     00000 
   17  -15893.9000295627      1.07e-08     00000 
   18  -15893.9000295634      7.21e-09     00000 Convergence criterion met
write pseudocanon occs and virts to disk
write pseudocanon orbital energies to disk
Timing for Total SCF: 58973.00s (wall), 464152.45s (cpu)
SCFMI Energy  -15893.9000295634
<S^2>            0.00000
 Total energy in the final basis set =   -15893.9000295634
    ==================================================
        The end of Object-Oriented SCFman: SCFMI      
    ==================================================
 
 --------------------------------------------------------------
 
                    Orbital Energies (a.u.)
 --------------------------------------------------------------
 
 Alpha MOs
 -- Occupied --
-89.0376 -89.0370 -89.0240 -89.0228 -89.0214 -89.0199 -89.0127 -89.0106
-89.0065 -89.0047 -89.0045 -89.0036 -89.0032 -89.0028 -89.0006 -88.9993
-88.9986 -88.9968 -88.9964 -88.9962 -88.9942 -88.9942 -88.9934 -88.9902
-88.9883 -88.9853 -88.9839 -88.9811 -19.1658 -19.1570 -19.1432 -19.1413
-19.1397 -19.1344 -19.1314 -19.1298 -19.1286 -19.1267 -19.1253 -19.1243
-19.1216 -19.1202 -19.1192 -19.1186 -19.1165 -19.1149 -19.1133 -19.1129
-19.1107 -19.1103 -19.1094 -19.1074 -19.1069 -19.1063 -19.1055 -19.0979
-19.0973 -14.3654 -10.2990 -10.2564 -10.2559 -10.2559 -10.2533 -10.2452
-10.2411 -10.2379 -10.2373 -10.2368 -10.2357 -10.2356 -10.2343 -10.2318
-10.2316 -10.2287 -10.2270 -10.2266 -10.2256 -10.2245 -10.2236 -10.2232
-10.2217 -10.2205 -10.2197 -10.2188 -10.2188 -10.2182 -10.2179 -10.2171
-10.2168 -10.2164 -10.2163 -10.2163 -10.2151 -10.2135 -10.2130 -10.2109
-10.2107 -10.2099 -10.2097 -10.2083 -10.2082 -10.2079 -10.2068 -10.2050
-10.2048 -10.2042 -10.2040 -10.2036 -10.2034 -10.2034 -10.2022 -10.2020
-10.2014 -10.2009 -10.1976 -10.1973 -10.1936 -10.1932 -10.1903 -10.1886
-10.1861  -8.0831  -8.0830  -8.0693  -8.0689  -8.0673  -8.0657  -8.0588
 -8.0563  -8.0520  -8.0506  -8.0501  -8.0500  -8.0498  -8.0488  -8.0471
 -8.0449  -8.0446  -8.0431  -8.0422  -8.0422  -8.0409  -8.0403  -8.0391
 -8.0366  -8.0346  -8.0316  -8.0293  -8.0273  -6.0475  -6.0474  -6.0463
 -6.0462  -6.0404  -6.0400  -6.0341  -6.0331  -6.0323  -6.0318  -6.0317
 -6.0306  -6.0300  -6.0286  -6.0267  -6.0265  -6.0243  -6.0232  -6.0232
 -6.0221  -6.0206  -6.0193  -6.0163  -6.0158  -6.0151  -6.0148  -6.0143
 -6.0142  -6.0142  -6.0138  -6.0137  -6.0134  -6.0131  -6.0131  -6.0129
 -6.0118  -6.0114  -6.0101  -6.0096  -6.0092  -6.0088  -6.0081  -6.0080
 -6.0079  -6.0079  -6.0075  -6.0071  -6.0070  -6.0068  -6.0067  -6.0063
 -6.0059  -6.0054  -6.0053  -6.0053  -6.0048  -6.0046  -6.0039  -6.0034
 -6.0033  -6.0023  -6.0022  -6.0020  -6.0009  -6.0008  -5.9995  -5.9993
 -5.9992  -5.9987  -5.9981  -5.9976  -5.9976  -5.9965  -5.9961  -5.9948
 -5.9944  -5.9935  -5.9924  -5.9922  -5.9918  -5.9905  -5.9885  -5.9870
 -5.9844  -1.0686  -1.0656  -1.0569  -1.0540  -1.0474  -1.0462  -1.0431
 -1.0418  -1.0367  -1.0346  -1.0324  -1.0320  -1.0302  -1.0280  -1.0264
 -1.0249  -1.0231  -1.0229  -1.0227  -1.0217  -1.0210  -1.0203  -1.0198
 -1.0180  -1.0179  -1.0176  -1.0101  -1.0101  -1.0047  -0.9322  -0.8452
 -0.8423  -0.8378  -0.8304  -0.8251  -0.8194  -0.8183  -0.8134  -0.8131
 -0.8101  -0.8089  -0.8078  -0.8067  -0.8062  -0.8054  -0.8049  -0.8042
 -0.8027  -0.8014  -0.7983  -0.7975  -0.7973  -0.7954  -0.7928  -0.7920
 -0.7907  -0.7906  -0.7895  -0.7849  -0.7681  -0.7660  -0.7570  -0.7562
 -0.7529  -0.7483  -0.7482  -0.7478  -0.7456  -0.7350  -0.7338  -0.7329
 -0.7310  -0.7305  -0.7298  -0.7294  -0.7287  -0.7265  -0.7263  -0.7256
 -0.7255  -0.7248  -0.7232  -0.7227  -0.7220  -0.7181  -0.7141  -0.7132
 -0.7065  -0.7060  -0.6525  -0.6521  -0.6481  -0.6408  -0.6366  -0.6363
 -0.6346  -0.6295  -0.6253  -0.6227  -0.6191  -0.6188  -0.6179  -0.6168
 -0.6160  -0.6156  -0.6145  -0.6142  -0.6121  -0.6093  -0.6088  -0.6083
 -0.6064  -0.6060  -0.6039  -0.6022  -0.6012  -0.5965  -0.5963  -0.5953
 -0.5926  -0.5769  -0.5374  -0.5231  -0.5145  -0.5108  -0.5104  -0.5087
 -0.5081  -0.5071  -0.5058  -0.5036  -0.5004  -0.4992  -0.4982  -0.4966
 -0.4957  -0.4951  -0.4944  -0.4933  -0.4918  -0.4902  -0.4890  -0.4877
 -0.4869  -0.4858  -0.4850  -0.4846  -0.4841  -0.4830  -0.4826  -0.4813
 -0.4810  -0.4805  -0.4802  -0.4798  -0.4794  -0.4791  -0.4787  -0.4774
 -0.4771  -0.4764  -0.4754  -0.4740  -0.4736  -0.4733  -0.4732  -0.4730
 -0.4723  -0.4716  -0.4713  -0.4712  -0.4707  -0.4704  -0.4698  -0.4693
 -0.4690  -0.4688  -0.4683  -0.4679  -0.4667  -0.4665  -0.4662  -0.4657
 -0.4651  -0.4649  -0.4640  -0.4631  -0.4624  -0.4624  -0.4624  -0.4621
 -0.4619  -0.4611  -0.4607  -0.4603  -0.4601  -0.4584  -0.4576  -0.4572
 -0.4569  -0.4554  -0.4541  -0.4539  -0.4538  -0.4534  -0.4533  -0.4529
 -0.4521  -0.4516  -0.4509  -0.4505  -0.4485  -0.4471  -0.4459  -0.4454
 -0.4450  -0.4443  -0.4426  -0.4416  -0.4411  -0.4410  -0.4391  -0.4387
 -0.4375  -0.4366  -0.4354  -0.4354  -0.4345  -0.4341  -0.4336  -0.4334
 -0.4326  -0.4319  -0.4314  -0.4298  -0.4293  -0.4282  -0.4278  -0.4268
 -0.4261  -0.4258  -0.4253  -0.4251  -0.4245  -0.4236  -0.4226  -0.4213
 -0.4204  -0.4200  -0.4197  -0.4192  -0.4186  -0.4182  -0.4178  -0.4175
 -0.4155  -0.4148  -0.4145  -0.4141  -0.4130  -0.4128  -0.4120  -0.4119
 -0.4109  -0.4099  -0.4084  -0.4076  -0.4069  -0.4066  -0.4059  -0.4054
 -0.4041  -0.4018  -0.4012  -0.3998  -0.3995  -0.3993  -0.3987  -0.3974
 -0.3972  -0.3970  -0.3950  -0.3929  -0.3927  -0.3910  -0.3906  -0.3898
 -0.3891  -0.3883  -0.3878  -0.3875  -0.3871  -0.3860  -0.3855  -0.3845
 -0.3841  -0.3831  -0.3818  -0.3797  -0.3790  -0.3784  -0.3778  -0.3770
 -0.3756  -0.3750  -0.3720  -0.3712  -0.3696  -0.3686  -0.3672  -0.3666
 -0.3663  -0.3652  -0.3648  -0.3645  -0.3631  -0.3614  -0.3612  -0.3604
 -0.3586  -0.3584  -0.3580  -0.3569  -0.3550  -0.3546  -0.3542  -0.3476
 -0.3466  -0.3423  -0.3355  -0.3268  -0.3205  -0.3197  -0.3162  -0.3040
 -0.3035  -0.2979  -0.2912  -0.2900  -0.2894  -0.2882  -0.2865  -0.2843
 -0.2834  -0.2813  -0.2809  -0.2793  -0.2789  -0.2787  -0.2783  -0.2769
 -0.2764  -0.2733  -0.2727  -0.2710  -0.2693  -0.2685  -0.2670  -0.2665
 -0.2658  -0.2655  -0.2652  -0.2646  -0.2633  -0.2587  -0.2582  -0.2574
 -0.2565  -0.2549  -0.2537  -0.2528  -0.2517  -0.2485  -0.2476  -0.2439
 -0.2431  -0.2431  -0.2416  -0.2415  -0.2393  -0.2388  -0.2367  -0.2366
 -0.2349  -0.2297  -0.2296  -0.2276  -0.2267  -0.2232  -0.2221
 -- Virtual --
 -0.0457  -0.0390  -0.0336  -0.0282  -0.0263  -0.0236  -0.0213  -0.0202
 -0.0201  -0.0181  -0.0172  -0.0160  -0.0152  -0.0147  -0.0138  -0.0131
 -0.0122  -0.0090  -0.0082  -0.0075  -0.0072  -0.0067  -0.0060  -0.0048
 -0.0043  -0.0039  -0.0026  -0.0023  -0.0021  -0.0014  -0.0012  -0.0005
  0.0005   0.0013   0.0017   0.0026   0.0028   0.0037   0.0039   0.0047
  0.0062   0.0067   0.0071   0.0080   0.0086   0.0093   0.0098   0.0101
  0.0109   0.0116   0.0119   0.0130   0.0135   0.0137   0.0142   0.0147
  0.0151   0.0156   0.0164   0.0168   0.0173   0.0181   0.0183   0.0198
  0.0203   0.0205   0.0219   0.0223   0.0231   0.0249   0.0253   0.0255
  0.0259   0.0265   0.0272   0.0279   0.0283   0.0290   0.0297   0.0310
  0.0313   0.0320   0.0323   0.0330   0.0339   0.0345   0.0347   0.0354
  0.0363   0.0367   0.0372   0.0382   0.0389   0.0394   0.0401   0.0402
  0.0411   0.0414   0.0424   0.0433   0.0437   0.0441   0.0450   0.0452
  0.0458   0.0462   0.0468   0.0472   0.0475   0.0480   0.0492   0.0494
  0.0503   0.0506   0.0520   0.0525   0.0531   0.0535   0.0537   0.0541
  0.0553   0.0557   0.0560   0.0575   0.0576   0.0586   0.0591   0.0596
  0.0603   0.0610   0.0615   0.0626   0.0632   0.0637   0.0645   0.0648
  0.0650   0.0655   0.0661   0.0665   0.0673   0.0679   0.0688   0.0689
  0.0697   0.0703   0.0705   0.0712   0.0716   0.0725   0.0737   0.0745
  0.0754   0.0758   0.0762   0.0765   0.0773   0.0776   0.0788   0.0789
  0.0794   0.0808   0.0814   0.0817   0.0825   0.0828   0.0833   0.0838
  0.0851   0.0858   0.0862   0.0869   0.0870   0.0881   0.0892   0.0895
  0.0899   0.0904   0.0908   0.0909   0.0929   0.0933   0.0936   0.0939
  0.0942   0.0946   0.0953   0.0956   0.0970   0.0973   0.0980   0.0985
  0.0992   0.0996   0.1001   0.1012   0.1018   0.1028   0.1034   0.1041
  0.1048   0.1052   0.1057   0.1060   0.1069   0.1078   0.1085   0.1091
  0.1096   0.1098   0.1109   0.1112   0.1122   0.1128   0.1129   0.1138
  0.1149   0.1156   0.1162   0.1168   0.1171   0.1179   0.1184   0.1192
  0.1196   0.1203   0.1206   0.1214   0.1218   0.1229   0.1230   0.1236
  0.1240   0.1247   0.1251   0.1256   0.1264   0.1269   0.1276   0.1277
  0.1293   0.1295   0.1305   0.1309   0.1313   0.1320   0.1325   0.1333
  0.1336   0.1338   0.1346   0.1355   0.1358   0.1370   0.1373   0.1377
  0.1381   0.1384   0.1392   0.1393   0.1399   0.1404   0.1414   0.1418
  0.1425   0.1433   0.1437   0.1445   0.1449   0.1456   0.1464   0.1471
  0.1479   0.1481   0.1488   0.1494   0.1499   0.1499   0.1504   0.1508
  0.1515   0.1522   0.1531   0.1532   0.1536   0.1548   0.1553   0.1557
  0.1558   0.1564   0.1569   0.1579   0.1583   0.1588   0.1599   0.1600
  0.1604   0.1612   0.1619   0.1623   0.1628   0.1645   0.1650   0.1655
  0.1667   0.1668   0.1671   0.1675   0.1683   0.1684   0.1694   0.1701
  0.1701   0.1712   0.1716   0.1719   0.1726   0.1732   0.1744   0.1746
  0.1748   0.1751   0.1758   0.1768   0.1774   0.1782   0.1785   0.1794
  0.1799   0.1803   0.1811   0.1812   0.1818   0.1826   0.1831   0.1835
  0.1842   0.1848   0.1859   0.1864   0.1869   0.1871   0.1875   0.1879
  0.1885   0.1890   0.1898   0.1904   0.1912   0.1920   0.1929   0.1933
  0.1935   0.1943   0.1948   0.1956   0.1961   0.1961   0.1965   0.1978
  0.1984   0.1993   0.1999   0.2002   0.2014   0.2017   0.2022   0.2031
  0.2035   0.2046   0.2049   0.2055   0.2065   0.2065   0.2069   0.2074
  0.2084   0.2097   0.2100   0.2103   0.2105   0.2116   0.2119   0.2126
  0.2131   0.2137   0.2139   0.2143   0.2152   0.2153   0.2160   0.2173
  0.2178   0.2184   0.2188   0.2195   0.2203   0.2215   0.2220   0.2222
  0.2232   0.2234   0.2241   0.2248   0.2256   0.2259   0.2268   0.2274
  0.2282   0.2284   0.2292   0.2298   0.2309   0.2317   0.2324   0.2325
  0.2331   0.2339   0.2343   0.2350   0.2357   0.2362   0.2370   0.2375
  0.2380   0.2389   0.2394   0.2403   0.2407   0.2411   0.2420   0.2432
  0.2434   0.2437   0.2450   0.2453   0.2459   0.2463   0.2468   0.2479
  0.2484   0.2488   0.2493   0.2495   0.2498   0.2507   0.2519   0.2531
  0.2535   0.2545   0.2548   0.2559   0.2564   0.2567   0.2581   0.2587
  0.2591   0.2598   0.2606   0.2611   0.2622   0.2626   0.2634   0.2643
  0.2645   0.2654   0.2662   0.2668   0.2670   0.2675   0.2684   0.2694
  0.2700   0.2706   0.2718   0.2725   0.2727   0.2739   0.2744   0.2750
  0.2757   0.2765   0.2769   0.2775   0.2789   0.2793   0.2797   0.2801
  0.2803   0.2823   0.2829   0.2834   0.2835   0.2845   0.2858   0.2861
  0.2877   0.2878   0.2882   0.2886   0.2904   0.2905   0.2913   0.2917
  0.2928   0.2936   0.2944   0.2955   0.2968   0.2970   0.2972   0.2981
  0.2986   0.2995   0.2997   0.3014   0.3025   0.3039   0.3043   0.3056
  0.3057   0.3064   0.3075   0.3089   0.3092   0.3099   0.3102   0.3111
  0.3121   0.3127   0.3133   0.3142   0.3153   0.3159   0.3167   0.3176
  0.3180   0.3188   0.3200   0.3211   0.3217   0.3220   0.3226   0.3235
  0.3245   0.3255   0.3258   0.3268   0.3284   0.3289   0.3298   0.3307
  0.3313   0.3325   0.3326   0.3335   0.3346   0.3348   0.3358   0.3366
  0.3369   0.3373   0.3397   0.3404   0.3412   0.3414   0.3420   0.3433
  0.3440   0.3442   0.3453   0.3460   0.3470   0.3479   0.3488   0.3499
  0.3506   0.3517   0.3527   0.3531   0.3537   0.3542   0.3547   0.3553
  0.3576   0.3582   0.3587   0.3596   0.3602   0.3615   0.3624   0.3633
  0.3639   0.3641   0.3648   0.3660   0.3669   0.3676   0.3685   0.3695
  0.3705   0.3707   0.3711   0.3726   0.3736   0.3741   0.3746   0.3753
  0.3756   0.3770   0.3777   0.3781   0.3810   0.3818   0.3821   0.3833
  0.3844   0.3847   0.3849   0.3857   0.3866   0.3872   0.3891   0.3898
  0.3908   0.3910   0.3916   0.3932   0.3941   0.3950   0.3954   0.3960
  0.3964   0.3986   0.3991   0.3995   0.4012   0.4020   0.4022   0.4039
  0.4043   0.4050   0.4062   0.4065   0.4071   0.4081   0.4093   0.4105
  0.4113   0.4121   0.4128   0.4137   0.4144   0.4147   0.4157   0.4167
  0.4176   0.4185   0.4194   0.4206   0.4217   0.4224   0.4234   0.4237
  0.4252   0.4265   0.4273   0.4279   0.4287   0.4299   0.4310   0.4315
  0.4326   0.4327   0.4345   0.4350   0.4354   0.4364   0.4380   0.4398
  0.4405   0.4411   0.4422   0.4431   0.4453   0.4458   0.4467   0.4480
  0.4489   0.4496   0.4501   0.4515   0.4526   0.4531   0.4545   0.4560
  0.4573   0.4585   0.4590   0.4614   0.4618   0.4627   0.4644   0.4650
  0.4666   0.4682   0.4703   0.4710   0.4714   0.4736   0.4745   0.4754
  0.4767   0.4777   0.4811   0.4818   0.4824   0.4841   0.4854   0.4864
  0.4870   0.4900   0.4903   0.4911   0.4923   0.4953   0.4958   0.4976
  0.4990   0.4996   0.5007   0.5019   0.5030   0.5049   0.5060   0.5082
  0.5095   0.5123   0.5132   0.5150   0.5167   0.5177   0.5179   0.5190
  0.5225   0.5232   0.5244   0.5253   0.5277   0.5290   0.5299   0.5320
  0.5335   0.5345   0.5365   0.5398   0.5422   0.5441   0.5449   0.5467
  0.5471   0.5497   0.5512   0.5518   0.5530   0.5542   0.5549   0.5565
  0.5588   0.5597   0.5609   0.5635   0.5639   0.5651   0.5666   0.5684
  0.5705   0.5711   0.5744   0.5750   0.5760   0.5774   0.5789   0.5794
  0.5806   0.5823   0.5841   0.5852   0.5862   0.5879   0.5897   0.5912
  0.5926   0.5934   0.5948   0.5968   0.5999   0.6005   0.6032   0.6039
  0.6051   0.6057   0.6065   0.6079   0.6087   0.6102   0.6112   0.6123
  0.6127   0.6144   0.6153   0.6177   0.6186   0.6194   0.6203   0.6209
  0.6221   0.6231   0.6243   0.6258   0.6263   0.6278   0.6303   0.6313
  0.6317   0.6319   0.6341   0.6348   0.6361   0.6377   0.6384   0.6400
  0.6406   0.6416   0.6431   0.6437   0.6443   0.6466   0.6471   0.6476
  0.6506   0.6511   0.6523   0.6534   0.6539   0.6548   0.6565   0.6578
  0.6591   0.6593   0.6603   0.6616   0.6625   0.6633   0.6638   0.6641
  0.6660   0.6672   0.6676   0.6683   0.6706   0.6711   0.6720   0.6728
  0.6741   0.6759   0.6773   0.6774   0.6780   0.6792   0.6805   0.6815
  0.6819   0.6839   0.6849   0.6855   0.6865   0.6872   0.6886   0.6901
  0.6916   0.6926   0.6935   0.6958   0.6962   0.6968   0.6981   0.6994
  0.7009   0.7018   0.7032   0.7046   0.7052   0.7059   0.7072   0.7109
  0.7120   0.7133   0.7146   0.7166   0.7172   0.7184   0.7189   0.7192
  0.7206   0.7228   0.7237   0.7256   0.7262   0.7271   0.7285   0.7295
  0.7314   0.7327   0.7335   0.7350   0.7365   0.7389   0.7400   0.7404
  0.7408   0.7421   0.7447   0.7453   0.7464   0.7476   0.7495   0.7510
  0.7529   0.7530   0.7545   0.7565   0.7592   0.7600   0.7604   0.7616
  0.7634   0.7647   0.7665   0.7669   0.7684   0.7694   0.7700   0.7713
  0.7723   0.7746   0.7752   0.7760   0.7784   0.7794   0.7813   0.7817
  0.7846   0.7850   0.7869   0.7880   0.7909   0.7925   0.7937   0.7951
  0.7958   0.7968   0.7981   0.8008   0.8023   0.8035   0.8040   0.8051
  0.8063   0.8082   0.8092   0.8097   0.8117   0.8123   0.8136   0.8147
  0.8167   0.8177   0.8195   0.8202   0.8209   0.8236   0.8243   0.8256
  0.8268   0.8291   0.8302   0.8308   0.8340   0.8343   0.8347   0.8361
  0.8375   0.8391   0.8410   0.8411   0.8435   0.8446   0.8483   0.8485
  0.8499   0.8503   0.8526   0.8538   0.8547   0.8558   0.8569   0.8577
  0.8590   0.8613   0.8619   0.8637   0.8645   0.8660   0.8681   0.8690
  0.8700   0.8714   0.8731   0.8744   0.8751   0.8765   0.8778   0.8788
  0.8798   0.8799   0.8810   0.8824   0.8844   0.8852   0.8865   0.8882
  0.8895   0.8900   0.8915   0.8925   0.8939   0.8945   0.8957   0.8968
  0.8985   0.8993   0.9019   0.9025   0.9033   0.9048   0.9056   0.9067
  0.9086   0.9095   0.9104   0.9108   0.9117   0.9120   0.9132   0.9135
  0.9154   0.9173   0.9178   0.9187   0.9202   0.9208   0.9221   0.9237
  0.9242   0.9256   0.9272   0.9274   0.9289   0.9291   0.9301   0.9320
  0.9327   0.9331   0.9337   0.9350   0.9358   0.9372   0.9377   0.9395
  0.9402   0.9421   0.9434   0.9442   0.9457   0.9478   0.9490   0.9500
  0.9505   0.9518   0.9522   0.9528   0.9545   0.9554   0.9562   0.9582
  0.9591   0.9596   0.9608   0.9619   0.9629   0.9642   0.9660   0.9664
  0.9673   0.9695   0.9698   0.9711   0.9715   0.9717   0.9724   0.9735
  0.9741   0.9756   0.9779   0.9784   0.9791   0.9799   0.9814   0.9818
  0.9830   0.9837   0.9849   0.9851   0.9864   0.9865   0.9872   0.9898
  0.9908   0.9916   0.9922   0.9942   0.9948   0.9966   0.9980   0.9987
  0.9994   1.0007   1.0013   1.0026   1.0036   1.0039   1.0060   1.0078
  1.0082   1.0092   1.0104   1.0121   1.0127   1.0134   1.0143   1.0160
  1.0167   1.0193   1.0201   1.0205   1.0217   1.0223   1.0235   1.0239
  1.0244   1.0255   1.0259   1.0287   1.0298   1.0319   1.0323   1.0342
  1.0344   1.0371   1.0374   1.0386   1.0399   1.0408   1.0418   1.0439
  1.0444   1.0460   1.0467   1.0483   1.0506   1.0514   1.0528   1.0540
  1.0557   1.0561   1.0572   1.0588   1.0599   1.0617   1.0628   1.0642
  1.0657   1.0667   1.0680   1.0703   1.0708   1.0711   1.0735   1.0759
  1.0762   1.0781   1.0809   1.0824   1.0829   1.0843   1.0847   1.0870
  1.0879   1.0894   1.0904   1.0927   1.0932   1.0940   1.0962   1.0975
  1.0983   1.1006   1.1017   1.1031   1.1038   1.1064   1.1071   1.1080
  1.1088   1.1097   1.1105   1.1145   1.1154   1.1159   1.1179   1.1193
  1.1205   1.1212   1.1220   1.1236   1.1238   1.1256   1.1266   1.1270
  1.1293   1.1294   1.1313   1.1325   1.1331   1.1352   1.1362   1.1382
  1.1391   1.1397   1.1402   1.1411   1.1414   1.1434   1.1454   1.1461
  1.1465   1.1476   1.1493   1.1499   1.1513   1.1523   1.1530   1.1552
  1.1558   1.1569   1.1582   1.1598   1.1603   1.1626   1.1639   1.1650
  1.1664   1.1678   1.1688   1.1704   1.1713   1.1725   1.1740   1.1754
  1.1769   1.1779   1.1794   1.1815   1.1821   1.1847   1.1860   1.1865
  1.1873   1.1881   1.1898   1.1913   1.1929   1.1940   1.1962   1.1971
  1.1986   1.2013   1.2014   1.2042   1.2050   1.2090   1.2104   1.2117
  1.2125   1.2146   1.2166   1.2183   1.2196   1.2215   1.2231   1.2246
  1.2260   1.2287   1.2306   1.2322   1.2344   1.2369   1.2389   1.2404
  1.2421   1.2428   1.2441   1.2456   1.2474   1.2478   1.2506   1.2538
  1.2553   1.2576   1.2586   1.2587   1.2612   1.2669   1.2689   1.2694
  1.2704   1.2733   1.2767   1.2770   1.2794   1.2805   1.2837   1.2885
  1.2891   1.2903   1.2926   1.2946   1.2954   1.3003   1.3011   1.3035
  1.3057   1.3081   1.3090   1.3120   1.3138   1.3153   1.3163   1.3180
  1.3208   1.3221   1.3226   1.3251   1.3277   1.3291   1.3323   1.3336
  1.3378   1.3388   1.3394   1.3413   1.3421   1.3444   1.3460   1.3485
  1.3491   1.3518   1.3523   1.3542   1.3574   1.3585   1.3605   1.3610
  1.3621   1.3629   1.3649   1.3654   1.3664   1.3690   1.3706   1.3715
  1.3719   1.3749   1.3762   1.3779   1.3814   1.3834   1.3842   1.3853
  1.3866   1.3875   1.3888   1.3901   1.3920   1.3929   1.3935   1.3939
  1.3972   1.3991   1.4004   1.4018   1.4026   1.4036   1.4043   1.4053
  1.4087   1.4097   1.4105   1.4112   1.4134   1.4144   1.4159   1.4166
  1.4191   1.4198   1.4212   1.4220   1.4234   1.4239   1.4258   1.4273
  1.4286   1.4297   1.4323   1.4328   1.4348   1.4356   1.4360   1.4374
  1.4395   1.4405   1.4434   1.4440   1.4458   1.4478   1.4497   1.4505
  1.4525   1.4535   1.4558   1.4576   1.4586   1.4604   1.4611   1.4627
  1.4644   1.4659   1.4674   1.4678   1.4715   1.4731   1.4739   1.4745
  1.4755   1.4773   1.4803   1.4835   1.4842   1.4855   1.4871   1.4908
  1.4913   1.4923   1.4968   1.4973   1.4981   1.4993   1.5010   1.5040
  1.5069   1.5074   1.5084   1.5093   1.5108   1.5122   1.5127   1.5171
  1.5185   1.5207   1.5237   1.5264   1.5279   1.5312   1.5345   1.5354
  1.5384   1.5397   1.5424   1.5470   1.5489   1.5505   1.5517   1.5536
  1.5585   1.5632   1.5660   1.5693   1.5722   1.5756   1.5786   1.5823
  1.5859   1.5922   1.5936   1.5959   1.6002   1.6052   1.6066   1.6120
  1.6151   1.6170   1.6205   1.6280   1.6301   1.6347   1.6365   1.6432
  1.6454   1.6475   1.6523   1.6549   1.6569   1.6589   1.6594   1.6610
  1.6650   1.6678   1.6689   1.6719   1.6739   1.6742   1.6764   1.6766
  1.6782   1.6790   1.6803   1.6807   1.6816   1.6831   1.6847   1.6862
  1.6865   1.6871   1.6891   1.6893   1.6930   1.6934   1.6944   1.6958
  1.6967   1.6983   1.6998   1.7009   1.7017   1.7027   1.7034   1.7043
  1.7060   1.7075   1.7087   1.7102   1.7121   1.7134   1.7150   1.7156
  1.7173   1.7176   1.7183   1.7194   1.7210   1.7224   1.7231   1.7235
  1.7253   1.7261   1.7276   1.7306   1.7318   1.7324   1.7343   1.7350
  1.7362   1.7369   1.7376   1.7390   1.7405   1.7421   1.7438   1.7447
  1.7459   1.7479   1.7484   1.7492   1.7505   1.7528   1.7536   1.7559
  1.7569   1.7583   1.7594   1.7605   1.7616   1.7635   1.7642   1.7649
  1.7665   1.7677   1.7684   1.7703   1.7713   1.7731   1.7743   1.7749
  1.7756   1.7777   1.7788   1.7802   1.7825   1.7834   1.7844   1.7867
  1.7885   1.7925   1.7952   1.7961   1.7985   1.8019   1.8040   1.8058
  1.8078   1.8107   1.8130   1.8140   1.8182   1.8194   1.8217   1.8239
  1.8286   1.8322   1.8333   1.8376   1.8401   1.8439   1.8467   1.8472
  1.8500   1.8513   1.8550   1.8552   1.8604   1.8607   1.8614   1.8637
  1.8664   1.8675   1.8693   1.8703   1.8722   1.8734   1.8741   1.8764
  1.8775   1.8782   1.8806   1.8820   1.8837   1.8850   1.8873   1.8879
  1.8895   1.8902   1.8909   1.8914   1.8928   1.8936   1.8947   1.8950
  1.8961   1.8968   1.8985   1.8996   1.9007   1.9016   1.9041   1.9043
  1.9051   1.9062   1.9073   1.9084   1.9101   1.9114   1.9123   1.9149
  1.9160   1.9175   1.9191   1.9198   1.9203   1.9228   1.9263   1.9274
  1.9289   1.9301   1.9330   1.9364   1.9379   1.9387   1.9421   1.9434
  1.9441   1.9467   1.9479   1.9508   1.9533   1.9557   1.9581   1.9630
  1.9651   1.9665   1.9708   1.9740   1.9786   1.9819   1.9878   1.9948
  1.9973   2.0001   2.0061   2.0203   2.0243   2.0280   2.0394   2.0424
  2.0481   2.0500   2.0513   2.0536   2.0546   2.0552   2.0575   2.0592
  2.0594   2.0628   2.0643   2.0656   2.0664   2.0665   2.0675   2.0677
  2.0684   2.0708   2.0713   2.0717   2.0728   2.0742   2.0756   2.0764
  2.0780   2.0786   2.0805   2.0812   2.0833   2.0848   2.0856   2.0866
  2.0887   2.0898   2.0918   2.0932   2.0938   2.0961   2.0966   2.0995
  2.1014   2.1029   2.1046   2.1053   2.1065   2.1083   2.1101   2.1126
  2.1140   2.1167   2.1170   2.1191   2.1199   2.1210   2.1226   2.1235
  2.1264   2.1281   2.1323   2.1386   2.1416   2.1518   2.1622   2.1701
  2.1718   2.1760   2.1801   2.1813   2.1823   2.1839   2.1844   2.1863
  2.1877   2.1916   2.1926   2.1938   2.1973   2.1992   2.1996   2.2011
  2.2035   2.2041   2.2069   2.2079   2.2093   2.2112   2.2127   2.2143
  2.2156   2.2168   2.2169   2.2201   2.2227   2.2238   2.2248   2.2253
  2.2261   2.2271   2.2281   2.2293   2.2305   2.2331   2.2346   2.2358
  2.2366   2.2391   2.2409   2.2423   2.2432   2.2451   2.2454   2.2477
  2.2482   2.2489   2.2498   2.2506   2.2518   2.2522   2.2536   2.2540
  2.2555   2.2560   2.2562   2.2588   2.2592   2.2594   2.2602   2.2612
  2.2629   2.2647   2.2649   2.2660   2.2678   2.2687   2.2699   2.2702
  2.2706   2.2712   2.2722   2.2745   2.2747   2.2760   2.2766   2.2774
  2.2775   2.2789   2.2795   2.2813   2.2818   2.2827   2.2832   2.2847
  2.2851   2.2866   2.2882   2.2889   2.2894   2.2905   2.2932   2.2933
  2.2944   2.2960   2.2979   2.2985   2.2993   2.3011   2.3018   2.3022
  2.3044   2.3053   2.3059   2.3067   2.3071   2.3083   2.3083   2.3098
  2.3108   2.3113   2.3123   2.3131   2.3135   2.3153   2.3154   2.3172
  2.3181   2.3187   2.3213   2.3215   2.3226   2.3231   2.3245   2.3257
  2.3281   2.3296   2.3315   2.3326   2.3330   2.3353   2.3378   2.3390
  2.3401   2.3415   2.3424   2.3436   2.3448   2.3471   2.3493   2.3503
  2.3516   2.3528   2.3545   2.3548   2.3564   2.3575   2.3593   2.3610
  2.3621   2.3637   2.3664   2.3699   2.3706   2.3713   2.3736   2.3754
  2.3770   2.3785   2.3824   2.3858   2.3869   2.3907   2.3924   2.3966
  2.3986   2.4008   2.4064   2.4100   2.4270   2.4616   2.4830   2.4983
  2.5094   2.5358   2.5760   2.6625   2.7238   2.7651   2.7757   2.8063
  2.8113   2.8273   2.8344   2.8356   2.8408   2.8415   2.8418   2.8456
  2.8462   2.8475   2.8481   2.8497   2.8514   2.8521   2.8526   2.8539
  2.8550   2.8566   2.8578   2.8609   2.8620   2.8631   2.8651   2.8665
  2.8672   2.8677   2.8706   2.8744   2.8788   2.8887   2.9146   2.9383
  3.0875   3.2505   3.9549   3.9562   3.9584   3.9611   3.9626   3.9682
  3.9697   3.9721   3.9724   3.9792   3.9807   3.9837   3.9840   3.9849
  3.9861   3.9879   3.9895   3.9902   3.9932   3.9965   3.9985   3.9995
  4.0067   4.0073   4.0122   4.0166   4.0211   4.0341   4.2098   4.2189
  4.2218   4.2272   4.2318   4.2375   4.2405   4.2423   4.2454   4.2486
  4.2507   4.2546   4.2558   4.2568   4.2622   4.2636   4.2656   4.2664
  4.2716   4.2736   4.2742   4.2772   4.2779   4.2824   4.2868   4.2891
  4.2897   4.2908   4.2937   4.2971   4.2991   4.3000   4.3010   4.3033
  4.3047   4.3090   4.3129   4.3158   4.3171   4.3200   4.3226   4.3270
  4.3281   4.3319   4.3340   4.3390   4.3420   4.3427   4.3466   4.3497
  4.3501   4.3528   4.3542   4.3576   4.3608   4.3632   4.3659   4.3690
  4.3702   4.3734   4.3787   4.3815   4.3846   4.3862   4.3892   4.3955
  4.3999   4.4017   4.4066   4.4116   4.4169   4.4265   4.4344   4.4540
  4.4608   4.4650   4.4722   4.4838   4.4945   4.5029   4.5121   4.5220
  4.5294   4.5709   4.5848   4.6047   4.6065   4.6318   4.7066   4.7391
  4.7663   4.7791   4.8644
 --------------------------------------------------------------
 
          Ground-State Mulliken Net Atomic Charges

     Atom                 Charge (a.u.)
  ----------------------------------------
      1 C                    -0.287962
      2 C                    -0.518565
      3 C                    -0.192366
      4 C                    -0.393144
      5 C                    -0.380240
      6 C                    -0.487086
      7 H                     0.219118
      8 H                     0.200957
      9 H                     0.185012
     10 H                     0.212301
     11 H                     0.197405
     12 H                     0.190236
     13 H                     0.187689
     14 H                     0.204260
     15 H                     0.212368
     16 H                     0.214572
     17 H                     0.216785
     18 N                    -0.471892
     19 H                     0.520763
     20 C                     0.318729
     21 H                     0.180050
     22 O                    -0.528988
     23 C                    -0.791113
     24 H                     0.282464
     25 H                     0.225142
     26 H                     0.262584
     27 S                     0.704218
     28 C                    -0.807343
     29 H                     0.283837
     30 H                     0.207220
     31 H                     0.311470
     32 O                    -0.712453
     33 C                    -1.140279
     34 H                     0.280262
     35 H                     0.237880
     36 H                     0.259833
     37 S                     0.970513
     38 C                    -0.822566
     39 H                     0.328946
     40 H                     0.222222
     41 H                     0.251369
     42 O                    -0.660292
     43 C                    -0.938555
     44 H                     0.250827
     45 H                     0.261638
     46 H                     0.276705
     47 S                     0.995737
     48 C                    -0.934834
     49 H                     0.324803
     50 H                     0.226584
     51 H                     0.250900
     52 O                    -0.678926
     53 C                    -0.938339
     54 H                     0.250497
     55 H                     0.254570
     56 H                     0.239802
     57 S                     1.075185
     58 C                    -0.979001
     59 H                     0.249145
     60 H                     0.258787
     61 H                     0.289148
     62 O                    -0.668866
     63 C                    -1.081914
     64 H                     0.246421
     65 H                     0.267110
     66 H                     0.251792
     67 S                     1.275960
     68 C                    -1.172261
     69 H                     0.316425
     70 H                     0.264157
     71 H                     0.260568
     72 O                    -0.694521
     73 C                    -0.944526
     74 H                     0.245262
     75 H                     0.252871
     76 H                     0.276963
     77 S                     1.200985
     78 C                    -1.118017
     79 H                     0.294793
     80 H                     0.252319
     81 H                     0.245366
     82 O                    -0.680484
     83 C                    -0.962566
     84 H                     0.301253
     85 H                     0.289983
     86 H                     0.230592
     87 S                     1.116271
     88 C                    -0.929255
     89 H                     0.246590
     90 H                     0.240578
     91 H                     0.251949
     92 O                    -0.769191
     93 C                    -0.950111
     94 H                     0.260795
     95 H                     0.238017
     96 H                     0.263244
     97 S                     1.026610
     98 C                    -0.972675
     99 H                     0.240428
    100 H                     0.300819
    101 H                     0.265208
    102 O                    -0.677148
    103 C                    -0.806747
    104 H                     0.250306
    105 H                     0.288840
    106 H                     0.295586
    107 S                     0.878363
    108 C                    -0.959491
    109 H                     0.236659
    110 H                     0.311936
    111 H                     0.246842
    112 O                    -0.609469
    113 C                    -1.026383
    114 H                     0.269093
    115 H                     0.283751
    116 H                     0.242749
    117 S                     1.091594
    118 C                    -0.957023
    119 H                     0.295655
    120 H                     0.248598
    121 H                     0.230637
    122 O                    -0.744421
    123 C                    -0.761194
    124 H                     0.254101
    125 H                     0.253968
    126 H                     0.269987
    127 S                     0.751799
    128 C                    -0.868666
    129 H                     0.291055
    130 H                     0.257574
    131 H                     0.248208
    132 O                    -0.624476
    133 C                    -0.872459
    134 H                     0.277612
    135 H                     0.272887
    136 H                     0.255619
    137 S                     0.817031
    138 C                    -0.918201
    139 H                     0.262744
    140 H                     0.267869
    141 H                     0.269383
    142 O                    -0.695258
    143 C                    -0.903229
    144 H                     0.279653
    145 H                     0.255892
    146 H                     0.276516
    147 S                     0.962632
    148 C                    -0.892739
    149 H                     0.266912
    150 H                     0.281870
    151 H                     0.201667
    152 O                    -0.697886
    153 C                    -0.868971
    154 H                     0.243558
    155 H                     0.275424
    156 H                     0.231057
    157 S                     0.704691
    158 C                    -0.905923
    159 H                     0.258463
    160 H                     0.289186
    161 H                     0.321324
    162 O                    -0.740577
    163 C                    -0.883280
    164 H                     0.264880
    165 H                     0.268106
    166 H                     0.244116
    167 S                     0.957076
    168 C                    -0.876124
    169 H                     0.254337
    170 H                     0.250908
    171 H                     0.254586
    172 O                    -0.700562
    173 C                    -0.825154
    174 H                     0.263932
    175 H                     0.244307
    176 H                     0.251403
    177 S                     0.855652
    178 C                    -0.843071
    179 H                     0.266558
    180 H                     0.239630
    181 H                     0.292098
    182 O                    -0.665721
    183 C                    -0.877975
    184 H                     0.258115
    185 H                     0.253198
    186 H                     0.243193
    187 S                     1.024795
    188 C                    -0.924292
    189 H                     0.320909
    190 H                     0.228395
    191 H                     0.243973
    192 O                    -0.738670
    193 C                    -0.727203
    194 H                     0.241194
    195 H                     0.251255
    196 H                     0.260937
    197 S                     1.054931
    198 C                    -1.033627
    199 H                     0.238321
    200 H                     0.292025
    201 H                     0.283219
    202 O                    -0.794912
    203 C                    -0.992530
    204 H                     0.275621
    205 H                     0.264164
    206 H                     0.291250
    207 S                     0.903434
    208 C                    -0.860154
    209 H                     0.239762
    210 H                     0.291076
    211 H                     0.266392
    212 O                    -0.709415
    213 C                    -0.706602
    214 H                     0.256803
    215 H                     0.276120
    216 H                     0.248585
    217 S                     0.552959
    218 C                    -0.797758
    219 H                     0.284474
    220 H                     0.252168
    221 H                     0.228478
    222 O                    -0.676990
    223 C                    -0.966278
    224 H                     0.312887
    225 H                     0.196692
    226 H                     0.220098
    227 S                     0.975962
    228 C                    -0.902159
    229 H                     0.234962
    230 H                     0.240530
    231 H                     0.296507
    232 O                    -0.699527
    233 C                    -0.973479
    234 H                     0.276652
    235 H                     0.287299
    236 H                     0.251756
    237 S                     0.874967
    238 C                    -0.821086
    239 H                     0.218935
    240 H                     0.250302
    241 H                     0.283721
    242 O                    -0.684782
    243 C                    -0.654566
    244 H                     0.260378
    245 H                     0.232473
    246 H                     0.255915
    247 S                     0.411688
    248 C                    -0.749982
    249 H                     0.300389
    250 H                     0.245051
    251 H                     0.247627
    252 O                    -0.572144
    253 C                    -0.825849
    254 H                     0.248220
    255 H                     0.282544
    256 H                     0.227832
    257 S                     1.015334
    258 C                    -0.897722
    259 H                     0.265808
    260 H                     0.265818
    261 H                     0.225531
    262 O                    -0.723515
    263 C                    -0.700529
    264 H                     0.238820
    265 H                     0.259968
    266 H                     0.229644
    267 S                     0.963276
    268 C                    -0.893710
    269 H                     0.265912
    270 H                     0.252968
    271 H                     0.239449
    272 O                    -0.706208
    273 C                    -0.835354
    274 H                     0.241070
    275 H                     0.242561
    276 H                     0.249209
    277 S                     0.834861
    278 C                    -0.801658
    279 H                     0.249457
    280 H                     0.271411
    281 H                     0.240463
    282 O                    -0.692677
    283 C                    -1.018207
    284 H                     0.239032
    285 H                     0.251741
    286 H                     0.300211
    287 S                     1.253536
    288 C                    -1.061730
    289 H                     0.230457
    290 H                     0.264413
    291 H                     0.287118
    292 O                    -0.704682
    293 C                    -0.658821
    294 H                     0.302200
    295 H                     0.258119
    296 H                     0.220128
    297 S                     0.270178
    298 C                    -0.719253
    299 H                     0.247263
    300 H                     0.249604
    301 H                     0.259057
    302 O                    -0.499940
  ----------------------------------------
  Sum of atomic charges =     0.000000

 -----------------------------------------------------------------
                    Cartesian Multipole Moments
 -----------------------------------------------------------------
    Charge (ESU x 10^10)
                 0.0000
    Dipole Moment (Debye)
         X      -2.2559      Y       1.9328      Z       5.7783
       Tot       6.4972
    Quadrupole Moments (Debye-Ang)
        XX   -1084.9430     XY     159.2003     YY    -916.2571
        XZ     127.5898     YZ     150.3396     ZZ    -839.7999
    Octopole Moments (Debye-Ang^2)
       XXX  -78365.9748    XXY   -9622.2020    XYY  -18941.5003
       YYY  -46402.5823    XXZ  -24703.1504    XYZ    7462.3117
       YYZ  -23739.8767    XZZ  -21343.0534    YZZ  -12293.4312
       ZZZ  -84333.5489
    Hexadecapole Moments (Debye-Ang^3)
      XXXX ************   XXXY ************   XXYY -685026.4268
      XYYY ************   YYYY ************   XXXZ ************
      XXYZ -187732.3987   XYYZ -470050.3159   YYYZ ************
      XXZZ ************   XYZZ -207024.7003   YYZZ -974401.8609
      XZZZ ************   YZZZ ************   ZZZZ ************
 -----------------------------------------------------------------
Archival summary:
[...]
    2  -0.0046395   0.0318564   0.0024821   0.0219635   0.0264839   0.0063034
    3   0.0118898  -0.0808902   0.0003738  -0.0266721   0.0233541  -0.0086453
          157         158         159         160         161         162
    1  -0.0494407   0.0077216   0.0222202   0.0117660  -0.0125309  -0.0025176
    2  -0.0000978  -0.0043357  -0.0031443   0.0193516  -0.0257269  -0.0520492
    3   0.0387104   0.0052843  -0.0230276   0.0126218   0.0192129  -0.0958308
          163         164         165         166         167         168
    1  -0.0048155  -0.0009846  -0.0277083   0.0221944  -0.0081868   0.0095282
    2   0.0036145  -0.0160114   0.0171647   0.0215498   0.0318821  -0.0028922
    3  -0.0087912  -0.0298977   0.0047019  -0.0005873   0.0576770  -0.0001683
          169         170         171         172         173         174
    1   0.0083011   0.0099857   0.0153512  -0.0586212   0.0055419   0.0129124
    2  -0.0216331   0.0321884  -0.0185817  -0.0891005  -0.0008941  -0.0231635
    3  -0.0219530  -0.0057951   0.0206242  -0.0229839  -0.0034257   0.0140019
          175         176         177         178         179         180
    1   0.0179766   0.0127721  -0.0287269  -0.0000810   0.0216621  -0.0030076
    2  -0.0087705   0.0286176   0.0388133   0.0000574  -0.0093153   0.0313545
    3  -0.0316468   0.0073386  -0.0320590   0.0103773   0.0232926   0.0014247
          181         182         183         184         185         186
    1  -0.0181196  -0.0212160  -0.0107813   0.0024508  -0.0142950  -0.0079399
    2  -0.0155125  -0.1061695   0.0040961   0.0277799  -0.0007254  -0.0219028
    3   0.0222558   0.0064735   0.0035112   0.0147135  -0.0333728   0.0250199
          187         188         189         190         191         192
    1   0.0104437   0.0067634   0.0126898   0.0245400  -0.0175868   0.0257447
    2  -0.0453393  -0.0009025  -0.0293678   0.0135183   0.0190059   0.0983801
    3  -0.0187562   0.0127024   0.0158191  -0.0035466   0.0156447  -0.0421235
          193         194         195         196         197         198
    1  -0.0026949  -0.0077886  -0.0239868   0.0173203   0.0234037   0.0005681
    2  -0.0032101  -0.0253909   0.0128860   0.0095389   0.0500165  -0.0054956
    3  -0.0065019  -0.0006957   0.0040503  -0.0304326   0.0104900  -0.0005603
          199         200         201         202         203         204
    1  -0.0164032   0.0310661   0.0090469  -0.0698239   0.0014867  -0.0110224
    2  -0.0339920   0.0101592  -0.0088415  -0.0607599  -0.0120052   0.0008164
    3   0.0006763  -0.0127348   0.0237284   0.0782229   0.0039643   0.0323865
          205         206         207         208         209         210
    1  -0.0177604   0.0277767   0.0325848  -0.0112811  -0.0238712  -0.0161656
    2  -0.0262270  -0.0227153   0.0377440   0.0016988   0.0255895  -0.0265258
    3  -0.0064098  -0.0014421   0.0203530   0.0025917  -0.0154493  -0.0027217
          211         212         213         214         215         216
    1  -0.0013603  -0.0089826  -0.0098991  -0.0246221   0.0217192  -0.0003262
    2   0.0048642  -0.0373577   0.0070197   0.0118358   0.0136012   0.0247531
    3   0.0306577  -0.1014482   0.0059662   0.0265645   0.0169885  -0.0252077
          217         218         219         220         221         222
    1   0.0377313  -0.0084846   0.0100270  -0.0288534  -0.0128903   0.0311380
    2   0.0084778  -0.0038243  -0.0308180   0.0126694   0.0108883  -0.0645154
    3  -0.0509145   0.0017482   0.0054259   0.0141554  -0.0280587   0.0830038
          223         224         225         226         227         228
    1   0.0007026   0.0257944  -0.0037375  -0.0163683  -0.0412262   0.0050316
    2   0.0047371   0.0031660   0.0257538   0.0034335  -0.0093627  -0.0053904
    3   0.0035323   0.0112780  -0.0157464   0.0297932  -0.0178580   0.0095505
          229         230         231         232         233         234
    1  -0.0142193  -0.0095921   0.0230574   0.0974942  -0.0022157   0.0248541
    2  -0.0049305  -0.0331944   0.0236908   0.0136063  -0.0056576  -0.0175357
    3   0.0291510  -0.0096650   0.0093317  -0.0522094  -0.0081084  -0.0151214
          235         236         237         238         239         240
    1  -0.0158110  -0.0148992   0.0331702   0.0021664   0.0282038   0.0073217
    2  -0.0280183   0.0252221   0.0513608  -0.0043765  -0.0146267  -0.0021353
    3   0.0032924  -0.0195834  -0.0012281   0.0032348  -0.0186288   0.0319233
          241         242         243         244         245         246
    1  -0.0068349  -0.0899180  -0.0009549  -0.0288655   0.0053749   0.0028233
    2  -0.0319638  -0.0168297   0.0068849   0.0089240   0.0145618   0.0077776
    3  -0.0086926   0.0590911  -0.0049490  -0.0049645   0.0300384  -0.0352316
          247         248         249         250         251         252
    1  -0.0262249   0.0088292   0.0203228   0.0163270   0.0132359  -0.0248719
    2  -0.0202437   0.0000189  -0.0259121   0.0101841  -0.0022287  -0.0523451
    3   0.0533655  -0.0019503   0.0019186  -0.0322483   0.0367248  -0.0957178
          253         254         255         256         257         258
    1  -0.0104900  -0.0057201  -0.0272117  -0.0002164   0.0217058   0.0052158
    2  -0.0001106  -0.0305948   0.0165573   0.0026891   0.0472941  -0.0074412
    3  -0.0015762   0.0146105  -0.0024709  -0.0312008  -0.0355133   0.0043422
          259         260         261         262         263         264
    1   0.0294410  -0.0098401  -0.0023631  -0.0263622  -0.0067861  -0.0231474
    2   0.0053909  -0.0257566  -0.0132487   0.0142052  -0.0039141  -0.0280555
    3   0.0120815   0.0193344  -0.0246611   0.1050653   0.0058159   0.0164773
          265         266         267         268         269         270
    1   0.0230440  -0.0132419   0.0330248  -0.0096799   0.0054466  -0.0125655
    2  -0.0165609   0.0132627   0.0414990   0.0049079   0.0136614  -0.0300285
    3  -0.0022085   0.0373162  -0.0122702  -0.0007711  -0.0316347   0.0090649
          271         272         273         274         275         276
    1  -0.0067205  -0.0093714   0.0052296   0.0259553  -0.0033212   0.0187289
    2   0.0221185  -0.0921415   0.0021245  -0.0201087  -0.0047684   0.0269144
    3   0.0266990  -0.0604543  -0.0044276   0.0114763  -0.0315577   0.0045531
          277         278         279         280         281         282
    1   0.0084018  -0.0017929  -0.0279029   0.0119149   0.0006818  -0.0639421
    2  -0.0120133  -0.0033778  -0.0054264  -0.0122652  -0.0344488   0.0839953
    3   0.0570452  -0.0076614   0.0067122  -0.0268312   0.0081680  -0.0326164
          283         284         285         286         287         288
    1  -0.0052838   0.0081030  -0.0299155  -0.0131368   0.0309502  -0.0065545
    2  -0.0036867  -0.0318936  -0.0079762   0.0123450  -0.0128153   0.0056309
    3  -0.0076390   0.0092979   0.0137527  -0.0311691   0.0389037  -0.0032985
          289         290         291         292         293         294
    1  -0.0208501   0.0146263  -0.0195851   0.0338111   0.0024337   0.0257732
    2  -0.0025693   0.0257358  -0.0039831   0.0451579   0.0035522   0.0142425
    3   0.0215232   0.0016241  -0.0283259  -0.0964511   0.0067301   0.0194600
          295         296         297         298         299         300
    1  -0.0169828  -0.0128827   0.0172622  -0.0056601   0.0053941  -0.0087204
    2   0.0276373  -0.0200064   0.0550542  -0.0021168  -0.0132210  -0.0250369
    3   0.0006988   0.0151188  -0.0296118  -0.0021917  -0.0231565   0.0167735
          301         302
    1  -0.0224058   0.0764964
    2   0.0244778  -0.0762321
    3  -0.0100181   0.0117292
  --- DONE ESP SUMMARY ---
Archival summary:
1\1\n0096.mhg0\SP\ProcedureUnspecified\6-31+G*\282856h22\ymao\FriMar1214:25:542021FriMar1214:25:542021\0\\#,ProcedureUnspecified,6-31+G*,\\0,1\S\O,1,1.49708\Gh,2,1.72942,1,116.569\Gh,3,1.01248,2,152.537,1,79.6001,0\Gh,4,1.37807,3,116.669,2,-141.524,0\Gh,5,1.10457,4,111.702,3,-4.72131,0\Gh,5,1.21901,4,125.268,3,165.681,0\Gh,4,1.46279,3,117.456,2,27.6138,0\Gh,8,1.09625,4,103.314,3,-139.853,0\Gh,8,1.53694,4,115.398,3,105.438,0\Gh,10,1.0961,8,110.227,4,-65.6871,0\Gh,10,1.09734,8,105.21,4,50.5186,0\Gh,10,1.53775,8,115.919,4,167.461,0\Gh,13,1.09659,10,116.331,8,-62.069,0\Gh,13,1.09712,10,110.252,8,178.711,0\Gh,13,1.53768,10,107.78,8,60.0344,0\Gh,16,1.09609,13,113.718,10,-164.892,0\Gh,16,1.09731,13,107.259,10,76.7711,0\Gh,16,1.53752,13,113.946,10,-45.2426,0\Gh,19,1.09636,16,101.93,13,-72.1325,0\Gh,19,1.09689,16,115.786,13,170.64,0\Gh,19,1.53741,16,117.414,13,41.6578,0\Gh,22,1.09664,19,114.453,16,-172.697,0\Gh,22,1.09779,19,106.362,16,72.6777,0\C,1,1.80694,2,104.206,3,108.377,0\H,25,1.09193,1,102.204,2,179.713,0\H,25,1.09323,1,114.473,2,65.2498,0\H,25,1.09355,1,112.302,2,-62.8208,0\C,1,1.80706,2,108.416,3,8.51556,0\H,29,1.09233,1,106.011,2,176.208,0\H,29,1.0926,1,108.635,2,-62.843,0\H,29,1.09293,1,109.685,2,67.0821,0\H,27,2.17732,25,173.547,1,77.0546,0\C,33,1.09293,27,120.896,25,-66.1171,0\H,34,1.09263,33,106.512,27,153.825,0\H,34,1.09366,33,118.162,27,33.5285,0\S,34,1.80713,33,110.993,27,-96.9424,0\O,37,1.49714,34,108.954,33,-175.066,0\C,37,1.80724,34,93.088,33,82.9339,0\H,39,1.09257,37,109.974,34,55.0009,0\H,39,1.09289,37,114.847,34,-65.6008,0\H,39,1.09362,37,112.849,34,173.112,0\H,40,2.12447,39,151.644,37,-178.895,0\C,43,1.09282,40,149.738,39,-175.646,0\H,44,1.09256,43,108.481,40,-127.109,0\H,44,1.09391,43,111.14,40,109.928,0\S,44,1.80698,43,106.305,40,-13.8769,0\O,47,1.49684,44,101.876,43,-44.1998,0\C,47,1.80735,44,95.846,43,63.3102,0\H,49,1.09266,47,112.628,44,77.5304,0\H,49,1.09303,47,117.432,44,-53.1326,0\H,49,1.09343,47,97.7619,44,-165.573,0\H,38,2.26393,37,111.659,34,-128.755,0\C,53,1.09314,38,170.539,37,53.869,0\H,54,1.09314,53,105.904,38,104.02,0\H,54,1.0932,53,109.279,38,-15.5872,0\S,54,1.80663,53,118.084,38,-140.448,0\O,57,1.49713,54,103.244,53,-72.9202,0\C,57,1.80668,54,93.0591,53,-178.86,0\H,59,1.09258,57,105.565,54,58.118,0\H,59,1.09298,57,114.839,54,-64.8783,0\H,59,1.09349,57,105.195,54,172.429,0\H,9,2.29343,8,150.009,4,-154.984,0\C,63,1.09369,9,128.168,8,166.867,0\H,64,1.09268,63,109.412,9,126.08,0\H,64,1.0927,63,111.293,9,0.282939,0\S,64,1.80656,63,104.46,9,-117.732,0\O,67,1.49694,64,107.425,63,-58.6856,0\C,67,1.80752,64,93.9325,63,-160.081,0\H,69,1.09263,67,112.801,64,-53.3501,0\H,69,1.09267,67,108.17,64,71.847,0\H,69,1.09332,67,112.316,64,-172.899,0\H,32,2.33005,29,153.689,1,80.8063,0\C,73,1.09327,32,119.378,29,-131.998,0\H,74,1.09234,73,108.256,32,-2.09316,0\H,74,1.09279,73,112.144,32,-127.326,0\S,74,1.80684,73,107.212,32,112.852,0\O,77,1.49732,74,104.536,73,39.4122,0\C,77,1.8072,74,104.451,73,147.637,0\H,79,1.09282,77,105.392,74,-43.9087,0\H,79,1.09288,77,108.684,74,65.3747,0\H,79,1.09308,77,102.868,74,-161.63,0\H,81,2.01585,79,132.897,77,-93.0395,0\C,83,1.09227,81,166.419,79,27.2558,0\H,84,1.0924,83,111.561,81,23.1599,0\H,84,1.09299,83,107.066,81,149.846,0\S,84,1.80693,83,105.663,81,-97.6021,0\O,87,1.49693,84,98.6865,83,82.5729,0\C,87,1.80708,84,90.652,83,-175.293,0\H,89,1.09293,87,109.281,84,55.1668,0\H,89,1.09314,87,109.421,84,179.109,0\H,89,1.09316,87,116.504,84,-68.6701,0\H,92,2.23162,89,162.496,87,-110.266,0\C,93,1.09217,92,131.025,89,58.5373,0\H,94,1.09263,93,117.472,92,-108.296,0\H,94,1.0929,93,113.372,92,12.158,0\S,94,1.807,93,106.614,92,125.683,0\O,97,1.49619,94,105.84,93,-129.006,0\C,97,1.80781,94,91.9891,93,-31.4052,0\H,99,1.09265,97,112.049,94,71.4183,0\H,99,1.09303,97,106.825,94,-164.014,0\H,99,1.09351,97,108.961,94,-52.8242,0\H,83,2.23308,81,74.6442,79,148.369,0\C,103,1.09282,83,149.289,81,-138.533,0\H,104,1.09267,103,109.78,83,177.051,0\H,104,1.09288,103,111.663,83,-66.9217,0\S,104,1.80673,103,110.532,83,56.1248,0\O,107,1.49661,104,104.21,103,-60.011,0\C,107,1.80755,104,94.2721,103,-171.995,0\H,109,1.09199,107,105.89,104,165.968,0\H,109,1.09274,107,106.672,104,-75.1641,0\H,109,1.09289,107,108.715,104,45.7852,0\H,62,2.3416,59,95.405,57,-154.191,0\C,113,1.09305,62,107.258,59,-130.88,0\H,114,1.09199,113,106.793,62,-23.1687,0\H,114,1.09284,113,110.4,62,-143.122,0\S,114,1.80701,113,100.555,62,103.533,0\O,117,1.49771,114,104.832,113,61.5115,0\C,117,1.80648,114,94.7136,113,168.249,0\H,119,1.09253,117,112.88,114,42.6237,0\H,119,1.09311,117,109.698,114,174.868,0\H,119,1.0942,117,100.676,114,-77.1716,0\H,115,2.20515,114,131.574,113,153.773,0\C,123,1.09364,115,127.272,114,150.202,0\H,124,1.09262,123,108.471,115,-34.3706,0\H,124,1.09371,123,107.807,115,-151.764,0\S,124,1.80663,123,103.92,115,82.6267,0\O,127,1.49723,124,97.504,123,-37.6186,0\C,127,1.80711,124,91.3106,123,-139.887,0\H,129,1.09272,127,117.027,124,171.57,0\H,129,1.09341,127,108.56,124,55.598,0\H,129,1.09361,127,111.961,124,-67.8229,0\H,122,2.27568,119,137.818,117,-115.847,0\C,133,1.09287,122,117.432,119,116.812,0\H,134,1.09334,133,112.663,122,95.1227,0\H,134,1.09337,133,112.123,122,-27.3857,0\S,134,1.80633,133,105.047,122,-143.55,0\O,137,1.49625,134,105.551,133,-147.99,0\C,137,1.80678,134,93.8386,133,-34.4136,0\H,139,1.09316,137,109.636,134,-46.0735,0\H,139,1.09325,137,107.373,134,-153.697,0\H,139,1.09369,137,109.016,134,78.6323,0\H,128,2.32202,127,90.2065,124,107.448,0\C,143,1.09361,128,143.191,127,-155.097,0\H,144,1.09229,143,112.061,128,55.1635,0\H,144,1.09365,143,101.511,128,-68.541,0\S,144,1.80697,143,103.503,128,176.52,0\O,147,1.49687,144,109.595,143,-71.7969,0\C,147,1.807,144,101.337,143,35.735,0\H,149,1.09265,147,107.084,144,-146.999,0\H,149,1.09294,147,108.585,144,-36.7382,0\H,149,1.09327,147,114.653,144,94.0977,0\H,86,2.35458,84,128.907,83,-104.121,0\C,153,1.09298,86,133.123,84,-87.0054,0\H,154,1.09232,153,102.449,86,171.27,0\H,154,1.09293,153,105.267,86,-70.7202,0\S,154,1.80721,153,112.931,86,54.7335,0\O,157,1.49707,154,100.512,153,-79.8901,0\C,157,1.80682,154,95.1192,153,-178.637,0\H,159,1.09271,157,118.387,154,170.033,0\H,159,1.093,157,101.561,154,-67.1888,0\H,159,1.09302,157,95.1188,154,51.1505,0\H,46,2.37505,44,101.674,43,159.522,0\C,163,1.09277,46,151.055,44,-61.1741,0\H,164,1.09347,163,114.758,46,83.3415,0\H,164,1.09349,163,112.452,46,-159.303,0\S,164,1.80638,163,105.826,46,-31.3228,0\O,167,1.49627,164,105.367,163,73.6406,0\C,167,1.80751,164,100.461,163,-176.064,0\H,169,1.0926,167,108.873,164,66.9,0\H,169,1.0928,167,108.218,164,-43.0592,0\H,169,1.09321,167,105.822,164,-162.149,0\O,126,2.3826,124,144.297,123,-6.36739,0\S,173,1.49677,126,135.527,124,-65.8646,0\C,174,1.80655,173,103.205,126,135.501,0\H,175,1.09227,174,103.603,173,79.2312,0\H,175,1.09335,174,115.42,173,-168.559,0\H,175,1.09345,174,112.727,173,-35.392,0\C,174,1.80712,173,100.686,126,44.2632,0\H,179,1.09275,174,105.797,173,84.7431,0\H,179,1.09294,174,106.448,173,-39.4512,0\H,179,1.09377,174,108.769,173,-156.954,0\H,182,1.89259,179,171.346,174,39.0802,0\C,183,1.09214,182,143.327,179,-111.321,0\H,184,1.09248,183,107.421,182,-140.567,0\H,184,1.09308,183,108.867,182,102.19,0\S,184,1.80736,183,108.079,182,-28.1164,0\O,187,1.49729,184,108.577,183,55.9244,0\C,187,1.80712,184,91.9228,183,167.253,0\H,189,1.09287,187,105.556,184,-74.6042,0\H,189,1.09298,187,109.568,184,168.019,0\H,189,1.09365,187,111.12,184,48.9794,0\H,192,2.15047,189,165.475,187,118.502,0\C,193,1.09289,192,135.923,189,-90.2801,0\H,194,1.0931,193,106.681,192,-155.414,0\H,194,1.09312,193,112.394,192,-28.007,0\S,194,1.80689,193,107.745,192,82.5735,0\O,197,1.49687,194,106.317,193,49.506,0\C,197,1.80706,194,90.522,193,152.191,0\H,199,1.09263,197,108.836,194,-60.076,0\H,199,1.09287,197,101.672,194,-178.741,0\H,199,1.09324,197,102.198,194,69.0591,0\O,201,2.29683,199,151.441,197,-114.433,0\S,203,1.49634,201,93.1955,199,-28.1489,0\C,204,1.80675,203,99.3104,201,-171.305,0\H,205,1.09297,204,110.804,203,-175.405,0\H,205,1.09329,204,105.717,203,-49.3405,0\H,205,1.0935,204,117.282,203,58.9869,0\C,204,1.8069,203,101.791,201,86.5299,0\H,209,1.09222,204,110.654,203,-56.6771,0\H,209,1.09233,204,106.711,203,58.6928,0\H,209,1.09343,204,109.347,203,179.39,0\H,211,2.14996,209,118.089,204,-74.6928,0\C,213,1.09267,211,134.731,209,105.231,0\H,214,1.09244,213,102.843,211,-4.23213,0\H,214,1.09287,213,118.571,211,-131.102,0\S,214,1.8071,213,104.578,211,112.554,0\O,217,1.49695,214,105.762,213,-33.7796,0\C,217,1.80718,214,96.0203,213,-147.455,0\H,219,1.0927,217,104.407,214,-76.489,0\H,219,1.09275,217,105.659,214,165.254,0\H,219,1.09292,217,114.406,214,44.8139,0\H,180,2.3831,179,132.344,174,114.055,0\C,223,1.09263,180,142.728,179,140.257,0\H,224,1.09258,223,108.324,180,-41.4549,0\H,224,1.09285,223,111.308,180,-157.812,0\S,224,1.80686,223,110.024,180,78.4913,0\O,227,1.49643,224,106.813,223,-27.454,0\C,227,1.80678,224,92.3896,223,78.2271,0\H,229,1.0924,227,106.48,224,-58.7505,0\H,229,1.09274,227,102.661,224,71.4934,0\H,229,1.09357,227,105.17,224,-177.522,0\H,231,2.08706,229,163.522,227,44.9847,0\C,233,1.09234,231,151.067,229,-16.6246,0\H,234,1.09278,233,112.45,231,2.1683,0\H,234,1.09349,233,98.9709,231,117.904,0\S,234,1.80766,233,112.97,231,-122.585,0\O,237,1.49765,234,107.595,233,177.116,0\C,237,1.80674,234,96.4377,233,73.3531,0\H,239,1.09255,237,105.993,234,-76.0799,0\H,239,1.09294,237,112.782,234,40.7429,0\H,239,1.09298,237,104.755,234,163.586,0\H,241,1.95306,239,142.616,237,127.739,0\C,243,1.09348,241,133.008,239,159.765,0\H,244,1.09264,243,103.75,241,-44.1243,0\H,244,1.09288,243,113.65,241,-177.591,0\S,244,1.80687,243,102.498,241,65.9017,0\O,247,1.49711,244,107.31,243,-69.8594,0\C,247,1.80648,244,97.903,243,42.4814,0\H,249,1.0931,247,113.719,244,-86.7498,0\H,249,1.0932,247,102.801,244,34.3871,0\H,249,1.09354,247,114.951,244,148.751,0\H,252,2.13726,249,118.271,247,-110.307,0\C,253,1.0931,252,132.689,249,-14.4682,0\H,254,1.09269,253,102.897,252,-158.419,0\H,254,1.09275,253,113.051,252,-41.3544,0\S,254,1.80726,253,104.474,252,82.3961,0\O,257,1.49722,254,112.597,253,-88.0537,0\C,257,1.80705,254,97.1386,253,159.918,0\H,259,1.09282,257,105.549,254,-163.625,0\H,259,1.09296,257,107.053,254,85.1028,0\H,259,1.09323,257,117.667,254,-40.9014,0\H,246,2.2689,244,139.588,243,62.9342,0\C,263,1.09349,246,92.2694,244,117.557,0\H,264,1.09254,263,106.832,246,-61.4741,0\H,264,1.09338,263,113.263,246,59.36,0\S,264,1.80686,263,109.58,246,-175.628,0\O,267,1.49757,264,106.469,263,24.209,0\C,267,1.80636,264,102.35,263,-85.9259,0\H,269,1.0931,267,95.8973,264,159.752,0\H,269,1.09313,267,100.906,264,-86.6554,0\H,269,1.09384,267,111.559,264,39.5073,0\H,266,2.04735,264,121.775,263,-98.9347,0\C,273,1.09324,266,128.842,264,-129.215,0\H,274,1.09257,273,101.999,266,-62.4646,0\H,274,1.09301,273,109.403,266,179.08,0\S,274,1.80683,273,100.357,266,56.5169,0\O,277,1.49691,274,105.175,273,-70.1363,0\C,277,1.80734,274,91.8692,273,-174.777,0\H,279,1.09276,277,109.404,274,-57.5238,0\H,279,1.09287,277,109.155,274,64.4748,0\H,279,1.09335,277,106.395,274,-177.184,0\H,48,2.47228,47,117.016,44,-67.6467,0\C,283,1.09218,48,147.298,47,-94.8679,0\H,284,1.09344,283,107.7,48,153.538,0\H,284,1.09346,283,102.133,48,-92.4816,0\S,284,1.80652,283,112.643,48,29.4245,0\O,287,1.49812,284,102.505,283,172.112,0\C,287,1.80728,284,96.5128,283,67.9341,0\H,289,1.09235,287,101.536,284,-133.319,0\H,289,1.0932,287,105.841,284,114.389,0\H,289,1.09352,287,111.04,284,-7.07281,0\H,292,2.49363,289,102.127,287,89.4151,0\C,293,1.09291,292,138.992,289,-152.015,0\H,294,1.09249,293,107.57,292,-27.5807,0\H,294,1.09308,293,110.303,292,-149.923,0\S,294,1.80777,293,113.131,292,91.7962,0\O,297,1.49694,294,104.119,293,-157.992,0\C,297,1.80717,294,92.402,293,97.9767,0\H,299,1.09285,297,99.9178,294,-171.342,0\H,299,1.09296,297,107.224,294,71.034,0\H,299,1.0932,297,113.39,294,-56.418,0\\\@

 Total job time:  69.74s(wall), 241.38s(cpu) 
 Fri Mar 12 14:25:54 2021

        *************************************************************
        *                                                           *
        *  Thank you very much for using Q-Chem.  Have a nice day.  *
        *                                                           *
        *************************************************************


