                  Welcome to Q-Chem
     A Quantum Leap Into The Future Of Chemistry


 Q-Chem 5.2 (devel), Q-Chem, Inc., Pleasanton, CA (2019)

 Yihan Shao,  Zhengting Gan,  E. Epifanovsky,  A. T. B. Gilbert,  M. Wormit,  
 J. Kussmann,  A. W. Lange,  A. Behn,  Jia Deng,  Xintian Feng,  D. Ghosh,  
 M. Goldey,  P. R. Horn,  L. D. Jacobson,  I. Kaliman,  T. Kus,  A. Landau,  
 Jie Liu,  E. I. Proynov,  R. M. Richard,  R. P. Steele,  E. J. Sundstrom,  
 H. L. Woodcock III,  P. M. Zimmerman,  D. Zuev,  B. Alam,  B. Albrecht,  
 E. Alguire,  S. A. Baeppler,  D. Barton,  Z. Benda,  Y. A. Bernard,  
 E. J. Berquist,  K. B. Bravaya,  H. Burton,  K. Carter-Fenk,  D. Casanova,  
 Chun-Min Chang,  Yunqing Chen,  A. Chien,  K. D. Closser,  M. P. Coons,  
 S. Coriani,  S. Dasgupta,  A. L. Dempwolff,  M. Diedenhofen,  Hainam Do,  
 R. G. Edgar,  Po-Tung Fang,  S. Faraji,  S. Fatehi,  Qingguo Feng,  
 J. Fosso-Tande,  J. Gayvert,  Qinghui Ge,  A. Ghysels,  G. Gidofalvi,  
 J. Gomes,  J. Gonthier,  A. Gunina,  D. Hait,  M. W. D. Hanson-Heine,  
 P. H. P. Harbach,  A. W. Hauser,  M. F. Herbst,  J. E. Herr,  
 E. G. Hohenstein,  Z. C. Holden,  Kerwin Hui,  B. C. Huynh,  T.-C. Jagau,  
 Hyunjun Ji,  B. Kaduk,  K. Khistyaev,  Jaehoon Kim,  P. Klunzinger,  K. Koh,  
 D. Kosenkov,  L. Koulias,  T. Kowalczyk,  C. M. Krauter,  A. Kunitsa,  
 Ka Un Lao,  A. Laurent,  K. V. Lawler,  Joonho Lee,  D. Lefrancois,  
 S. Lehtola,  D. S. Levine,  Yi-Pei Li,  You-Sheng Lin,  Fenglai Liu,  
 Kuan-Yu Liu,  E. Livshits,  M. Loipersberger,  A. Luenser,  P. Manohar,  
 E. Mansoor,  S. F. Manzer,  Shan-Ping Mao,  Yuezhi Mao,  N. Mardirossian,  
 A. V. Marenich,  T. Markovich,  L. A. Martinez-Martinez,  S. A. Maurer,  
 N. J. Mayhall,  S. C. McKenzie,  J.-M. Mewes,  P. Morgante,  A. F. Morrison,  
 J. W. Mullinax,  K. Nanda,  T. S. Nguyen-Beck,  R. Olivares-Amaya,  
 J. A. Parkhill,  S. K. Paul,  F. Pavosevic,  Zheng Pei,  T. M. Perrine,  
 F. Plasser,  P. Pokhilko,  S. Prager,  A. Prociuk,  E. Ramos,  B. Rana,  
 D. R. Rehn,  F. Rob,  M. Scheurer,  M. Schneider,  N. Sergueev,  
 S. M. Sharada,  S. Sharma,  D. W. Small,  T. Stauch,  C. J. Stein,  
 T. Stein,  Yu-Chuan Su,  S. P. Veccham,  Zhen Tao,  A. J. W. Thom,  
 A. Tkatchenko,  T. Tsuchimochi,  N. M. Tubman,  L. Vogt,  M. L. Vidal,  
 O. Vydrov,  M. A. Watson,  J. Wenzel,  M. de Wergifosse,  T. A. Wesolowski,  
 A. White,  J. Witte,  A. Yamada,  Jun Yang,  K. Yao,  S. Yeganeh,  
 S. R. Yost,  Zhi-Qiang You,  A. Zech,  Igor Ying Zhang,  Xing Zhang,  
 Yan Zhao,  Ying Zhu,  B. R. Brooks,  G. K. L. Chan,  C. J. Cramer,  
 M. S. Gordon,  W. J. Hehre,  A. Klamt,  M. W. Schmidt,  C. D. Sherrill,  
 D. G. Truhlar,  A. Aspuru-Guzik,  R. Baer,  A. T. Bell,  N. A. Besley,  
 Jeng-Da Chai,  A. E. DePrince, III,  R. A. DiStasio Jr.,  A. Dreuw,  
 B. D. Dunietz,  T. R. Furlani,  Chao-Ping Hsu,  Yousung Jung,  Jing Kong,  
 D. S. Lambrecht,  WanZhen Liang,  C. Ochsenfeld,  V. A. Rassolov,  
 L. V. Slipchenko,  J. E. Subotnik,  T. Van Voorhis,  J. M. Herbert,  
 A. I. Krylov,  P. M. W. Gill,  M. Head-Gordon

 Contributors to earlier versions of Q-Chem not listed above: 
 R. D. Adamson,  B. Austin,  J. Baker,  G. J. O. Beran,  K. Brandhorst,  
 S. T. Brown,  E. F. C. Byrd,  A. K. Chakraborty,  C.-L. Cheng,  
 Siu Hung Chien,  D. M. Chipman,  D. L. Crittenden,  H. Dachsel,  
 R. J. Doerksen,  A. D. Dutoi,  L. Fusti-Molnar,  W. A. Goddard III,  
 A. Golubeva-Zadorozhnaya,  S. R. Gwaltney,  G. Hawkins,  A. Heyden,  
 S. Hirata,  G. Kedziora,  F. J. Keil,  C. Kelley,  Jihan Kim,  R. A. King,  
 R. Z. Khaliullin,  P. P. Korambath,  W. Kurlancheek,  A. M. Lee,  M. S. Lee,  
 S. V. Levchenko,  Ching Yeh Lin,  D. Liotard,  R. C. Lochan,  I. Lotan,  
 P. E. Maslen,  N. Nair,  D. P. O'Neill,  D. Neuhauser,  E. Neuscamman,  
 C. M. Oana,  R. Olson,  B. Peters,  R. Peverati,  P. A. Pieniazek,  
 Y. M. Rhee,  J. Ritchie,  M. A. Rohrdanz,  E. Rosta,  N. J. Russ,  
 H. F. Schaefer III,  N. E. Schultz,  N. Shenvi,  A. C. Simmonett,  A. Sodt,  
 D. Stuck,  K. S. Thanthiriwatte,  V. Vanovschi,  Tao Wang,  A. Warshel,  
 C. F. Williams,  Q. Wu,  X. Xu,  W. Zhang

 Please cite Q-Chem as follows:
 Y. Shao et al., Mol. Phys. 113, 184-215 (2015)
 DOI: 10.1080/00268976.2014.952696

 Q-Chem 5.2.2 for Intel X86 EM64T Linux

 Parts of Q-Chem use Armadillo 9.800.1 (Horizon Scraper).
 http://arma.sourceforge.net/

 Q-Chem begins on Thu Mar 11 13:37:45 2021  

Host: n0095.mhg0
0

     Scratch files written to /local/scratch/users/ymao/r7.00_frame_0058_almo_B3LYP_dp.in20210311133741//

Checking the input file for inconsistencies... 	...done.

--------------------------------------------------------------
User input:
--------------------------------------------------------------
$molecule
0 1
--
0 1
C    25.05100   20.97100   26.61300  
C    25.50900   22.07100   27.58600  
C    26.92100   22.57000   27.23800  
C    27.04400   23.03800   25.77900  
C    26.63900   21.89200   24.83700  
C    25.24800   21.30300   25.12400  
H    27.13200   23.38300   27.94400  
H    24.84400   22.94300   27.57300  
H    25.72800   20.13700   26.83200  
H    24.02300   20.65700   26.82700  
H    26.38800   23.89000   25.56300  
H    28.06200   23.41800   25.62700  
H    26.52600   22.23100   23.80000  
H    27.46100   21.16600   24.83600  
H    24.48800   22.02300   24.79600  
H    25.11000   20.40000   24.51800  
H    27.74600   21.88100   27.45500  
N    25.51000   21.56200   28.95600  
H    26.08100   20.77400   29.23700  
C    25.23100   22.37500   30.03400  
H    25.27700   21.74800   30.94200  
O    24.91300   23.54500   29.91600  
--
0 1
C    25.83500   26.65900   27.51200  
H    26.25200   26.50700   28.51100  
H    26.27000   26.00900   26.74900  
H    25.89800   27.72900   27.30100  
S    24.14600   26.02600   27.63500  
C    23.81800   26.16800   25.86300  
H    24.63800   25.73600   25.28400  
H    22.91000   25.68600   25.49300  
H    23.72100   27.23000   25.62300  
O    23.46600   27.24500   28.17500  
C    21.32000   19.40600   18.71600  
H    22.27400   19.86500   18.44200  
H    21.00000   18.67000   17.97600  
H    20.52500   20.14300   18.85800  
S    21.29400   18.68700   20.37400  
C    22.72300   17.63000   20.05100  
H    23.53100   18.36600   20.07800  
H    22.76200   17.02800   20.96200  
H    22.75700   17.06200   19.11800  
O    20.14700   17.72500   20.34300  
C    21.89700   24.59200   34.74100  
H    22.07800   23.74000   34.08100  
H    21.24100   24.36000   35.58400  
H    21.40300   25.41500   34.21800  
S    23.32400   25.43400   35.46300  
C    23.97300   23.90100   36.16600  
H    24.26700   23.21300   35.36900  
H    24.87500   24.12900   36.74000  
H    23.23400   23.47700   36.85000  
O    22.77000   25.97300   36.74400  
C    30.60800   24.56100   29.59300  
H    29.70400   24.21600   30.10300  
H    31.20600   23.66000   29.43600  
H    31.21100   25.20400   30.23900  
S    30.21100   25.22700   27.96100  
C    31.68500   26.26800   27.87200  
H    31.88000   26.82500   28.79200  
H    32.52800   25.66000   27.53200  
H    31.47700   27.03100   27.11800  
O    29.19800   26.25400   28.36200  
C    32.25500   22.81500   32.42900  
H    31.85200   23.19900   31.48800  
H    32.24500   23.68200   33.09400  
H    33.25600   22.42700   32.22500  
S    31.17600   21.59100   33.20700  
C    32.17100   21.35700   34.69700  
H    31.79000   20.51400   35.27800  
H    33.16000   21.08900   34.31400  
H    32.24700   22.32600   35.19600  
O    31.75600   20.42400   32.47000  
C    31.66400   20.72100   26.56100  
H    32.47200   20.75900   25.82600  
H    32.05200   21.21400   27.45600  
H    31.34600   19.68600   26.71200  
S    30.35800   21.80100   25.93300  
C    30.29800   21.15800   24.24600  
H    30.13300   20.08000   24.31800  
H    29.42000   21.60300   23.77000  
H    31.30200   21.33000   23.84800  
O    31.17600   23.05500   25.89800  
C    23.34400   19.33000   33.31800  
H    23.47100   19.42900   34.39900  
H    22.84100   18.37800   33.13400  
H    24.26700   19.28000   32.73400  
S    22.49500   20.82700   32.76600  
C    22.17900   20.13300   31.12700  
H    21.37100   20.72800   30.69100  
H    23.03900   20.16000   30.45400  
H    21.84400   19.09300   31.15000  
O    23.56100   21.87400   32.67300  
C    28.98400   18.19500   29.51700  
H    29.48400   18.20800   30.48900  
H    28.07300   17.60300   29.63600  
H    29.57900   17.87400   28.65800  
S    28.12800   19.78600   29.47400  
C    29.39600   20.73400   30.34500  
H    30.28400   20.72300   29.70800  
H    29.12600   21.75700   30.62100  
H    29.54700   20.21000   31.29200  
O    27.05000   19.58100   30.49300  
C    23.42000   22.80500   19.04100  
H    22.45800   23.32000   18.97300  
H    24.02000   23.61900   18.62600  
H    23.52600   21.88800   18.45500  
S    23.79100   22.29300   20.73300  
C    25.50200   22.87100   20.66100  
H    25.92800   22.51200   21.60200  
H    26.06800   22.41300   19.84600  
H    25.52100   23.95400   20.52000  
O    23.94000   20.80500   20.67900  
C    27.67400   20.77000   33.99100  
H    27.04000   20.67400   33.10600  
H    27.67700   21.82300   34.28200  
H    28.70100   20.46700   33.77000  
S    27.01700   19.78700   35.35800  
C    25.62700   20.88500   35.71900  
H    25.12900   20.43500   36.58100  
H    26.01900   21.86600   35.99900  
H    24.93000   20.89200   34.87700  
O    28.01000   20.19300   36.40100  
C    18.04000   21.34100   20.16400  
H    17.52300   22.12800   19.60800  
H    18.14000   20.47400   19.50600  
H    17.42900   21.02300   21.01200  
S    19.60200   22.03800   20.74800  
C    19.08300   23.10400   22.11200  
H    18.24700   23.68500   21.71600  
H    18.76800   22.42900   22.91200  
H    19.89300   23.72600   22.50200  
O    20.14500   22.99100   19.72900  
C    25.54800   13.35000   23.59900  
H    24.61600   12.79100   23.72000  
H    26.06900   12.89000   22.75600  
H    26.14500   13.40900   24.51200  
S    25.11000   15.04500   23.15000  
C    24.06100   15.58500   24.51900  
H    23.88600   16.65900   24.41300  
H    23.07900   15.13300   24.36300  
H    24.51400   15.41700   25.50000  
O    24.16400   14.93200   21.99500  
C    19.07900   27.50000   23.72600  
H    19.83600   28.26700   23.53900  
H    18.78800   26.93100   22.83900  
H    18.17300   27.87700   24.20800  
S    19.83900   26.29200   24.83300  
C    20.64600   27.43900   25.97200  
H    21.08800   26.79700   26.73900  
H    21.35200   28.08900   25.44700  
H    19.87500   28.11300   26.35300  
O    20.97900   25.69400   24.06800  
C    26.02700   31.02300   23.97600  
H    26.39300   31.03900   22.94600  
H    25.41700   31.92000   24.11200  
H    26.90000   30.99800   24.63400  
S    24.78000   29.74300   24.24200  
C    24.46100   30.12800   25.97900  
H    25.36300   30.02300   26.58800  
H    23.98000   31.10000   26.10800  
H    23.73400   29.35700   26.24600  
O    25.55600   28.48400   24.47600  
C    29.17100   28.80600   25.66000  
H    28.71300   29.79800   25.66400  
H    28.63600   28.25800   26.44000  
H    30.25100   28.91700   25.78400  
S    28.90600   28.08400   24.02500  
C    28.81200   26.33600   24.47100  
H    28.43500   25.76100   23.62200  
H    29.82600   25.96500   24.63700  
H    28.09600   26.14500   25.27500  
O    30.22400   28.09400   23.31600  
C    26.18300   16.24500   31.39800  
H    26.23100   17.29400   31.09300  
H    27.09500   15.81200   31.81700  
H    25.92900   15.66300   30.50800  
S    24.83300   16.08300   32.58700  
C    25.06400   14.29300   32.48600  
H    26.04700   14.06100   32.90300  
H    24.30400   13.72000   33.02300  
H    25.00900   13.97100   31.44300  
O    23.65700   16.32400   31.69200  
C    21.96300   19.97100   23.66900  
H    22.16600   19.14900   22.97800  
H    21.27800   20.71300   23.24900  
H    22.78700   20.60600   24.00400  
S    21.15300   19.29200   25.13400  
C    20.04900   18.18300   24.23000  
H    20.52700   17.25500   23.90300  
H    19.27500   17.94600   24.96400  
H    19.61200   18.67800   23.35900  
O    20.23700   20.42800   25.46900  
C    25.74000   28.33000   36.47700  
H    24.76400   28.00500   36.84700  
H    26.50000   27.58200   36.71600  
H    25.99900   29.30800   36.89200  
S    25.63100   28.57500   34.69000  
C    23.89200   29.06000   34.75500  
H    23.31500   28.25500   35.21700  
H    23.80900   30.01300   35.28300  
H    23.47900   29.32400   33.77800  
O    25.47300   27.26200   33.98700  
C    29.80600   18.21400   21.70400  
H    29.16300   18.93600   22.21300  
H    30.04000   17.29600   22.24900  
H    30.61400   18.78900   21.24400  
S    28.77400   17.78900   20.28200  
C    28.27500   19.42200   19.69200  
H    28.04700   20.00200   20.59100  
H    29.14400   19.81400   19.15900  
H    27.37800   19.26400   19.08700  
O    27.53200   17.21300   20.88700  
C    28.14600   24.92300   20.30200  
H    28.63000   25.37500   19.43200  
H    27.50300   24.15700   19.86200  
H    27.46200   25.58100   20.84400  
S    29.10400   23.95800   21.49200  
C    30.77900   24.48600   21.06500  
H    30.89000   25.55800   21.25200  
H    31.48200   23.92600   21.68700  
H    30.97400   24.28800   20.00800  
O    29.08000   22.53100   21.04100  
C    21.41600   24.26900   31.00200  
H    21.08200   23.95000   31.99300  
H    20.52500   24.12700   30.38600  
H    22.29000   23.73700   30.61700  
S    21.69400   26.05300   31.07400  
C    23.35000   26.04200   31.79900  
H    23.30800   25.34600   32.64000  
H    24.10600   25.77500   31.05600  
H    23.46500   26.99700   32.31800  
O    20.82000   26.55600   32.18100  
C    28.52700   15.93500   25.51100  
H    29.46400   16.03800   24.95800  
H    28.79000   15.51100   26.48400  
H    27.78400   15.37700   24.93500  
S    27.76000   17.55200   25.75700  
C    27.19800   17.79000   24.05600  
H    26.69800   18.76200   24.08900  
H    28.02900   17.69000   23.35400  
H    26.44900   17.04800   23.76800  
O    28.90200   18.51500   25.86300  
C    17.15400   17.77700   28.68500  
H    16.58700   17.84400   27.75300  
H    18.04200   17.14000   28.64600  
H    16.49900   17.43300   29.49000  
S    17.63400   19.45600   29.14700  
C    18.13800   19.83800   27.45400  
H    18.83500   19.05900   27.13200  
H    17.23400   20.05400   26.87900  
H    18.77600   20.72500   27.46800  
O    18.96000   19.19900   29.79200  
C    18.79000   23.46900   26.03300  
H    18.45400   22.42900   26.06100  
H    17.97300   24.18500   25.91000  
H    19.52500   23.52400   25.22600  
S    19.70900   23.95400   27.51100  
C    21.19100   22.97400   27.18300  
H    21.04800   21.89600   27.28900  
H    21.67300   23.32200   26.26500  
H    21.90000   23.17600   27.99000  
O    18.99000   23.18500   28.57500  
C    21.68800   26.45900   20.41900  
H    21.26100   25.93500   19.56000  
H    20.96400   26.48300   21.23800  
H    21.82700   27.48900   20.08000  
S    23.25300   25.79700   21.03200  
C    23.70000   26.99500   22.30800  
H    23.04800   26.79100   23.16100  
H    24.76500   26.84500   22.50500  
H    23.64500   27.98600   21.85200  
O    24.24300   26.05900   19.93900  
C    34.32000   27.87000   22.34800  
H    34.47500   28.65400   23.09400  
H    35.19800   27.22900   22.23900  
H    34.04500   28.35700   21.40800  
S    33.00500   26.69600   22.74300  
C    33.02000   26.75000   24.54900  
H    32.71100   27.74400   24.88300  
H    32.27900   25.98000   24.77600  
H    34.06900   26.57200   24.80000  
O    33.52300   25.33200   22.40700  
C    27.85800   25.97600   32.00800  
H    28.65000   26.20400   31.29000  
H    26.90900   26.44000   31.72700  
H    28.18700   26.17200   33.03200  
S    27.57500   24.19400   31.91600  
C    26.43100   24.09800   33.31200  
H    25.94500   23.11900   33.29400  
H    27.02800   24.31400   34.20200  
H    25.72600   24.93200   33.27900  
O    28.82500   23.62000   32.50700  
C    21.88200   18.06400   28.39700  
H    22.11900   19.13000   28.43800  
H    20.97400   17.89900   27.81200  
H    21.74700   17.78200   29.44400  
S    23.40300   17.26100   27.84600  
C    24.35200   18.09200   29.14000  
H    25.40700   17.80900   29.14100  
H    24.34600   19.17400   28.98500  
H    23.90500   17.90600   30.12000  
O    23.66600   17.92400   26.53000  
C    32.01000   16.65800   26.22100  
H    31.84800   15.65800   26.63000  
H    32.88700   17.05800   26.73700  
H    31.10100   17.26100   26.29800  
S    32.60700   16.38300   24.53800  
C    32.67500   18.12800   24.07300  
H    32.65800   18.11400   22.98000  
H    31.99100   18.87900   24.47600  
H    33.60400   18.49700   24.51500  
O    31.64900   16.00800   23.45000  
$end

$rem
JOBTYPE  SP
METHOD  B3LYP
BASIS  6-31+G(D)
SYMMETRY  FALSE
SYM_IGNORE  TRUE
MEM_TOTAL  16000
MEM_STATIC  8000
MAX_SUB_FILE_NUM  16000
BASIS_LIN_DEP_THRESH  6
THRESH  14
SCF_CONVERGENCE  8
GEN_SCFMAN  TRUE
SCF_GUESS  FRAGMO
FD_MAT_VEC_PROD  FALSE
XC_GRID  000075000302
NL_GRID  1
MAX_SCF_CYCLES  200
FRGM_METHOD  STOLL
SCFMI_MODE  1
$end

$development
almo_efield  1
$end

$rem_frgm
SCF_CONVERGENCE  4
$end

--------------------------------------------------------------
 ----------------------------------------------------------------
             Standard Nuclear Orientation (Angstroms)
    I     Atom           X                Y                Z
 ----------------------------------------------------------------
    1      C      25.0510000000    20.9710000000    26.6130000000
    2      C      25.5090000000    22.0710000000    27.5860000000
    3      C      26.9210000000    22.5700000000    27.2380000000
    4      C      27.0440000000    23.0380000000    25.7790000000
    5      C      26.6390000000    21.8920000000    24.8370000000
    6      C      25.2480000000    21.3030000000    25.1240000000
    7      H      27.1320000000    23.3830000000    27.9440000000
    8      H      24.8440000000    22.9430000000    27.5730000000
    9      H      25.7280000000    20.1370000000    26.8320000000
   10      H      24.0230000000    20.6570000000    26.8270000000
   11      H      26.3880000000    23.8900000000    25.5630000000
   12      H      28.0620000000    23.4180000000    25.6270000000
   13      H      26.5260000000    22.2310000000    23.8000000000
   14      H      27.4610000000    21.1660000000    24.8360000000
   15      H      24.4880000000    22.0230000000    24.7960000000
   16      H      25.1100000000    20.4000000000    24.5180000000
   17      H      27.7460000000    21.8810000000    27.4550000000
   18      N      25.5100000000    21.5620000000    28.9560000000
   19      H      26.0810000000    20.7740000000    29.2370000000
   20      C      25.2310000000    22.3750000000    30.0340000000
   21      H      25.2770000000    21.7480000000    30.9420000000
   22      O      24.9130000000    23.5450000000    29.9160000000
   23      C      25.8350000000    26.6590000000    27.5120000000
   24      H      26.2520000000    26.5070000000    28.5110000000
   25      H      26.2700000000    26.0090000000    26.7490000000
   26      H      25.8980000000    27.7290000000    27.3010000000
   27      S      24.1460000000    26.0260000000    27.6350000000
   28      C      23.8180000000    26.1680000000    25.8630000000
   29      H      24.6380000000    25.7360000000    25.2840000000
   30      H      22.9100000000    25.6860000000    25.4930000000
   31      H      23.7210000000    27.2300000000    25.6230000000
   32      O      23.4660000000    27.2450000000    28.1750000000
   33      C      21.3200000000    19.4060000000    18.7160000000
   34      H      22.2740000000    19.8650000000    18.4420000000
   35      H      21.0000000000    18.6700000000    17.9760000000
   36      H      20.5250000000    20.1430000000    18.8580000000
   37      S      21.2940000000    18.6870000000    20.3740000000
   38      C      22.7230000000    17.6300000000    20.0510000000
   39      H      23.5310000000    18.3660000000    20.0780000000
   40      H      22.7620000000    17.0280000000    20.9620000000
   41      H      22.7570000000    17.0620000000    19.1180000000
   42      O      20.1470000000    17.7250000000    20.3430000000
   43      C      21.8970000000    24.5920000000    34.7410000000
   44      H      22.0780000000    23.7400000000    34.0810000000
   45      H      21.2410000000    24.3600000000    35.5840000000
   46      H      21.4030000000    25.4150000000    34.2180000000
   47      S      23.3240000000    25.4340000000    35.4630000000
   48      C      23.9730000000    23.9010000000    36.1660000000
   49      H      24.2670000000    23.2130000000    35.3690000000
   50      H      24.8750000000    24.1290000000    36.7400000000
   51      H      23.2340000000    23.4770000000    36.8500000000
   52      O      22.7700000000    25.9730000000    36.7440000000
   53      C      30.6080000000    24.5610000000    29.5930000000
   54      H      29.7040000000    24.2160000000    30.1030000000
   55      H      31.2060000000    23.6600000000    29.4360000000
   56      H      31.2110000000    25.2040000000    30.2390000000
   57      S      30.2110000000    25.2270000000    27.9610000000
   58      C      31.6850000000    26.2680000000    27.8720000000
   59      H      31.8800000000    26.8250000000    28.7920000000
   60      H      32.5280000000    25.6600000000    27.5320000000
   61      H      31.4770000000    27.0310000000    27.1180000000
   62      O      29.1980000000    26.2540000000    28.3620000000
   63      C      32.2550000000    22.8150000000    32.4290000000
   64      H      31.8520000000    23.1990000000    31.4880000000
   65      H      32.2450000000    23.6820000000    33.0940000000
   66      H      33.2560000000    22.4270000000    32.2250000000
   67      S      31.1760000000    21.5910000000    33.2070000000
   68      C      32.1710000000    21.3570000000    34.6970000000
   69      H      31.7900000000    20.5140000000    35.2780000000
   70      H      33.1600000000    21.0890000000    34.3140000000
   71      H      32.2470000000    22.3260000000    35.1960000000
   72      O      31.7560000000    20.4240000000    32.4700000000
   73      C      31.6640000000    20.7210000000    26.5610000000
   74      H      32.4720000000    20.7590000000    25.8260000000
   75      H      32.0520000000    21.2140000000    27.4560000000
   76      H      31.3460000000    19.6860000000    26.7120000000
   77      S      30.3580000000    21.8010000000    25.9330000000
   78      C      30.2980000000    21.1580000000    24.2460000000
   79      H      30.1330000000    20.0800000000    24.3180000000
   80      H      29.4200000000    21.6030000000    23.7700000000
   81      H      31.3020000000    21.3300000000    23.8480000000
   82      O      31.1760000000    23.0550000000    25.8980000000
   83      C      23.3440000000    19.3300000000    33.3180000000
   84      H      23.4710000000    19.4290000000    34.3990000000
   85      H      22.8410000000    18.3780000000    33.1340000000
   86      H      24.2670000000    19.2800000000    32.7340000000
   87      S      22.4950000000    20.8270000000    32.7660000000
   88      C      22.1790000000    20.1330000000    31.1270000000
   89      H      21.3710000000    20.7280000000    30.6910000000
   90      H      23.0390000000    20.1600000000    30.4540000000
   91      H      21.8440000000    19.0930000000    31.1500000000
   92      O      23.5610000000    21.8740000000    32.6730000000
   93      C      28.9840000000    18.1950000000    29.5170000000
   94      H      29.4840000000    18.2080000000    30.4890000000
   95      H      28.0730000000    17.6030000000    29.6360000000
   96      H      29.5790000000    17.8740000000    28.6580000000
   97      S      28.1280000000    19.7860000000    29.4740000000
   98      C      29.3960000000    20.7340000000    30.3450000000
   99      H      30.2840000000    20.7230000000    29.7080000000
  100      H      29.1260000000    21.7570000000    30.6210000000
  101      H      29.5470000000    20.2100000000    31.2920000000
  102      O      27.0500000000    19.5810000000    30.4930000000
  103      C      23.4200000000    22.8050000000    19.0410000000
  104      H      22.4580000000    23.3200000000    18.9730000000
  105      H      24.0200000000    23.6190000000    18.6260000000
  106      H      23.5260000000    21.8880000000    18.4550000000
  107      S      23.7910000000    22.2930000000    20.7330000000
  108      C      25.5020000000    22.8710000000    20.6610000000
  109      H      25.9280000000    22.5120000000    21.6020000000
  110      H      26.0680000000    22.4130000000    19.8460000000
  111      H      25.5210000000    23.9540000000    20.5200000000
  112      O      23.9400000000    20.8050000000    20.6790000000
  113      C      27.6740000000    20.7700000000    33.9910000000
  114      H      27.0400000000    20.6740000000    33.1060000000
  115      H      27.6770000000    21.8230000000    34.2820000000
  116      H      28.7010000000    20.4670000000    33.7700000000
  117      S      27.0170000000    19.7870000000    35.3580000000
  118      C      25.6270000000    20.8850000000    35.7190000000
  119      H      25.1290000000    20.4350000000    36.5810000000
  120      H      26.0190000000    21.8660000000    35.9990000000
  121      H      24.9300000000    20.8920000000    34.8770000000
  122      O      28.0100000000    20.1930000000    36.4010000000
  123      C      18.0400000000    21.3410000000    20.1640000000
  124      H      17.5230000000    22.1280000000    19.6080000000
  125      H      18.1400000000    20.4740000000    19.5060000000
  126      H      17.4290000000    21.0230000000    21.0120000000
  127      S      19.6020000000    22.0380000000    20.7480000000
  128      C      19.0830000000    23.1040000000    22.1120000000
  129      H      18.2470000000    23.6850000000    21.7160000000
  130      H      18.7680000000    22.4290000000    22.9120000000
  131      H      19.8930000000    23.7260000000    22.5020000000
  132      O      20.1450000000    22.9910000000    19.7290000000
  133      C      25.5480000000    13.3500000000    23.5990000000
  134      H      24.6160000000    12.7910000000    23.7200000000
  135      H      26.0690000000    12.8900000000    22.7560000000
  136      H      26.1450000000    13.4090000000    24.5120000000
  137      S      25.1100000000    15.0450000000    23.1500000000
  138      C      24.0610000000    15.5850000000    24.5190000000
  139      H      23.8860000000    16.6590000000    24.4130000000
  140      H      23.0790000000    15.1330000000    24.3630000000
  141      H      24.5140000000    15.4170000000    25.5000000000
  142      O      24.1640000000    14.9320000000    21.9950000000
  143      C      19.0790000000    27.5000000000    23.7260000000
  144      H      19.8360000000    28.2670000000    23.5390000000
  145      H      18.7880000000    26.9310000000    22.8390000000
  146      H      18.1730000000    27.8770000000    24.2080000000
  147      S      19.8390000000    26.2920000000    24.8330000000
  148      C      20.6460000000    27.4390000000    25.9720000000
  149      H      21.0880000000    26.7970000000    26.7390000000
  150      H      21.3520000000    28.0890000000    25.4470000000
  151      H      19.8750000000    28.1130000000    26.3530000000
  152      O      20.9790000000    25.6940000000    24.0680000000
  153      C      26.0270000000    31.0230000000    23.9760000000
  154      H      26.3930000000    31.0390000000    22.9460000000
  155      H      25.4170000000    31.9200000000    24.1120000000
  156      H      26.9000000000    30.9980000000    24.6340000000
  157      S      24.7800000000    29.7430000000    24.2420000000
  158      C      24.4610000000    30.1280000000    25.9790000000
  159      H      25.3630000000    30.0230000000    26.5880000000
  160      H      23.9800000000    31.1000000000    26.1080000000
  161      H      23.7340000000    29.3570000000    26.2460000000
  162      O      25.5560000000    28.4840000000    24.4760000000
  163      C      29.1710000000    28.8060000000    25.6600000000
  164      H      28.7130000000    29.7980000000    25.6640000000
  165      H      28.6360000000    28.2580000000    26.4400000000
  166      H      30.2510000000    28.9170000000    25.7840000000
  167      S      28.9060000000    28.0840000000    24.0250000000
  168      C      28.8120000000    26.3360000000    24.4710000000
  169      H      28.4350000000    25.7610000000    23.6220000000
  170      H      29.8260000000    25.9650000000    24.6370000000
  171      H      28.0960000000    26.1450000000    25.2750000000
  172      O      30.2240000000    28.0940000000    23.3160000000
  173      C      26.1830000000    16.2450000000    31.3980000000
  174      H      26.2310000000    17.2940000000    31.0930000000
  175      H      27.0950000000    15.8120000000    31.8170000000
  176      H      25.9290000000    15.6630000000    30.5080000000
  177      S      24.8330000000    16.0830000000    32.5870000000
  178      C      25.0640000000    14.2930000000    32.4860000000
  179      H      26.0470000000    14.0610000000    32.9030000000
  180      H      24.3040000000    13.7200000000    33.0230000000
  181      H      25.0090000000    13.9710000000    31.4430000000
  182      O      23.6570000000    16.3240000000    31.6920000000
  183      C      21.9630000000    19.9710000000    23.6690000000
  184      H      22.1660000000    19.1490000000    22.9780000000
  185      H      21.2780000000    20.7130000000    23.2490000000
  186      H      22.7870000000    20.6060000000    24.0040000000
  187      S      21.1530000000    19.2920000000    25.1340000000
  188      C      20.0490000000    18.1830000000    24.2300000000
  189      H      20.5270000000    17.2550000000    23.9030000000
  190      H      19.2750000000    17.9460000000    24.9640000000
  191      H      19.6120000000    18.6780000000    23.3590000000
  192      O      20.2370000000    20.4280000000    25.4690000000
  193      C      25.7400000000    28.3300000000    36.4770000000
  194      H      24.7640000000    28.0050000000    36.8470000000
  195      H      26.5000000000    27.5820000000    36.7160000000
  196      H      25.9990000000    29.3080000000    36.8920000000
  197      S      25.6310000000    28.5750000000    34.6900000000
  198      C      23.8920000000    29.0600000000    34.7550000000
  199      H      23.3150000000    28.2550000000    35.2170000000
  200      H      23.8090000000    30.0130000000    35.2830000000
  201      H      23.4790000000    29.3240000000    33.7780000000
  202      O      25.4730000000    27.2620000000    33.9870000000
  203      C      29.8060000000    18.2140000000    21.7040000000
  204      H      29.1630000000    18.9360000000    22.2130000000
  205      H      30.0400000000    17.2960000000    22.2490000000
  206      H      30.6140000000    18.7890000000    21.2440000000
  207      S      28.7740000000    17.7890000000    20.2820000000
  208      C      28.2750000000    19.4220000000    19.6920000000
  209      H      28.0470000000    20.0020000000    20.5910000000
  210      H      29.1440000000    19.8140000000    19.1590000000
  211      H      27.3780000000    19.2640000000    19.0870000000
  212      O      27.5320000000    17.2130000000    20.8870000000
  213      C      28.1460000000    24.9230000000    20.3020000000
  214      H      28.6300000000    25.3750000000    19.4320000000
  215      H      27.5030000000    24.1570000000    19.8620000000
  216      H      27.4620000000    25.5810000000    20.8440000000
  217      S      29.1040000000    23.9580000000    21.4920000000
  218      C      30.7790000000    24.4860000000    21.0650000000
  219      H      30.8900000000    25.5580000000    21.2520000000
  220      H      31.4820000000    23.9260000000    21.6870000000
  221      H      30.9740000000    24.2880000000    20.0080000000
  222      O      29.0800000000    22.5310000000    21.0410000000
  223      C      21.4160000000    24.2690000000    31.0020000000
  224      H      21.0820000000    23.9500000000    31.9930000000
  225      H      20.5250000000    24.1270000000    30.3860000000
  226      H      22.2900000000    23.7370000000    30.6170000000
  227      S      21.6940000000    26.0530000000    31.0740000000
  228      C      23.3500000000    26.0420000000    31.7990000000
  229      H      23.3080000000    25.3460000000    32.6400000000
  230      H      24.1060000000    25.7750000000    31.0560000000
  231      H      23.4650000000    26.9970000000    32.3180000000
  232      O      20.8200000000    26.5560000000    32.1810000000
  233      C      28.5270000000    15.9350000000    25.5110000000
  234      H      29.4640000000    16.0380000000    24.9580000000
  235      H      28.7900000000    15.5110000000    26.4840000000
  236      H      27.7840000000    15.3770000000    24.9350000000
  237      S      27.7600000000    17.5520000000    25.7570000000
  238      C      27.1980000000    17.7900000000    24.0560000000
  239      H      26.6980000000    18.7620000000    24.0890000000
  240      H      28.0290000000    17.6900000000    23.3540000000
  241      H      26.4490000000    17.0480000000    23.7680000000
  242      O      28.9020000000    18.5150000000    25.8630000000
  243      C      17.1540000000    17.7770000000    28.6850000000
  244      H      16.5870000000    17.8440000000    27.7530000000
  245      H      18.0420000000    17.1400000000    28.6460000000
  246      H      16.4990000000    17.4330000000    29.4900000000
  247      S      17.6340000000    19.4560000000    29.1470000000
  248      C      18.1380000000    19.8380000000    27.4540000000
  249      H      18.8350000000    19.0590000000    27.1320000000
  250      H      17.2340000000    20.0540000000    26.8790000000
  251      H      18.7760000000    20.7250000000    27.4680000000
  252      O      18.9600000000    19.1990000000    29.7920000000
  253      C      18.7900000000    23.4690000000    26.0330000000
  254      H      18.4540000000    22.4290000000    26.0610000000
  255      H      17.9730000000    24.1850000000    25.9100000000
  256      H      19.5250000000    23.5240000000    25.2260000000
  257      S      19.7090000000    23.9540000000    27.5110000000
  258      C      21.1910000000    22.9740000000    27.1830000000
  259      H      21.0480000000    21.8960000000    27.2890000000
  260      H      21.6730000000    23.3220000000    26.2650000000
  261      H      21.9000000000    23.1760000000    27.9900000000
  262      O      18.9900000000    23.1850000000    28.5750000000
  263      C      21.6880000000    26.4590000000    20.4190000000
  264      H      21.2610000000    25.9350000000    19.5600000000
  265      H      20.9640000000    26.4830000000    21.2380000000
  266      H      21.8270000000    27.4890000000    20.0800000000
  267      S      23.2530000000    25.7970000000    21.0320000000
  268      C      23.7000000000    26.9950000000    22.3080000000
  269      H      23.0480000000    26.7910000000    23.1610000000
  270      H      24.7650000000    26.8450000000    22.5050000000
  271      H      23.6450000000    27.9860000000    21.8520000000
  272      O      24.2430000000    26.0590000000    19.9390000000
  273      C      34.3200000000    27.8700000000    22.3480000000
  274      H      34.4750000000    28.6540000000    23.0940000000
  275      H      35.1980000000    27.2290000000    22.2390000000
  276      H      34.0450000000    28.3570000000    21.4080000000
  277      S      33.0050000000    26.6960000000    22.7430000000
  278      C      33.0200000000    26.7500000000    24.5490000000
  279      H      32.7110000000    27.7440000000    24.8830000000
  280      H      32.2790000000    25.9800000000    24.7760000000
  281      H      34.0690000000    26.5720000000    24.8000000000
  282      O      33.5230000000    25.3320000000    22.4070000000
  283      C      27.8580000000    25.9760000000    32.0080000000
  284      H      28.6500000000    26.2040000000    31.2900000000
  285      H      26.9090000000    26.4400000000    31.7270000000
  286      H      28.1870000000    26.1720000000    33.0320000000
  287      S      27.5750000000    24.1940000000    31.9160000000
  288      C      26.4310000000    24.0980000000    33.3120000000
  289      H      25.9450000000    23.1190000000    33.2940000000
  290      H      27.0280000000    24.3140000000    34.2020000000
  291      H      25.7260000000    24.9320000000    33.2790000000
  292      O      28.8250000000    23.6200000000    32.5070000000
  293      C      21.8820000000    18.0640000000    28.3970000000
  294      H      22.1190000000    19.1300000000    28.4380000000
  295      H      20.9740000000    17.8990000000    27.8120000000
  296      H      21.7470000000    17.7820000000    29.4440000000
  297      S      23.4030000000    17.2610000000    27.8460000000
  298      C      24.3520000000    18.0920000000    29.1400000000
  299      H      25.4070000000    17.8090000000    29.1410000000
  300      H      24.3460000000    19.1740000000    28.9850000000
  301      H      23.9050000000    17.9060000000    30.1200000000
  302      O      23.6660000000    17.9240000000    26.5300000000
  303      C      32.0100000000    16.6580000000    26.2210000000
  304      H      31.8480000000    15.6580000000    26.6300000000
  305      H      32.8870000000    17.0580000000    26.7370000000
  306      H      31.1010000000    17.2610000000    26.2980000000
  307      S      32.6070000000    16.3830000000    24.5380000000
  308      C      32.6750000000    18.1280000000    24.0730000000
  309      H      32.6580000000    18.1140000000    22.9800000000
  310      H      31.9910000000    18.8790000000    24.4760000000
  311      H      33.6040000000    18.4970000000    24.5150000000
  312      O      31.6490000000    16.0080000000    23.4500000000
 ----------------------------------------------------------------
 Nuclear Repulsion Energy =       54035.93343419 hartrees
 There are      644 alpha and      644 beta electrons
 Requested basis set is 6-31+G(d)
 There are 1028 shells and 2865 basis functions

 Total QAlloc Memory Limit  16000 MB
 Mega-Array Size      7821 MB
 MEM_STATIC part      8000 MB
 A cutoff of  1.0D-14 yielded 192789 shell pairs
 There are   1692233 function pairs
 Smallest overlap matrix eigenvalue = 3.36E-07
 Linear dependence detected in AO basis
 Tighter screening thresholds may be required for diffuse basis sets
 Use S2THRESH > 14 and THRESH = 14 in case of SCF convergence issues
 Number of orthogonalized atomic orbitals = 2862
 Maximum deviation from orthogonality = 9.015E-11

 Scale SEOQF with 1.000000e-03/1.000000e-03/1.000000e-03

 Standard Electronic Orientation quadrupole field applied
 Nucleus-field energy     =    -0.0000002562 hartrees
Attempting to make child job directory: /local/scratch/users/ymao/r7.00_frame_0058_almo_B3LYP_dp.in20210311133741//Frg1/
Attempting to make child job directory: /local/scratch/users/ymao/r7.00_frame_0058_almo_B3LYP_dp.in20210311133741//Frg2/
Creating input file /local/scratch/users/ymao/r7.00_frame_0058_almo_B3LYP_dp.in20210311133741/Frg1.input
using default PutDataFrgm: nothing
calling putenv with: QCSCRATCH=/local/scratch/users/ymao/r7.00_frame_0058_almo_B3LYP_dp.in20210311133741/ 
Spawning Job For Fragment 0
Done Job For Fragment 0
calling putenv with: QCSCRATCH=/local/scratch/users/ymao 
calling putenv with: QCTHREADS=8 
Creating input file /local/scratch/users/ymao/r7.00_frame_0058_almo_B3LYP_dp.in20210311133741/Frg2.input
using default PutDataFrgm: nothing
calling putenv with: QCSCRATCH=/local/scratch/users/ymao/r7.00_frame_0058_almo_B3LYP_dp.in20210311133741/ 
Spawning Job For Fragment 1
Done Job For Fragment 1
calling putenv with: QCSCRATCH=/local/scratch/users/ymao 
calling putenv with: QCTHREADS=8 
 Time for running child jobs:  CPU 1.02 s  wall 25267.25 s

 -----------------------------------------------------------------------
  General SCF calculation program by
  Eric Jon Sundstrom, Paul Horn, Yuezhi Mao, Dmitri Zuev, Alec White,
  David Stuck, Shaama M.S., Shane Yost, Joonho Lee, David Small,
  Daniel Levine, Susi Lehtola, Hugh Burton, Evgeny Epifanovsky,
  Bang C. Huynh
 -----------------------------------------------------------------------
Performing Restricted Closed Shell SCFMI
Doing General SCFMI
 Exchange:     0.2000 Hartree-Fock + 0.0800 Slater + 0.7200 B88
 Correlation:  0.1900 VWN1RPA + 0.8100 LYP
 Using Euler-Maclaurin-Lebedev (75,302) quadrature formula
performing fock build before subrot guess so that all methods have access
Printing subrot_rss_gen Method Specification:
Occupied Subspace Method is 0
Virtual Subspace Method is 0
Energy prior to optimization (guess energy) = -16447.081245864749
Begin Timing: Total SCF Calculation
begin iterations for algorithm: DIIS         
the SCF tolerance is set to 1.00e-08
    1  -16447.0812458647      3.68e-05     00000 
    2  -16447.0817568696      5.28e-05     00000 
    3  -16447.0894841628      1.61e-05     00000 
    4  -16447.0902101835      5.85e-06     00000 
    5  -16447.0903255951      3.01e-06     00000 
    6  -16447.0903507496      2.14e-06     00000 
    7  -16447.0903641717      1.37e-06     00000 
    8  -16447.0903701547      7.33e-07     00000 
    9  -16447.0903713438      5.24e-07     00000 
   10  -16447.0903718804      3.69e-07     00000 
   11  -16447.0903722443      2.12e-07     00000 
   12  -16447.0903723816      1.23e-07     00000 
   13  -16447.0903724277      7.64e-08     00000 
   14  -16447.0903724429      5.33e-08     00000 
   15  -16447.0903724498      3.48e-08     00000 
   16  -16447.0903724534      1.64e-08     00000 
   17  -16447.0903724544      9.79e-09     00000 Convergence criterion met
write pseudocanon occs and virts to disk
write pseudocanon orbital energies to disk
Timing for Total SCF: 62875.00s (wall), 498308.04s (cpu)
SCFMI Energy  -16447.0903724544
<S^2>            0.00000
 Total energy in the final basis set =   -16447.0903724544
    ==================================================
        The end of Object-Oriented SCFman: SCFMI      
    ==================================================
 
 --------------------------------------------------------------
 
                    Orbital Energies (a.u.)
 --------------------------------------------------------------
 
 Alpha MOs
 -- Occupied --
-89.0225 -89.0223 -89.0183 -89.0120 -89.0115 -89.0050 -89.0004 -88.9999
-88.9996 -88.9983 -88.9980 -88.9961 -88.9941 -88.9928 -88.9925 -88.9925
-88.9900 -88.9893 -88.9867 -88.9866 -88.9856 -88.9855 -88.9838 -88.9824
-88.9792 -88.9741 -88.9709 -88.9665 -88.9570 -19.1417 -19.1357 -19.1344
-19.1296 -19.1273 -19.1268 -19.1244 -19.1220 -19.1180 -19.1133 -19.1128
-19.1106 -19.1096 -19.1090 -19.1074 -19.1062 -19.1045 -19.1038 -19.1036
-19.1010 -19.1010 -19.1006 -19.0977 -19.0966 -19.0962 -19.0942 -19.0908
-19.0874 -19.0861 -19.0786 -14.3501 -10.2770 -10.2452 -10.2374 -10.2359
-10.2336 -10.2328 -10.2325 -10.2304 -10.2295 -10.2263 -10.2233 -10.2225
-10.2216 -10.2215 -10.2209 -10.2176 -10.2172 -10.2158 -10.2154 -10.2147
-10.2147 -10.2139 -10.2131 -10.2124 -10.2120 -10.2113 -10.2112 -10.2108
-10.2086 -10.2079 -10.2077 -10.2072 -10.2069 -10.2066 -10.2062 -10.2056
-10.2054 -10.2054 -10.2043 -10.2042 -10.2041 -10.2019 -10.1996 -10.1993
-10.1988 -10.1982 -10.1978 -10.1965 -10.1964 -10.1960 -10.1953 -10.1951
-10.1951 -10.1920 -10.1890 -10.1877 -10.1869 -10.1863 -10.1838 -10.1794
-10.1793 -10.1783 -10.1753 -10.1744 -10.1710  -8.0685  -8.0682  -8.0650
 -8.0584  -8.0583  -8.0512  -8.0459  -8.0454  -8.0454  -8.0443  -8.0431
 -8.0423  -8.0401  -8.0393  -8.0386  -8.0381  -8.0359  -8.0353  -8.0330
 -8.0327  -8.0321  -8.0318  -8.0301  -8.0280  -8.0262  -8.0206  -8.0180
 -8.0129  -8.0030  -6.0328  -6.0325  -6.0313  -6.0313  -6.0294  -6.0280
 -6.0264  -6.0259  -6.0229  -6.0226  -6.0221  -6.0215  -6.0212  -6.0158
 -6.0156  -6.0155  -6.0142  -6.0101  -6.0100  -6.0097  -6.0089  -6.0088
 -6.0086  -6.0086  -6.0085  -6.0076  -6.0074  -6.0067  -6.0061  -6.0052
 -6.0046  -6.0035  -6.0033  -6.0033  -6.0029  -6.0028  -6.0024  -6.0024
 -6.0023  -6.0018  -6.0017  -6.0013  -6.0007  -6.0003  -5.9998  -5.9995
 -5.9991  -5.9984  -5.9974  -5.9973  -5.9970  -5.9969  -5.9963  -5.9961
 -5.9960  -5.9957  -5.9957  -5.9957  -5.9952  -5.9949  -5.9946  -5.9933
 -5.9931  -5.9930  -5.9923  -5.9910  -5.9905  -5.9904  -5.9902  -5.9898
 -5.9895  -5.9889  -5.9875  -5.9855  -5.9847  -5.9835  -5.9831  -5.9824
 -5.9811  -5.9781  -5.9772  -5.9759  -5.9751  -5.9705  -5.9674  -5.9661
 -5.9601  -1.0501  -1.0497  -1.0462  -1.0425  -1.0373  -1.0356  -1.0354
 -1.0291  -1.0252  -1.0241  -1.0223  -1.0216  -1.0201  -1.0195  -1.0195
 -1.0180  -1.0168  -1.0157  -1.0155  -1.0123  -1.0107  -1.0105  -1.0101
 -1.0099  -1.0096  -1.0076  -1.0036  -0.9979  -0.9942  -0.9858  -0.9200
 -0.8248  -0.8246  -0.8237  -0.8175  -0.8170  -0.8145  -0.8066  -0.8043
 -0.8033  -0.7997  -0.7992  -0.7988  -0.7959  -0.7939  -0.7927  -0.7909
 -0.7892  -0.7887  -0.7878  -0.7870  -0.7857  -0.7853  -0.7847  -0.7845
 -0.7833  -0.7827  -0.7810  -0.7708  -0.7693  -0.7594  -0.7509  -0.7461
 -0.7458  -0.7430  -0.7408  -0.7393  -0.7365  -0.7360  -0.7301  -0.7299
 -0.7294  -0.7279  -0.7272  -0.7255  -0.7252  -0.7216  -0.7207  -0.7186
 -0.7186  -0.7173  -0.7156  -0.7152  -0.7144  -0.7131  -0.7110  -0.7109
 -0.7090  -0.7044  -0.6990  -0.6926  -0.6905  -0.6371  -0.6340  -0.6321
 -0.6302  -0.6271  -0.6239  -0.6200  -0.6173  -0.6172  -0.6143  -0.6141
 -0.6100  -0.6090  -0.6085  -0.6079  -0.6079  -0.6076  -0.6046  -0.6018
 -0.6017  -0.6002  -0.5996  -0.5993  -0.5970  -0.5956  -0.5945  -0.5931
 -0.5880  -0.5827  -0.5815  -0.5757  -0.5706  -0.5647  -0.5199  -0.5062
 -0.4981  -0.4967  -0.4949  -0.4929  -0.4925  -0.4916  -0.4906  -0.4897
 -0.4884  -0.4865  -0.4863  -0.4847  -0.4834  -0.4814  -0.4808  -0.4797
 -0.4795  -0.4795  -0.4793  -0.4781  -0.4775  -0.4766  -0.4760  -0.4757
 -0.4742  -0.4726  -0.4720  -0.4717  -0.4714  -0.4701  -0.4700  -0.4693
 -0.4691  -0.4681  -0.4673  -0.4671  -0.4670  -0.4667  -0.4658  -0.4656
 -0.4651  -0.4648  -0.4643  -0.4636  -0.4633  -0.4630  -0.4626  -0.4624
 -0.4619  -0.4614  -0.4613  -0.4602  -0.4601  -0.4598  -0.4589  -0.4587
 -0.4581  -0.4578  -0.4575  -0.4574  -0.4566  -0.4554  -0.4549  -0.4547
 -0.4538  -0.4534  -0.4527  -0.4523  -0.4517  -0.4508  -0.4506  -0.4496
 -0.4492  -0.4487  -0.4478  -0.4473  -0.4467  -0.4465  -0.4449  -0.4441
 -0.4438  -0.4429  -0.4422  -0.4414  -0.4411  -0.4406  -0.4399  -0.4396
 -0.4372  -0.4354  -0.4349  -0.4346  -0.4340  -0.4338  -0.4335  -0.4335
 -0.4325  -0.4313  -0.4310  -0.4302  -0.4298  -0.4291  -0.4286  -0.4280
 -0.4277  -0.4265  -0.4262  -0.4247  -0.4242  -0.4240  -0.4235  -0.4234
 -0.4225  -0.4210  -0.4206  -0.4197  -0.4192  -0.4161  -0.4154  -0.4147
 -0.4135  -0.4131  -0.4127  -0.4123  -0.4111  -0.4098  -0.4097  -0.4096
 -0.4083  -0.4080  -0.4074  -0.4065  -0.4059  -0.4053  -0.4045  -0.4042
 -0.4036  -0.4032  -0.4017  -0.4011  -0.4008  -0.4006  -0.3995  -0.3995
 -0.3992  -0.3990  -0.3983  -0.3980  -0.3979  -0.3978  -0.3966  -0.3957
 -0.3950  -0.3946  -0.3939  -0.3937  -0.3933  -0.3926  -0.3913  -0.3905
 -0.3904  -0.3895  -0.3890  -0.3873  -0.3870  -0.3868  -0.3860  -0.3859
 -0.3846  -0.3840  -0.3823  -0.3817  -0.3808  -0.3803  -0.3801  -0.3793
 -0.3786  -0.3772  -0.3765  -0.3746  -0.3723  -0.3708  -0.3704  -0.3697
 -0.3690  -0.3659  -0.3635  -0.3631  -0.3593  -0.3585  -0.3579  -0.3572
 -0.3565  -0.3562  -0.3548  -0.3536  -0.3529  -0.3515  -0.3511  -0.3505
 -0.3499  -0.3492  -0.3487  -0.3468  -0.3455  -0.3435  -0.3426  -0.3423
 -0.3418  -0.3396  -0.3363  -0.3347  -0.3252  -0.3215  -0.3120  -0.3088
 -0.3020  -0.3015  -0.2905  -0.2882  -0.2870  -0.2852  -0.2841  -0.2816
 -0.2758  -0.2753  -0.2738  -0.2731  -0.2714  -0.2695  -0.2685  -0.2681
 -0.2669  -0.2665  -0.2645  -0.2645  -0.2632  -0.2626  -0.2618  -0.2613
 -0.2604  -0.2597  -0.2556  -0.2555  -0.2552  -0.2541  -0.2528  -0.2507
 -0.2498  -0.2479  -0.2471  -0.2466  -0.2429  -0.2413  -0.2405  -0.2389
 -0.2381  -0.2352  -0.2343  -0.2331  -0.2323  -0.2316  -0.2312  -0.2306
 -0.2301  -0.2296  -0.2278  -0.2277  -0.2269  -0.2246  -0.2197  -0.2188
 -0.2185  -0.2131  -0.2086  -0.1973
 -- Virtual --
 -0.0333  -0.0277  -0.0252  -0.0237  -0.0216  -0.0203  -0.0166  -0.0142
 -0.0128  -0.0119  -0.0103  -0.0098  -0.0086  -0.0078  -0.0074  -0.0048
 -0.0036  -0.0030  -0.0026  -0.0020   0.0001   0.0009   0.0014   0.0020
  0.0026   0.0031   0.0035   0.0039   0.0044   0.0057   0.0067   0.0070
  0.0076   0.0083   0.0086   0.0093   0.0100   0.0108   0.0113   0.0116
  0.0121   0.0129   0.0136   0.0150   0.0151   0.0151   0.0168   0.0171
  0.0178   0.0179   0.0189   0.0194   0.0203   0.0208   0.0216   0.0223
  0.0238   0.0242   0.0245   0.0254   0.0260   0.0267   0.0275   0.0278
  0.0284   0.0290   0.0291   0.0300   0.0303   0.0308   0.0310   0.0316
  0.0321   0.0331   0.0335   0.0341   0.0345   0.0347   0.0355   0.0360
  0.0370   0.0375   0.0383   0.0385   0.0392   0.0396   0.0403   0.0408
  0.0414   0.0419   0.0423   0.0435   0.0443   0.0445   0.0448   0.0461
  0.0470   0.0476   0.0482   0.0487   0.0491   0.0504   0.0507   0.0517
  0.0523   0.0524   0.0530   0.0536   0.0539   0.0545   0.0552   0.0557
  0.0563   0.0571   0.0578   0.0589   0.0592   0.0599   0.0600   0.0605
  0.0610   0.0614   0.0618   0.0619   0.0624   0.0634   0.0640   0.0646
  0.0651   0.0654   0.0655   0.0659   0.0671   0.0678   0.0685   0.0695
  0.0698   0.0704   0.0709   0.0713   0.0715   0.0729   0.0733   0.0734
  0.0739   0.0751   0.0754   0.0760   0.0763   0.0769   0.0779   0.0785
  0.0792   0.0811   0.0815   0.0817   0.0819   0.0831   0.0839   0.0842
  0.0852   0.0857   0.0862   0.0868   0.0872   0.0875   0.0880   0.0884
  0.0885   0.0897   0.0900   0.0909   0.0919   0.0922   0.0927   0.0933
  0.0937   0.0950   0.0958   0.0959   0.0968   0.0977   0.0983   0.0988
  0.0990   0.1001   0.1003   0.1005   0.1011   0.1015   0.1032   0.1034
  0.1037   0.1039   0.1050   0.1055   0.1059   0.1060   0.1070   0.1082
  0.1083   0.1089   0.1101   0.1101   0.1110   0.1115   0.1120   0.1121
  0.1129   0.1138   0.1141   0.1147   0.1153   0.1159   0.1163   0.1172
  0.1177   0.1183   0.1189   0.1194   0.1198   0.1206   0.1211   0.1220
  0.1223   0.1226   0.1239   0.1243   0.1245   0.1256   0.1262   0.1264
  0.1269   0.1274   0.1278   0.1285   0.1295   0.1301   0.1310   0.1314
  0.1323   0.1329   0.1333   0.1344   0.1346   0.1346   0.1355   0.1364
  0.1369   0.1376   0.1379   0.1384   0.1390   0.1396   0.1397   0.1399
  0.1406   0.1414   0.1418   0.1421   0.1431   0.1434   0.1435   0.1441
  0.1453   0.1463   0.1467   0.1468   0.1473   0.1487   0.1494   0.1500
  0.1503   0.1511   0.1514   0.1523   0.1529   0.1534   0.1542   0.1549
  0.1557   0.1562   0.1566   0.1570   0.1576   0.1584   0.1589   0.1591
  0.1605   0.1609   0.1619   0.1619   0.1623   0.1631   0.1634   0.1642
  0.1644   0.1651   0.1660   0.1661   0.1666   0.1671   0.1673   0.1679
  0.1689   0.1695   0.1700   0.1704   0.1709   0.1717   0.1721   0.1729
  0.1732   0.1736   0.1738   0.1748   0.1754   0.1756   0.1764   0.1771
  0.1776   0.1778   0.1788   0.1794   0.1801   0.1804   0.1809   0.1816
  0.1817   0.1820   0.1832   0.1833   0.1846   0.1849   0.1857   0.1864
  0.1865   0.1872   0.1875   0.1885   0.1894   0.1898   0.1905   0.1908
  0.1910   0.1920   0.1926   0.1935   0.1940   0.1946   0.1950   0.1952
  0.1963   0.1969   0.1977   0.1985   0.1990   0.1993   0.1999   0.2003
  0.2006   0.2009   0.2014   0.2021   0.2024   0.2030   0.2032   0.2038
  0.2042   0.2050   0.2054   0.2062   0.2073   0.2075   0.2084   0.2093
  0.2101   0.2107   0.2111   0.2117   0.2120   0.2129   0.2132   0.2139
  0.2147   0.2152   0.2166   0.2168   0.2178   0.2183   0.2190   0.2193
  0.2196   0.2203   0.2208   0.2210   0.2215   0.2228   0.2231   0.2236
  0.2238   0.2243   0.2247   0.2263   0.2268   0.2269   0.2276   0.2281
  0.2290   0.2297   0.2300   0.2310   0.2311   0.2322   0.2323   0.2327
  0.2336   0.2345   0.2353   0.2358   0.2361   0.2364   0.2368   0.2381
  0.2391   0.2396   0.2399   0.2409   0.2416   0.2418   0.2422   0.2432
  0.2439   0.2445   0.2450   0.2457   0.2461   0.2470   0.2471   0.2478
  0.2480   0.2486   0.2490   0.2503   0.2508   0.2515   0.2521   0.2529
  0.2533   0.2540   0.2547   0.2550   0.2557   0.2564   0.2572   0.2576
  0.2579   0.2585   0.2595   0.2602   0.2606   0.2611   0.2617   0.2626
  0.2629   0.2635   0.2644   0.2647   0.2654   0.2661   0.2665   0.2675
  0.2680   0.2688   0.2692   0.2702   0.2709   0.2712   0.2722   0.2731
  0.2737   0.2738   0.2746   0.2748   0.2758   0.2763   0.2770   0.2773
  0.2777   0.2791   0.2800   0.2804   0.2813   0.2815   0.2827   0.2829
  0.2845   0.2856   0.2860   0.2866   0.2872   0.2876   0.2885   0.2896
  0.2899   0.2902   0.2912   0.2920   0.2925   0.2931   0.2943   0.2956
  0.2961   0.2973   0.2976   0.2987   0.2994   0.2998   0.3007   0.3017
  0.3027   0.3029   0.3033   0.3047   0.3051   0.3060   0.3071   0.3080
  0.3084   0.3089   0.3099   0.3103   0.3112   0.3122   0.3127   0.3133
  0.3141   0.3150   0.3165   0.3167   0.3169   0.3170   0.3176   0.3189
  0.3208   0.3211   0.3216   0.3223   0.3236   0.3245   0.3252   0.3259
  0.3267   0.3272   0.3281   0.3288   0.3298   0.3300   0.3309   0.3312
  0.3326   0.3330   0.3341   0.3355   0.3363   0.3370   0.3375   0.3386
  0.3397   0.3402   0.3409   0.3412   0.3427   0.3433   0.3442   0.3456
  0.3462   0.3462   0.3471   0.3482   0.3491   0.3495   0.3501   0.3513
  0.3517   0.3523   0.3535   0.3542   0.3554   0.3558   0.3565   0.3569
  0.3580   0.3591   0.3600   0.3608   0.3615   0.3618   0.3627   0.3630
  0.3634   0.3639   0.3651   0.3658   0.3673   0.3677   0.3684   0.3690
  0.3693   0.3706   0.3710   0.3720   0.3731   0.3737   0.3751   0.3756
  0.3762   0.3774   0.3777   0.3782   0.3795   0.3805   0.3808   0.3817
  0.3827   0.3839   0.3848   0.3851   0.3862   0.3871   0.3886   0.3890
  0.3896   0.3903   0.3913   0.3918   0.3922   0.3930   0.3940   0.3947
  0.3958   0.3962   0.3968   0.3974   0.3987   0.3999   0.4000   0.4006
  0.4022   0.4031   0.4036   0.4046   0.4057   0.4071   0.4076   0.4078
  0.4087   0.4092   0.4110   0.4119   0.4124   0.4138   0.4144   0.4147
  0.4157   0.4168   0.4180   0.4183   0.4197   0.4198   0.4211   0.4224
  0.4227   0.4230   0.4241   0.4244   0.4254   0.4262   0.4272   0.4281
  0.4290   0.4299   0.4301   0.4316   0.4319   0.4337   0.4348   0.4358
  0.4364   0.4377   0.4390   0.4405   0.4408   0.4414   0.4420   0.4438
  0.4440   0.4457   0.4468   0.4474   0.4494   0.4503   0.4510   0.4521
  0.4525   0.4549   0.4559   0.4570   0.4571   0.4585   0.4604   0.4610
  0.4616   0.4627   0.4642   0.4656   0.4665   0.4674   0.4699   0.4705
  0.4710   0.4719   0.4722   0.4742   0.4748   0.4765   0.4775   0.4780
  0.4797   0.4804   0.4814   0.4834   0.4849   0.4864   0.4879   0.4882
  0.4887   0.4890   0.4905   0.4927   0.4945   0.4949   0.4961   0.4969
  0.4990   0.5004   0.5009   0.5028   0.5047   0.5056   0.5062   0.5073
  0.5087   0.5101   0.5115   0.5132   0.5139   0.5149   0.5159   0.5187
  0.5203   0.5214   0.5231   0.5239   0.5266   0.5286   0.5293   0.5314
  0.5317   0.5334   0.5343   0.5360   0.5367   0.5404   0.5413   0.5417
  0.5443   0.5468   0.5486   0.5501   0.5513   0.5533   0.5550   0.5562
  0.5573   0.5587   0.5606   0.5628   0.5629   0.5648   0.5663   0.5677
  0.5688   0.5697   0.5707   0.5717   0.5741   0.5755   0.5765   0.5783
  0.5793   0.5802   0.5816   0.5828   0.5856   0.5864   0.5875   0.5882
  0.5901   0.5908   0.5929   0.5939   0.5947   0.5969   0.5988   0.6006
  0.6024   0.6029   0.6046   0.6069   0.6084   0.6091   0.6110   0.6122
  0.6130   0.6149   0.6152   0.6160   0.6178   0.6196   0.6208   0.6214
  0.6227   0.6249   0.6259   0.6265   0.6280   0.6285   0.6302   0.6309
  0.6316   0.6335   0.6342   0.6356   0.6362   0.6369   0.6384   0.6398
  0.6399   0.6407   0.6428   0.6439   0.6448   0.6450   0.6473   0.6488
  0.6496   0.6515   0.6520   0.6526   0.6536   0.6544   0.6561   0.6577
  0.6590   0.6599   0.6604   0.6611   0.6625   0.6635   0.6646   0.6650
  0.6664   0.6668   0.6692   0.6698   0.6707   0.6711   0.6724   0.6733
  0.6740   0.6752   0.6761   0.6772   0.6776   0.6792   0.6795   0.6812
  0.6825   0.6827   0.6851   0.6858   0.6864   0.6877   0.6879   0.6886
  0.6911   0.6917   0.6919   0.6935   0.6952   0.6961   0.6971   0.6981
  0.6995   0.6999   0.7018   0.7020   0.7037   0.7044   0.7067   0.7071
  0.7081   0.7098   0.7104   0.7119   0.7123   0.7131   0.7142   0.7157
  0.7167   0.7179   0.7192   0.7203   0.7210   0.7234   0.7237   0.7248
  0.7251   0.7268   0.7270   0.7285   0.7294   0.7307   0.7315   0.7317
  0.7330   0.7336   0.7352   0.7378   0.7382   0.7389   0.7395   0.7410
  0.7423   0.7437   0.7447   0.7455   0.7458   0.7489   0.7504   0.7520
  0.7523   0.7544   0.7549   0.7563   0.7585   0.7613   0.7617   0.7623
  0.7633   0.7636   0.7649   0.7668   0.7672   0.7695   0.7710   0.7716
  0.7720   0.7737   0.7753   0.7770   0.7775   0.7797   0.7816   0.7835
  0.7840   0.7849   0.7855   0.7867   0.7887   0.7907   0.7937   0.7950
  0.7962   0.7978   0.7986   0.8004   0.8007   0.8028   0.8042   0.8050
  0.8059   0.8063   0.8099   0.8110   0.8136   0.8136   0.8153   0.8164
  0.8173   0.8185   0.8208   0.8214   0.8225   0.8238   0.8257   0.8266
  0.8274   0.8289   0.8300   0.8317   0.8324   0.8332   0.8340   0.8363
  0.8364   0.8380   0.8389   0.8401   0.8414   0.8421   0.8425   0.8441
  0.8455   0.8464   0.8475   0.8486   0.8507   0.8514   0.8528   0.8544
  0.8555   0.8560   0.8569   0.8594   0.8618   0.8629   0.8636   0.8645
  0.8662   0.8670   0.8679   0.8686   0.8699   0.8701   0.8715   0.8729
  0.8739   0.8752   0.8764   0.8781   0.8792   0.8808   0.8817   0.8828
  0.8832   0.8843   0.8861   0.8867   0.8874   0.8891   0.8902   0.8919
  0.8921   0.8934   0.8944   0.8964   0.8965   0.8982   0.8993   0.8997
  0.9016   0.9025   0.9038   0.9056   0.9063   0.9072   0.9084   0.9097
  0.9105   0.9116   0.9133   0.9153   0.9157   0.9164   0.9177   0.9195
  0.9202   0.9218   0.9230   0.9245   0.9265   0.9274   0.9279   0.9287
  0.9304   0.9310   0.9326   0.9335   0.9340   0.9366   0.9378   0.9385
  0.9395   0.9410   0.9425   0.9430   0.9448   0.9468   0.9470   0.9476
  0.9496   0.9503   0.9513   0.9532   0.9549   0.9556   0.9562   0.9570
  0.9582   0.9593   0.9604   0.9615   0.9620   0.9633   0.9635   0.9656
  0.9659   0.9673   0.9675   0.9689   0.9693   0.9705   0.9713   0.9732
  0.9736   0.9741   0.9752   0.9767   0.9769   0.9780   0.9791   0.9803
  0.9807   0.9817   0.9820   0.9843   0.9853   0.9866   0.9873   0.9875
  0.9883   0.9906   0.9909   0.9921   0.9927   0.9933   0.9937   0.9941
  0.9951   0.9966   0.9976   0.9982   0.9983   0.9996   1.0005   1.0010
  1.0026   1.0037   1.0047   1.0061   1.0067   1.0075   1.0083   1.0084
  1.0096   1.0102   1.0123   1.0129   1.0139   1.0147   1.0159   1.0170
  1.0174   1.0194   1.0202   1.0209   1.0228   1.0231   1.0238   1.0254
  1.0261   1.0268   1.0285   1.0293   1.0309   1.0322   1.0339   1.0350
  1.0354   1.0366   1.0372   1.0384   1.0404   1.0412   1.0416   1.0428
  1.0434   1.0436   1.0456   1.0465   1.0474   1.0484   1.0505   1.0511
  1.0521   1.0526   1.0539   1.0550   1.0558   1.0573   1.0594   1.0609
  1.0627   1.0633   1.0655   1.0667   1.0676   1.0681   1.0696   1.0709
  1.0720   1.0739   1.0742   1.0756   1.0768   1.0792   1.0802   1.0811
  1.0822   1.0835   1.0840   1.0862   1.0873   1.0880   1.0887   1.0897
  1.0910   1.0926   1.0937   1.0946   1.0957   1.0962   1.0981   1.0984
  1.1001   1.1020   1.1038   1.1042   1.1058   1.1075   1.1084   1.1110
  1.1116   1.1131   1.1154   1.1155   1.1164   1.1174   1.1188   1.1211
  1.1213   1.1234   1.1247   1.1259   1.1275   1.1287   1.1295   1.1319
  1.1327   1.1337   1.1347   1.1368   1.1374   1.1396   1.1402   1.1416
  1.1427   1.1436   1.1447   1.1452   1.1466   1.1475   1.1483   1.1491
  1.1503   1.1525   1.1536   1.1539   1.1562   1.1569   1.1575   1.1592
  1.1599   1.1601   1.1615   1.1626   1.1644   1.1661   1.1665   1.1683
  1.1699   1.1717   1.1739   1.1741   1.1754   1.1755   1.1776   1.1790
  1.1809   1.1817   1.1823   1.1836   1.1855   1.1859   1.1878   1.1888
  1.1899   1.1928   1.1948   1.1954   1.1971   1.1988   1.1993   1.2010
  1.2025   1.2029   1.2051   1.2062   1.2073   1.2105   1.2129   1.2144
  1.2158   1.2179   1.2188   1.2200   1.2209   1.2230   1.2243   1.2266
  1.2282   1.2290   1.2306   1.2314   1.2336   1.2346   1.2368   1.2385
  1.2396   1.2406   1.2427   1.2435   1.2477   1.2482   1.2508   1.2526
  1.2541   1.2561   1.2572   1.2602   1.2609   1.2622   1.2643   1.2665
  1.2686   1.2703   1.2725   1.2733   1.2759   1.2783   1.2809   1.2837
  1.2847   1.2867   1.2881   1.2897   1.2904   1.2921   1.2954   1.2962
  1.2986   1.3014   1.3039   1.3060   1.3082   1.3102   1.3113   1.3132
  1.3150   1.3163   1.3209   1.3216   1.3237   1.3278   1.3289   1.3300
  1.3307   1.3331   1.3344   1.3362   1.3396   1.3408   1.3427   1.3442
  1.3450   1.3478   1.3496   1.3510   1.3532   1.3549   1.3570   1.3587
  1.3614   1.3625   1.3634   1.3653   1.3681   1.3685   1.3715   1.3724
  1.3743   1.3780   1.3795   1.3806   1.3820   1.3828   1.3850   1.3855
  1.3880   1.3897   1.3922   1.3944   1.3954   1.3963   1.3970   1.3986
  1.3999   1.4023   1.4030   1.4049   1.4059   1.4062   1.4085   1.4093
  1.4104   1.4113   1.4125   1.4137   1.4144   1.4180   1.4183   1.4194
  1.4207   1.4209   1.4230   1.4246   1.4252   1.4273   1.4285   1.4293
  1.4324   1.4331   1.4350   1.4360   1.4374   1.4384   1.4392   1.4396
  1.4411   1.4436   1.4443   1.4464   1.4476   1.4500   1.4517   1.4531
  1.4541   1.4553   1.4574   1.4603   1.4620   1.4633   1.4649   1.4660
  1.4677   1.4697   1.4709   1.4729   1.4750   1.4761   1.4776   1.4780
  1.4811   1.4822   1.4835   1.4840   1.4867   1.4883   1.4913   1.4918
  1.4943   1.4954   1.4955   1.4974   1.5000   1.5021   1.5030   1.5044
  1.5068   1.5084   1.5106   1.5128   1.5136   1.5177   1.5182   1.5210
  1.5229   1.5243   1.5261   1.5274   1.5301   1.5316   1.5325   1.5348
  1.5355   1.5406   1.5433   1.5451   1.5473   1.5476   1.5502   1.5548
  1.5564   1.5591   1.5647   1.5672   1.5707   1.5721   1.5754   1.5772
  1.5786   1.5825   1.5832   1.5859   1.5893   1.5908   1.5937   1.5955
  1.5988   1.6012   1.6024   1.6107   1.6117   1.6120   1.6153   1.6171
  1.6217   1.6247   1.6303   1.6336   1.6369   1.6400   1.6462   1.6487
  1.6511   1.6542   1.6559   1.6572   1.6579   1.6604   1.6649   1.6681
  1.6689   1.6706   1.6712   1.6747   1.6754   1.6768   1.6780   1.6788
  1.6791   1.6804   1.6820   1.6844   1.6859   1.6881   1.6886   1.6895
  1.6903   1.6911   1.6927   1.6951   1.6962   1.6998   1.7000   1.7018
  1.7024   1.7028   1.7042   1.7059   1.7073   1.7075   1.7093   1.7101
  1.7116   1.7126   1.7128   1.7147   1.7156   1.7162   1.7184   1.7193
  1.7204   1.7210   1.7225   1.7238   1.7252   1.7263   1.7267   1.7278
  1.7282   1.7298   1.7305   1.7310   1.7328   1.7341   1.7359   1.7383
  1.7390   1.7410   1.7424   1.7447   1.7452   1.7464   1.7471   1.7495
  1.7500   1.7516   1.7529   1.7533   1.7560   1.7570   1.7589   1.7596
  1.7604   1.7628   1.7634   1.7648   1.7658   1.7661   1.7672   1.7685
  1.7707   1.7727   1.7736   1.7744   1.7753   1.7778   1.7792   1.7804
  1.7816   1.7824   1.7836   1.7866   1.7874   1.7876   1.7901   1.7914
  1.7952   1.7959   1.7969   1.7984   1.7985   1.8006   1.8026   1.8040
  1.8062   1.8076   1.8089   1.8106   1.8121   1.8171   1.8173   1.8203
  1.8245   1.8264   1.8291   1.8301   1.8372   1.8416   1.8431   1.8458
  1.8481   1.8499   1.8526   1.8549   1.8558   1.8580   1.8607   1.8615
  1.8631   1.8647   1.8666   1.8699   1.8726   1.8747   1.8770   1.8805
  1.8820   1.8838   1.8847   1.8860   1.8873   1.8885   1.8899   1.8907
  1.8916   1.8938   1.8944   1.8960   1.8973   1.8986   1.8995   1.8997
  1.9013   1.9022   1.9032   1.9043   1.9045   1.9078   1.9088   1.9091
  1.9104   1.9119   1.9129   1.9136   1.9149   1.9172   1.9181   1.9193
  1.9205   1.9220   1.9225   1.9235   1.9261   1.9276   1.9289   1.9296
  1.9302   1.9321   1.9327   1.9352   1.9360   1.9369   1.9383   1.9389
  1.9403   1.9410   1.9419   1.9430   1.9441   1.9470   1.9482   1.9503
  1.9525   1.9544   1.9561   1.9569   1.9607   1.9616   1.9647   1.9702
  1.9736   1.9750   1.9805   1.9830   1.9861   1.9916   1.9932   1.9969
  2.0019   2.0067   2.0114   2.0199   2.0258   2.0310   2.0439   2.0453
  2.0465   2.0505   2.0536   2.0561   2.0575   2.0601   2.0620   2.0672
  2.0694   2.0706   2.0722   2.0743   2.0754   2.0759   2.0772   2.0779
  2.0783   2.0787   2.0794   2.0808   2.0818   2.0827   2.0836   2.0853
  2.0859   2.0872   2.0887   2.0899   2.0910   2.0930   2.0934   2.0942
  2.0961   2.0968   2.0980   2.0986   2.1008   2.1012   2.1030   2.1047
  2.1058   2.1082   2.1086   2.1105   2.1110   2.1136   2.1148   2.1166
  2.1180   2.1204   2.1227   2.1268   2.1275   2.1293   2.1323   2.1343
  2.1367   2.1378   2.1415   2.1441   2.1451   2.1488   2.1523   2.1558
  2.1593   2.1635   2.1641   2.1663   2.1736   2.1746   2.1780   2.1801
  2.1834   2.1880   2.1911   2.1947   2.1976   2.1982   2.2038   2.2081
  2.2098   2.2107   2.2148   2.2159   2.2197   2.2208   2.2216   2.2225
  2.2248   2.2254   2.2262   2.2271   2.2286   2.2301   2.2305   2.2329
  2.2341   2.2348   2.2361   2.2363   2.2393   2.2396   2.2418   2.2439
  2.2446   2.2453   2.2458   2.2464   2.2479   2.2482   2.2488   2.2500
  2.2504   2.2512   2.2518   2.2529   2.2538   2.2546   2.2572   2.2584
  2.2587   2.2596   2.2606   2.2613   2.2624   2.2632   2.2643   2.2645
  2.2653   2.2662   2.2665   2.2677   2.2682   2.2700   2.2714   2.2721
  2.2734   2.2745   2.2753   2.2761   2.2766   2.2774   2.2777   2.2796
  2.2803   2.2810   2.2823   2.2837   2.2842   2.2855   2.2861   2.2871
  2.2879   2.2898   2.2902   2.2911   2.2927   2.2932   2.2938   2.2951
  2.2955   2.2964   2.2972   2.2988   2.3005   2.3010   2.3013   2.3020
  2.3031   2.3037   2.3043   2.3060   2.3067   2.3079   2.3088   2.3092
  2.3108   2.3121   2.3137   2.3142   2.3147   2.3150   2.3158   2.3170
  2.3174   2.3186   2.3200   2.3208   2.3218   2.3223   2.3235   2.3245
  2.3253   2.3265   2.3272   2.3282   2.3294   2.3297   2.3312   2.3320
  2.3328   2.3335   2.3356   2.3364   2.3392   2.3421   2.3438   2.3448
  2.3456   2.3461   2.3475   2.3482   2.3489   2.3513   2.3527   2.3539
  2.3561   2.3566   2.3589   2.3608   2.3611   2.3651   2.3670   2.3676
  2.3691   2.3721   2.3747   2.3785   2.3811   2.3821   2.3859   2.3893
  2.3898   2.3929   2.3949   2.3981   2.3983   2.4012   2.4040   2.4095
  2.4124   2.4144   2.4149   2.4168   2.4218   2.4245   2.4305   2.4596
  2.5020   2.5043   2.5255   2.5527   2.6184   2.6879   2.7345   2.7831
  2.7896   2.8115   2.8176   2.8221   2.8295   2.8345   2.8381   2.8439
  2.8496   2.8500   2.8507   2.8552   2.8564   2.8593   2.8627   2.8633
  2.8649   2.8679   2.8696   2.8705   2.8723   2.8735   2.8769   2.8783
  2.8804   2.8832   2.8840   2.8874   2.8889   2.8924   2.8933   2.8974
  2.9044   2.9095   2.9779   3.1110   3.2578   3.9515   3.9593   3.9609
  3.9687   3.9712   3.9775   3.9782   3.9791   3.9814   3.9883   3.9910
  3.9934   3.9972   3.9990   4.0002   4.0059   4.0078   4.0100   4.0119
  4.0158   4.0188   4.0218   4.0254   4.0282   4.0312   4.0369   4.0404
  4.0420   4.0516   4.2226   4.2336   4.2394   4.2414   4.2437   4.2467
  4.2505   4.2515   4.2527   4.2536   4.2559   4.2575   4.2689   4.2705
  4.2772   4.2775   4.2788   4.2816   4.2829   4.2832   4.2852   4.2860
  4.2885   4.2898   4.2911   4.2943   4.2981   4.2998   4.3009   4.3027
  4.3056   4.3060   4.3075   4.3093   4.3121   4.3142   4.3159   4.3179
  4.3187   4.3219   4.3286   4.3295   4.3330   4.3344   4.3380   4.3388
  4.3442   4.3443   4.3478   4.3505   4.3554   4.3566   4.3586   4.3611
  4.3651   4.3684   4.3703   4.3728   4.3744   4.3797   4.3816   4.3866
  4.3892   4.3909   4.3960   4.3981   4.4034   4.4054   4.4094   4.4161
  4.4187   4.4255   4.4279   4.4373   4.4445   4.4478   4.4513   4.4843
  4.5047   4.5112   4.5121   4.5216   4.5284   4.5326   4.5415   4.5548
  4.5658   4.5804   4.5928   4.6124   4.6412   4.6929   4.7091   4.7554
  4.7746   4.9595
 --------------------------------------------------------------
 
          Ground-State Mulliken Net Atomic Charges

     Atom                 Charge (a.u.)
  ----------------------------------------
      1 C                    -0.265886
      2 C                    -0.286772
      3 C                    -0.122189
      4 C                    -0.674257
      5 C                    -0.373310
      6 C                    -0.593325
      7 H                     0.228166
      8 H                     0.231300
      9 H                     0.208548
     10 H                     0.219983
     11 H                     0.177435
     12 H                     0.215117
     13 H                     0.190324
     14 H                     0.207315
     15 H                     0.196216
     16 H                     0.221220
     17 H                     0.220037
     18 N                    -0.436564
     19 H                     0.448840
     20 C                     0.299561
     21 H                     0.203956
     22 O                    -0.515717
     23 C                    -0.742636
     24 H                     0.274142
     25 H                     0.206538
     26 H                     0.255273
     27 S                     0.761104
     28 C                    -0.955484
     29 H                     0.246568
     30 H                     0.291147
     31 H                     0.256051
     32 O                    -0.664522
     33 C                    -0.891991
     34 H                     0.243227
     35 H                     0.257941
     36 H                     0.217335
     37 S                     0.826108
     38 C                    -0.771731
     39 H                     0.281370
     40 H                     0.263500
     41 H                     0.244101
     42 O                    -0.685930
     43 C                    -0.982641
     44 H                     0.260727
     45 H                     0.263868
     46 H                     0.313008
     47 S                     1.047696
     48 C                    -0.866290
     49 H                     0.238052
     50 H                     0.239940
     51 H                     0.258950
     52 O                    -0.739311
     53 C                    -1.138150
     54 H                     0.271004
     55 H                     0.235701
     56 H                     0.252219
     57 S                     1.193022
     58 C                    -0.890782
     59 H                     0.251870
     60 H                     0.254538
     61 H                     0.251470
     62 O                    -0.698361
     63 C                    -0.843740
     64 H                     0.250112
     65 H                     0.231833
     66 H                     0.259126
     67 S                     1.035917
     68 C                    -0.879844
     69 H                     0.265560
     70 H                     0.252620
     71 H                     0.222139
     72 O                    -0.726566
     73 C                    -0.982653
     74 H                     0.256929
     75 H                     0.256885
     76 H                     0.250032
     77 S                     1.128631
     78 C                    -1.097659
     79 H                     0.294740
     80 H                     0.282709
     81 H                     0.257967
     82 O                    -0.667855
     83 C                    -0.876624
     84 H                     0.234994
     85 H                     0.287454
     86 H                     0.265390
     87 S                     0.782550
     88 C                    -0.795336
     89 H                     0.295526
     90 H                     0.272058
     91 H                     0.274666
     92 O                    -0.668979
     93 C                    -0.818902
     94 H                     0.271871
     95 H                     0.233763
     96 H                     0.253886
     97 S                     0.594325
     98 C                    -0.677593
     99 H                     0.235343
    100 H                     0.296733
    101 H                     0.284160
    102 O                    -0.702707
    103 C                    -0.949863
    104 H                     0.301726
    105 H                     0.279819
    106 H                     0.249328
    107 S                     0.763519
    108 C                    -0.758382
    109 H                     0.247267
    110 H                     0.274095
    111 H                     0.263412
    112 O                    -0.712305
    113 C                    -0.863495
    114 H                     0.269645
    115 H                     0.277439
    116 H                     0.242662
    117 S                     0.922556
    118 C                    -0.910810
    119 H                     0.251332
    120 H                     0.259217
    121 H                     0.245867
    122 O                    -0.744624
    123 C                    -0.961755
    124 H                     0.254809
    125 H                     0.278492
    126 H                     0.246074
    127 S                     0.899457
    128 C                    -0.894473
    129 H                     0.234898
    130 H                     0.254582
    131 H                     0.306743
    132 O                    -0.667543
    133 C                    -0.816207
    134 H                     0.252603
    135 H                     0.267420
    136 H                     0.208747
    137 S                     0.856885
    138 C                    -0.895771
    139 H                     0.303677
    140 H                     0.255286
    141 H                     0.231810
    142 O                    -0.669541
    143 C                    -0.785541
    144 H                     0.249457
    145 H                     0.256650
    146 H                     0.252550
    147 S                     0.407010
    148 C                    -0.570963
    149 H                     0.294798
    150 H                     0.248292
    151 H                     0.246546
    152 O                    -0.673369
    153 C                    -0.800174
    154 H                     0.264602
    155 H                     0.226161
    156 H                     0.251637
    157 S                     0.762759
    158 C                    -0.749920
    159 H                     0.261234
    160 H                     0.230784
    161 H                     0.276326
    162 O                    -0.657961
    163 C                    -0.884131
    164 H                     0.226842
    165 H                     0.299329
    166 H                     0.246107
    167 S                     0.863997
    168 C                    -0.915925
    169 H                     0.259414
    170 H                     0.268113
    171 H                     0.258455
    172 O                    -0.688424
    173 C                    -0.896626
    174 H                     0.289916
    175 H                     0.234390
    176 H                     0.259131
    177 S                     1.078602
    178 C                    -0.870265
    179 H                     0.230097
    180 H                     0.252432
    181 H                     0.251453
    182 O                    -0.761185
    183 C                    -0.689632
    184 H                     0.243664
    185 H                     0.279213
    186 H                     0.263724
    187 S                     0.641980
    188 C                    -0.884909
    189 H                     0.261712
    190 H                     0.239131
    191 H                     0.278423
    192 O                    -0.693440
    193 C                    -0.817811
    194 H                     0.286407
    195 H                     0.252834
    196 H                     0.236405
    197 S                     0.911775
    198 C                    -0.852661
    199 H                     0.284759
    200 H                     0.223607
    201 H                     0.259018
    202 O                    -0.739650
    203 C                    -0.767637
    204 H                     0.241858
    205 H                     0.312043
    206 H                     0.235399
    207 S                     0.646354
    208 C                    -0.716048
    209 H                     0.264653
    210 H                     0.240593
    211 H                     0.259283
    212 O                    -0.719009
    213 C                    -1.038893
    214 H                     0.253626
    215 H                     0.263132
    216 H                     0.259780
    217 S                     1.205903
    218 C                    -0.941048
    219 H                     0.258223
    220 H                     0.291100
    221 H                     0.246518
    222 O                    -0.716475
    223 C                    -0.977390
    224 H                     0.262282
    225 H                     0.289478
    226 H                     0.278317
    227 S                     0.722577
    228 C                    -0.795889
    229 H                     0.250697
    230 H                     0.260525
    231 H                     0.277984
    232 O                    -0.678778
    233 C                    -0.794120
    234 H                     0.300673
    235 H                     0.243195
    236 H                     0.232980
    237 S                     0.530531
    238 C                    -0.707279
    239 H                     0.259026
    240 H                     0.279111
    241 H                     0.243603
    242 O                    -0.657374
    243 C                    -0.858790
    244 H                     0.228808
    245 H                     0.264180
    246 H                     0.236267
    247 S                     1.036119
    248 C                    -0.819079
    249 H                     0.232420
    250 H                     0.206933
    251 H                     0.307446
    252 O                    -0.776845
    253 C                    -0.954775
    254 H                     0.287064
    255 H                     0.245468
    256 H                     0.253134
    257 S                     1.088212
    258 C                    -1.037116
    259 H                     0.310139
    260 H                     0.244948
    261 H                     0.279881
    262 O                    -0.645976
    263 C                    -1.050796
    264 H                     0.282343
    265 H                     0.245792
    266 H                     0.245908
    267 S                     1.161178
    268 C                    -0.930399
    269 H                     0.283685
    270 H                     0.289631
    271 H                     0.238502
    272 O                    -0.715441
    273 C                    -0.949665
    274 H                     0.232979
    275 H                     0.266974
    276 H                     0.245885
    277 S                     0.973190
    278 C                    -0.809171
    279 H                     0.243717
    280 H                     0.268428
    281 H                     0.236730
    282 O                    -0.704940
    283 C                    -1.009409
    284 H                     0.266950
    285 H                     0.264897
    286 H                     0.251616
    287 S                     1.509590
    288 C                    -1.299197
    289 H                     0.285827
    290 H                     0.265537
    291 H                     0.301527
    292 O                    -0.694746
    293 C                    -0.960695
    294 H                     0.276104
    295 H                     0.245835
    296 H                     0.273743
[...]
    1  -0.0089479   0.0282978  -0.0125773   0.0949798   0.0055914   0.0135577
    2  -0.0140404  -0.0109131  -0.0067370   0.0003384   0.0054987   0.0340101
    3  -0.0278033   0.0111708   0.0290560  -0.0556169  -0.0082838  -0.0041666
          175         176         177         178         179         180
    1   0.0333530  -0.0124833   0.0115103  -0.0005698   0.0284382  -0.0231983
    2  -0.0001158  -0.0134287   0.0208107  -0.0092599  -0.0142928  -0.0123775
    3   0.0094556  -0.0250327   0.0447395  -0.0013705   0.0127535   0.0185570
          181         182         183         184         185         186
    1  -0.0035721  -0.0862548   0.0020649   0.0197671  -0.0262144   0.0366778
    2  -0.0060231   0.0173580   0.0034411  -0.0117876   0.0121539   0.0068189
    3  -0.0302803  -0.0648578  -0.0074333  -0.0258828  -0.0152247   0.0050233
          187         188         189         190         191         192
    1   0.0378064  -0.0047018   0.0141387  -0.0273326  -0.0132805  -0.0641986
    2  -0.0275825  -0.0039667  -0.0272980  -0.0098474   0.0140173   0.0818956
    3   0.0348708  -0.0052386  -0.0107498   0.0144357  -0.0241052   0.0251495
          193         194         195         196         197         198
    1  -0.0036706  -0.0255616   0.0227200   0.0091660   0.0330089  -0.0105334
    2  -0.0034679  -0.0143534  -0.0203990   0.0261219   0.0421802   0.0019782
    3   0.0089092   0.0175314   0.0081901   0.0197368  -0.0167159   0.0019412
          199         200         201         202         203         204
    1  -0.0187644  -0.0088432  -0.0081752  -0.0121687  -0.0000003  -0.0109128
    2  -0.0194336   0.0263116  -0.0028055  -0.0931359   0.0024929   0.0192433
    3   0.0141523   0.0265767  -0.0325855  -0.0515468   0.0050554   0.0283401
          205         206         207         208         209         210
    1   0.0164925   0.0354360   0.0301826  -0.0022668  -0.0100819   0.0181262
    2  -0.0222026   0.0126960  -0.0289608   0.0071640   0.0285440   0.0238858
    3   0.0168137  -0.0005019  -0.0405319   0.0025737   0.0177235  -0.0194646
          211         212         213         214         215         216
    1  -0.0241656  -0.0924503  -0.0074328   0.0217137  -0.0175155  -0.0165807
    2  -0.0013272  -0.0448104   0.0008254   0.0182867  -0.0209277   0.0263265
    3  -0.0173711   0.0419355  -0.0073420  -0.0179233  -0.0141040   0.0092700
          217         218         219         220         221         222
    1  -0.0102804   0.0109914   0.0079626   0.0245892   0.0063716  -0.0013682
    2   0.0171364   0.0026886   0.0308764  -0.0103575  -0.0103382  -0.1050900
    3   0.0546911  -0.0010488   0.0077118   0.0161984  -0.0301181  -0.0312207
          223         224         225         226         227         228
    1  -0.0091290  -0.0048425  -0.0284085   0.0173966  -0.0014654   0.0029810
    2  -0.0078366  -0.0106548  -0.0109244  -0.0212669   0.0258002   0.0040123
    3   0.0024680   0.0317441  -0.0214709  -0.0039439  -0.0558682   0.0104168
          229         230         231         232         233         234
    1   0.0038643   0.0203046   0.0111758  -0.0675012   0.0056768   0.0223651
    2  -0.0250924   0.0029900   0.0328179   0.0402024  -0.0037568   0.0040503
    3   0.0221538  -0.0115118   0.0079719   0.0789524  -0.0042117  -0.0250315
          235         236         237         238         239         240
    1   0.0009916  -0.0123023  -0.0464429  -0.0036509  -0.0119159   0.0161880
    2  -0.0176154  -0.0279064  -0.0029914  -0.0008162   0.0317371   0.0023830
    3   0.0267858  -0.0149916   0.0347362  -0.0118908  -0.0097496  -0.0192802
          241         242         243         244         245         246
    1  -0.0192307   0.0786738  -0.0011470  -0.0162297   0.0270388  -0.0192039
    2  -0.0174765   0.0728247  -0.0052837  -0.0092385  -0.0133545  -0.0185040
    3  -0.0134113   0.0090047   0.0004488  -0.0284140  -0.0024121   0.0205824
          247         248         249         250         251         252
    1  -0.0378711   0.0079955   0.0115850  -0.0206988   0.0138096   0.0969244
    2   0.0289407   0.0059030  -0.0217323   0.0016437   0.0258814  -0.0179622
    3   0.0152102  -0.0047466  -0.0157725  -0.0289715   0.0034348   0.0488449
          253         254         255         256         257         258
    1  -0.0022823  -0.0071701  -0.0246602   0.0128188   0.0088887   0.0062784
    2  -0.0058636  -0.0284613   0.0150953   0.0009329   0.0500885  -0.0099818
    3  -0.0075220   0.0086870  -0.0076127  -0.0327164  -0.0007758  -0.0016748
          259         260         261         262         263         264
    1  -0.0171140   0.0134903   0.0191644  -0.0547906  -0.0081978  -0.0065911
    2  -0.0321705  -0.0016834   0.0096853  -0.0563836   0.0055659  -0.0268022
    3  -0.0153900  -0.0326624   0.0217755   0.0784680  -0.0033039  -0.0200208
          265         266         267         268         269         270
    1  -0.0223327   0.0097749  -0.0063864   0.0022394  -0.0162201   0.0278372
    2  -0.0044577   0.0314487  -0.0547422   0.0042174   0.0006125  -0.0054711
    3   0.0236059  -0.0108092   0.0247552   0.0053498   0.0282422   0.0138460
          271         272         273         274         275         276
    1  -0.0064553   0.0726336   0.0067015   0.0053419   0.0293533  -0.0032962
    2   0.0321001   0.0187340   0.0012744   0.0215038  -0.0151350   0.0115653
    3  -0.0092099  -0.0808291  -0.0019287   0.0236723  -0.0068299  -0.0287359
          277         278         279         280         281         282
    1  -0.0594592   0.0006413  -0.0136291  -0.0119335   0.0259538   0.0349500
    2   0.0207674  -0.0000911   0.0267556  -0.0255793  -0.0168471  -0.1006070
    3  -0.0223890   0.0042388   0.0096788   0.0198535   0.0196088  -0.0265759
          283         284         285         286         287         288
    1   0.0034659   0.0219838  -0.0204635   0.0070568  -0.0208896  -0.0053173
    2   0.0081662   0.0120789   0.0281862   0.0128186  -0.0172637  -0.0001505
    3   0.0019570  -0.0216159   0.0014244   0.0292951  -0.0462881   0.0097875
          289         290         291         292         293         294
    1  -0.0172624   0.0211063  -0.0246588   0.0906748  -0.0060258  -0.0008833
    2  -0.0289698  -0.0041075   0.0205886  -0.0448823   0.0060667   0.0315332
    3   0.0029832   0.0275565   0.0019561   0.0439225   0.0060373  -0.0072686
          295         296         297         298         299         300
    1  -0.0200849  -0.0168494  -0.0010360   0.0074480   0.0304499   0.0071994
    2  -0.0078619  -0.0122851  -0.0555749   0.0080556  -0.0056691   0.0308615
    3  -0.0153971   0.0275348   0.0087717   0.0093268  -0.0011703  -0.0097903
          301         302         303         304         305         306
    1  -0.0056824   0.0188076  -0.0078071  -0.0091453   0.0209273  -0.0261514
    2  -0.0141591   0.0474878   0.0010980  -0.0278090   0.0169208   0.0211806
    3   0.0289692  -0.0965968   0.0060619   0.0184213   0.0211017   0.0012435
          307         308         309         310         311         312
    1   0.0538636   0.0020879   0.0029433  -0.0377926   0.0390054  -0.0640368
    2  -0.0199478   0.0089372   0.0028441   0.0041363   0.0156996  -0.0276083
    3   0.0022715  -0.0027800  -0.0278814   0.0096113  -0.0029677  -0.0838890
  --- DONE ESP SUMMARY ---
Archival summary:
1\1\n0095.mhg0\SP\ProcedureUnspecified\6-31+G*\292958h22\ymao\FriMar1216:32:142021FriMar1216:32:142021\0\\#,ProcedureUnspecified,6-31+G*,\\0,1\S\O,1,1.49665\C,1,1.80769,2,101.962\H,3,1.09256,1,116.622,2,-90.7231,0\H,3,1.09282,1,110.619,2,148.545,0\H,3,1.09309,1,107.917,2,28.7386,0\C,1,1.80791,2,99.4297,3,96.5016,0\H,7,1.09242,1,114.202,2,-31.2733,0\H,7,1.09265,1,102.19,2,-156.276,0\H,7,1.09316,1,104.212,2,84.9977,0\H,6,2.2164,3,150.474,1,0.383589,0\C,11,1.09282,6,127.755,3,112.21,0\H,12,1.09215,11,107.822,6,157.884,0\H,12,1.09339,11,110.18,6,-78.9704,0\S,12,1.80753,11,101.649,6,39.5449,0\O,15,1.49734,12,96.9139,11,-71.3492,0\C,15,1.8067,12,96.4532,11,-177.509,0\H,17,1.09321,15,112.344,12,-178.304,0\H,17,1.09325,15,100.245,12,-65.0307,0\H,17,1.09349,15,116.503,12,57.1278,0\H,9,2.35063,7,135.457,1,158.551,0\C,21,1.09341,9,168.486,7,-78.409,0\H,22,1.09243,21,115.897,9,172.797,0\H,22,1.0925,21,104.686,9,-72.0125,0\S,22,1.80645,21,112.622,9,46.9877,0\O,25,1.49663,22,99.7443,21,161.174,0\C,25,1.80686,22,99.8391,21,51.5729,0\H,27,1.09263,25,107.735,22,-148.921,0\H,27,1.09275,25,106.752,22,94.4042,0\H,27,1.09313,25,111.937,22,-34.7916,0\O,4,2.39989,3,150.264,1,139.906,0\S,31,1.49747,4,108.092,3,-91.6843,0\C,32,1.80619,31,105.921,4,132.668,0\H,33,1.09326,32,105.14,31,58.0421,0\H,33,1.09329,32,108.006,31,173.688,0\H,33,1.09376,32,106.414,31,-63.4924,0\C,32,1.8067,31,103.624,4,29.4097,0\H,37,1.09265,32,107.233,31,163.908,0\H,37,1.09353,32,104.478,31,-75.052,0\H,37,1.09387,32,111.282,31,49.783,0\Gh,9,2.43119,7,151.458,1,-28.063,0\Gh,41,1.09677,9,127.592,7,-94.0628,0\Gh,42,1.09719,41,104.988,9,-63.0398,0\Gh,42,1.53715,41,112.06,9,54.0951,0\Gh,44,1.09656,42,108.598,41,-167.418,0\Gh,44,1.09724,42,111.7,41,-56.7037,0\Gh,44,1.53748,42,112.777,41,62.2402,0\Gh,47,1.09671,44,107.225,42,-68.7315,0\Gh,47,1.4615,44,108.94,42,176.076,0\Gh,49,1.01289,47,122.099,44,-62.1019,0\Gh,49,1.37873,47,121.832,44,90.0175,0\Gh,51,1.1044,49,107.435,47,178.868,0\Gh,51,1.21817,49,122.918,47,3.17203,0\Gh,42,1.53776,41,107.503,9,174.431,0\Gh,54,1.0967,42,107.247,41,163.476,0\Gh,54,1.09684,42,112.084,41,47.1523,0\Gh,54,1.53759,42,114.167,41,-67.7201,0\Gh,57,1.09622,54,109.041,42,-171.128,0\Gh,57,1.09708,54,108.632,42,72.8939,0\Gh,57,1.53823,54,112.285,42,-49.0181,0\Gh,60,1.09598,57,111.776,54,173.685,0\Gh,60,1.09629,57,106.169,54,-67.8156,0\O,50,1.98488,49,156.687,47,159.894,0\S,63,1.49749,50,80.7096,49,-131.499,0\C,64,1.80698,63,104.417,50,112.934,0\H,65,1.09279,64,105.255,63,48.3174,0\H,65,1.0929,64,106.495,63,168.33,0\H,65,1.09344,64,116.055,63,-67.6547,0\C,64,1.80717,63,101.787,50,-146.805,0\H,69,1.09295,64,94.8552,63,38.292,0\H,69,1.09314,64,119.844,63,157.543,0\H,69,1.09314,64,103.141,63,-70.3472,0\H,55,2.27266,54,121.279,42,-73.1254,0\C,73,1.09338,55,114.188,54,147.588,0\H,74,1.09293,73,107.992,55,56.6275,0\H,74,1.09362,73,120.982,55,-177.596,0\S,74,1.80638,73,106.761,55,-58.2882,0\O,77,1.49762,74,107.12,73,-90.1725,0\C,77,1.80732,74,97.805,73,170.481,0\H,79,1.09295,77,106.246,74,48.5929,0\H,79,1.09299,77,105.755,74,160.752,0\H,79,1.09323,77,113.8,74,-72.5077,0\H,75,2.218,74,114.35,73,156.848,0\C,83,1.09282,75,150.476,74,-116.492,0\H,84,1.09296,83,98.6768,75,151.166,0\H,84,1.09322,83,111.578,75,29.8833,0\S,84,1.80717,83,123.033,75,-94.9036,0\O,87,1.49738,84,94.5273,83,89.7656,0\C,87,1.8068,84,96.0355,83,-31.319,0\H,89,1.09249,87,104.975,84,176.22,0\H,89,1.09334,87,103.312,84,-72.7966,0\H,89,1.09354,87,115.099,84,54.132,0\H,56,2.29516,54,165.954,42,-152.402,0\C,93,1.09354,56,164.965,54,106.863,0\H,94,1.09231,93,115.455,56,41.8002,0\H,94,1.09286,93,107.601,56,162.562,0\S,94,1.80743,93,103.268,56,-78.0425,0\O,97,1.49642,94,102.844,93,-66.0511,0\C,97,1.80628,94,93.8115,93,-172.981,0\H,99,1.09308,97,117,94,-25.4045,0\H,99,1.09329,97,111.871,94,-135.028,0\H,99,1.0934,97,104.146,94,98.2498,0\H,95,2.09821,94,98.7914,93,81.4895,0\C,103,1.09261,95,119.831,94,-132.331,0\H,104,1.09297,103,104.683,95,-13.9232,0\H,104,1.09337,103,103.291,95,-134.649,0\S,104,1.80696,103,101.701,95,99.6044,0\O,107,1.49677,104,107.591,103,22.8049,0\C,107,1.80741,104,100.354,103,129.955,0\H,109,1.09292,107,109.932,104,-56.7652,0\H,109,1.09302,107,108.176,104,-176.953,0\H,109,1.09383,107,109.874,104,63.1319,0\H,58,2.32139,57,126.676,54,40.334,0\C,113,1.09356,58,161.002,57,118.992,0\H,114,1.09241,113,116.652,58,163.938,0\H,114,1.09294,113,107.341,58,44.1733,0\S,114,1.80718,113,103.347,58,-74.1423,0\O,117,1.49759,114,102.655,113,-73.1237,0\C,117,1.80651,114,96.9927,113,179.568,0\H,119,1.09288,117,110.399,114,73.4826,0\H,119,1.09325,117,103.89,114,-46.0047,0\H,119,1.09347,117,109.149,114,-170.028,0\H,115,2.03479,114,136.739,113,11.9639,0\C,123,1.09262,115,100.635,114,-177.941,0\H,124,1.09293,123,116.662,115,-30.4136,0\H,124,1.0932,123,106.465,115,-166.806,0\S,124,1.80769,123,100.711,115,86.7157,0\O,127,1.49678,124,104.255,123,-60.5594,0\C,127,1.8066,124,101.658,123,47.8912,0\H,129,1.09221,127,105.309,124,77.2747,0\H,129,1.09343,127,106.062,124,-159.519,0\H,129,1.09389,127,105.572,124,-41.5162,0\H,59,2.35129,57,101.909,54,144.679,0\C,133,1.0929,59,177.241,57,124.261,0\H,134,1.09287,133,119.392,59,-173.504,0\H,134,1.0937,133,101.288,59,62.3277,0\S,134,1.80648,133,107.931,59,-49.4303,0\O,137,1.49726,134,99.8218,133,83.8352,0\C,137,1.80718,134,95.6762,133,-173.16,0\H,139,1.0927,137,103.285,134,-162.017,0\H,139,1.09299,137,111.405,134,-43.3853,0\H,139,1.09389,137,113.778,134,79.9209,0\H,70,2.36882,69,141.792,64,-60.2992,0\C,143,1.09349,70,109.319,69,-124.026,0\H,144,1.09307,143,116.763,70,52.7242,0\H,144,1.09332,143,107.086,70,-67.3207,0\S,144,1.80623,143,107.605,70,176.403,0\O,147,1.49736,144,100.318,143,68.6885,0\C,147,1.80767,144,87.5081,143,171.536,0\H,149,1.0927,147,107.691,144,65.8832,0\H,149,1.09284,147,113.758,144,-173.109,0\H,149,1.09296,147,109.793,144,-54.2337,0\H,143,2.18048,70,73.287,69,122.187,0\C,153,1.0923,143,115.278,70,-165.773,0\H,154,1.09306,153,105.183,143,106.714,0\H,154,1.09307,153,110.491,143,-8.49244,0\S,154,1.8071,153,112.876,143,-132.69,0\O,157,1.49686,154,109.487,153,-77.7819,0\C,157,1.80606,154,91.1085,153,178.363,0\H,159,1.09266,157,117.993,154,175.51,0\H,159,1.09268,157,106.358,154,-58.0253,0\H,159,1.0928,157,105.219,154,51.9656,0\H,161,2.15373,159,126.608,157,113.443,0\C,163,1.09287,161,125.198,159,-9.29202,0\H,164,1.09236,163,106.13,161,-40.4179,0\H,164,1.09407,163,107.43,161,75.854,0\S,164,1.80771,163,113.568,161,-166.823,0\O,167,1.49707,164,109.673,163,150.408,0\C,167,1.80735,164,92.3522,163,43.2489,0\H,169,1.09232,167,117.008,164,-48.7917,0\H,169,1.09293,167,106.358,164,-168.755,0\H,169,1.09338,167,105.741,164,67.669,0\H,171,2.12074,169,111.43,167,-71.576,0\C,173,1.09308,171,127.437,169,-146.075,0\H,174,1.0925,173,108.648,171,-35.2637,0\H,174,1.0929,173,114.854,171,-158.044,0\S,174,1.80777,173,109.899,171,79.0417,0\O,177,1.49624,174,101.904,173,164.875,0\C,177,1.80738,174,95.7506,173,65.4707,0\H,179,1.09247,177,108.891,174,44.7153,0\H,179,1.09288,177,110.721,174,-73.3626,0\H,179,1.09333,177,110.097,174,163.631,0\H,176,2.298,174,100.513,173,29.333,0\C,183,1.09316,176,111.967,174,130.073,0\H,184,1.09259,183,113.21,176,-87.9254,0\H,184,1.09319,183,106.988,176,31.0241,0\S,184,1.80707,183,110.296,176,149.307,0\O,187,1.49613,184,96.0572,183,168.506,0\C,187,1.80737,184,92.5077,183,65.5863,0\H,189,1.09282,187,118.275,184,-54.8415,0\H,189,1.09307,187,105.345,184,73.3452,0\H,189,1.09311,187,101.373,184,-177.529,0\H,190,2.3229,189,113.664,187,-125.235,0\C,193,1.09334,190,135.245,189,97.6199,0\H,194,1.09247,193,102.944,190,177.891,0\H,194,1.09322,193,114.926,190,54.6385,0\S,194,1.80697,193,107.394,190,-70.4514,0\O,197,1.49744,194,105.741,193,-25.1428,0\C,197,1.80778,194,98.6793,193,82.045,0\H,199,1.09246,197,106.105,194,-47.1344,0\H,199,1.09298,197,106.35,194,-154.376,0\H,199,1.0931,197,111.25,194,76.4076,0\H,180,2.37815,179,114.369,177,-104.26,0\C,203,1.09314,180,99.0574,179,-153.335,0\H,204,1.09255,203,113.345,180,-157.245,0\H,204,1.09324,203,115.667,180,-38.5154,0\S,204,1.80742,203,108.436,180,80.1086,0\O,207,1.49708,204,101.725,203,-88.1535,0\C,207,1.80668,204,96.4424,203,166.952,0\H,209,1.09306,207,106.606,204,172.92,0\H,209,1.0931,207,105.641,204,-67.9868,0\H,209,1.09327,207,105.763,204,54.604,0\H,102,2.37912,99,131.686,97,66.362,0\C,213,1.09356,102,144.55,99,19.3792,0\H,214,1.09165,213,111.646,102,143.041,0\H,214,1.09332,213,112.578,102,19.7566,0\S,214,1.80737,213,114.166,102,-90.7949,0\O,217,1.49734,214,104.336,213,-160.14,0\C,217,1.80655,214,93.2884,213,-55.7406,0\H,219,1.09263,217,101.626,214,-173.7,0\H,219,1.09283,217,118.774,214,-46.3085,0\H,219,1.09329,217,100.737,214,74.2366,0\O,205,2.4483,204,141.666,203,151.466,0\S,223,1.49771,205,163.566,204,-19.5008,0\C,224,1.80654,223,98.6674,205,-142.147,0\H,225,1.09265,224,108.945,223,178.084,0\H,225,1.09289,224,109.007,223,53.7951,0\H,225,1.09307,224,113.353,223,-70.2024,0\C,224,1.80701,223,110.591,205,-45.2032,0\H,229,1.09281,224,110.551,223,51.3469,0\H,229,1.09321,224,108.733,223,-69.6086,0\H,229,1.09352,224,105.565,223,171.908,0\O,101,2.45555,99,138.294,97,-48.2656,0\S,233,1.49714,101,129.529,99,13.8605,0\C,234,1.80727,233,104.028,101,111.115,0\H,235,1.09237,234,105.064,233,66.6893,0\H,235,1.09309,234,105.717,233,-174.805,0\H,235,1.0932,234,113.084,233,-57.2263,0\C,234,1.8074,233,109.816,101,-139.343,0\H,239,1.0925,234,110.168,233,-154.877,0\H,239,1.093,234,114.92,233,84.5631,0\H,239,1.09352,234,107.178,233,-35.3806,0\H,23,2.45698,22,158.944,21,-129.513,0\C,243,1.09248,23,132.046,22,-3.30332,0\H,244,1.09319,243,112.685,23,40.9296,0\H,244,1.0932,243,119.234,23,172.81,0\S,244,1.80687,243,100.427,23,-75.2271,0\O,247,1.49724,244,104.398,243,-64.7857,0\C,247,1.80652,244,101.133,243,-175.693,0\H,249,1.09254,247,103.033,244,94.0216,0\H,249,1.09325,247,114.837,244,-28.0617,0\H,249,1.0938,247,107.112,244,-147.507,0\H,138,2.4749,137,114.463,134,-100.007,0\C,253,1.0926,138,123.833,137,123.403,0\H,254,1.09304,253,101.28,138,-158.171,0\H,254,1.09369,253,116.94,138,-43.591,0\S,254,1.80674,253,114.217,138,86.8263,0\O,257,1.4968,254,104.146,253,33.3184,0\C,257,1.80673,254,97.0718,253,-70.4699,0\H,259,1.09293,257,104.386,254,-44.2154,0\H,259,1.09329,257,107.238,254,-164.043,0\H,259,1.09329,257,113,254,70.3399,0\H,262,2.23315,259,134.241,257,-5.40333,0\C,263,1.09271,262,121.812,259,163.433,0\H,264,1.09293,263,109.223,262,-14.9858,0\H,264,1.09377,263,102.113,262,114.098,0\S,264,1.80726,263,108.808,262,-132.297,0\O,267,1.49678,264,101.123,263,-61.3316,0\C,267,1.80635,264,91.7752,263,-162.622,0\H,269,1.09298,267,107.396,264,-44.8375,0\H,269,1.09334,267,105.268,264,-161.637,0\H,269,1.09354,267,109.559,264,81.0138,0\H,158,2.47595,157,122.754,154,141.451,0\C,273,1.09331,158,115.672,157,-16.5466,0\H,274,1.09223,273,104.404,158,99.6211,0\H,274,1.09352,273,107.71,158,-24.1344,0\S,274,1.80725,273,108.239,158,-146.807,0\O,277,1.49723,274,103.896,273,-78.9345,0\C,277,1.80734,274,103.456,273,170.614,0\H,279,1.09246,277,106.823,274,-64.5966,0\H,279,1.09256,277,108.587,274,172.02,0\H,279,1.0935,277,107.479,274,57.7002,0\H,31,2.51134,4,63.4491,3,34.2031,0\C,283,1.09285,31,148.755,4,142.113,0\H,284,1.09226,283,117.722,31,103.593,0\H,284,1.0934,283,114.511,31,-133.149,0\S,284,1.80643,283,106.255,31,-16.3793,0\O,287,1.4978,284,103.645,283,-175.896,0\C,287,1.80644,284,102.183,283,75.0134,0\H,289,1.09306,287,115.431,284,174.759,0\H,289,1.09323,287,109.898,284,56.3665,0\H,289,1.0934,287,109.118,284,-60.9169,0\O,66,2.5126,65,119.139,64,154.329,0\S,293,1.49715,66,87.512,65,91.3419,0\C,294,1.8069,293,95.259,66,150.245,0\H,295,1.09242,294,110.27,293,-75.3443,0\H,295,1.09258,294,107.461,293,155.112,0\H,295,1.09391,294,103.938,293,40.4326,0\C,294,1.80768,293,94.8582,66,-112.711,0\H,299,1.09271,294,105.656,293,-159.511,0\H,299,1.09278,294,112.749,293,-34.6109,0\H,299,1.09332,294,112.844,293,87.5036,0\H,302,2.20012,299,169.918,294,-84.9487,0\C,303,1.09273,302,101.505,299,176.925,0\H,304,1.09287,303,105.551,302,47.0269,0\H,304,1.09377,303,105.024,302,-70.8797,0\S,304,1.80682,303,107.121,302,171.204,0\O,307,1.49723,304,99.1828,303,169.402,0\C,307,1.80673,304,94.4516,303,-89.9209,0\H,309,1.09268,307,106.321,304,-160.279,0\H,309,1.09301,307,113.435,304,-45.3815,0\H,309,1.09358,307,108.897,304,82.7752,0\\\@

 Total job time:  81.88s(wall), 290.26s(cpu) 
 Fri Mar 12 16:32:14 2021

        *************************************************************
        *                                                           *
        *  Thank you very much for using Q-Chem.  Have a nice day.  *
        *                                                           *
        *************************************************************


