                  Welcome to Q-Chem
     A Quantum Leap Into The Future Of Chemistry


 Q-Chem 5.2 (devel), Q-Chem, Inc., Pleasanton, CA (2019)

 Yihan Shao,  Zhengting Gan,  E. Epifanovsky,  A. T. B. Gilbert,  M. Wormit,  
 J. Kussmann,  A. W. Lange,  A. Behn,  Jia Deng,  Xintian Feng,  D. Ghosh,  
 M. Goldey,  P. R. Horn,  L. D. Jacobson,  I. Kaliman,  T. Kus,  A. Landau,  
 Jie Liu,  E. I. Proynov,  R. M. Richard,  R. P. Steele,  E. J. Sundstrom,  
 H. L. Woodcock III,  P. M. Zimmerman,  D. Zuev,  B. Alam,  B. Albrecht,  
 E. Alguire,  S. A. Baeppler,  D. Barton,  Z. Benda,  Y. A. Bernard,  
 E. J. Berquist,  K. B. Bravaya,  H. Burton,  K. Carter-Fenk,  D. Casanova,  
 Chun-Min Chang,  Yunqing Chen,  A. Chien,  K. D. Closser,  M. P. Coons,  
 S. Coriani,  S. Dasgupta,  A. L. Dempwolff,  M. Diedenhofen,  Hainam Do,  
 R. G. Edgar,  Po-Tung Fang,  S. Faraji,  S. Fatehi,  Qingguo Feng,  
 J. Fosso-Tande,  J. Gayvert,  Qinghui Ge,  A. Ghysels,  G. Gidofalvi,  
 J. Gomes,  J. Gonthier,  A. Gunina,  D. Hait,  M. W. D. Hanson-Heine,  
 P. H. P. Harbach,  A. W. Hauser,  M. F. Herbst,  J. E. Herr,  
 E. G. Hohenstein,  Z. C. Holden,  Kerwin Hui,  B. C. Huynh,  T.-C. Jagau,  
 Hyunjun Ji,  B. Kaduk,  K. Khistyaev,  Jaehoon Kim,  P. Klunzinger,  K. Koh,  
 D. Kosenkov,  L. Koulias,  T. Kowalczyk,  C. M. Krauter,  A. Kunitsa,  
 Ka Un Lao,  A. Laurent,  K. V. Lawler,  Joonho Lee,  D. Lefrancois,  
 S. Lehtola,  D. S. Levine,  Yi-Pei Li,  You-Sheng Lin,  Fenglai Liu,  
 Kuan-Yu Liu,  E. Livshits,  M. Loipersberger,  A. Luenser,  P. Manohar,  
 E. Mansoor,  S. F. Manzer,  Shan-Ping Mao,  Yuezhi Mao,  N. Mardirossian,  
 A. V. Marenich,  T. Markovich,  L. A. Martinez-Martinez,  S. A. Maurer,  
 N. J. Mayhall,  S. C. McKenzie,  J.-M. Mewes,  P. Morgante,  A. F. Morrison,  
 J. W. Mullinax,  K. Nanda,  T. S. Nguyen-Beck,  R. Olivares-Amaya,  
 J. A. Parkhill,  S. K. Paul,  F. Pavosevic,  Zheng Pei,  T. M. Perrine,  
 F. Plasser,  P. Pokhilko,  S. Prager,  A. Prociuk,  E. Ramos,  B. Rana,  
 D. R. Rehn,  F. Rob,  M. Scheurer,  M. Schneider,  N. Sergueev,  
 S. M. Sharada,  S. Sharma,  D. W. Small,  T. Stauch,  C. J. Stein,  
 T. Stein,  Yu-Chuan Su,  S. P. Veccham,  Zhen Tao,  A. J. W. Thom,  
 A. Tkatchenko,  T. Tsuchimochi,  N. M. Tubman,  L. Vogt,  M. L. Vidal,  
 O. Vydrov,  M. A. Watson,  J. Wenzel,  M. de Wergifosse,  T. A. Wesolowski,  
 A. White,  J. Witte,  A. Yamada,  Jun Yang,  K. Yao,  S. Yeganeh,  
 S. R. Yost,  Zhi-Qiang You,  A. Zech,  Igor Ying Zhang,  Xing Zhang,  
 Yan Zhao,  Ying Zhu,  B. R. Brooks,  G. K. L. Chan,  C. J. Cramer,  
 M. S. Gordon,  W. J. Hehre,  A. Klamt,  M. W. Schmidt,  C. D. Sherrill,  
 D. G. Truhlar,  A. Aspuru-Guzik,  R. Baer,  A. T. Bell,  N. A. Besley,  
 Jeng-Da Chai,  A. E. DePrince, III,  R. A. DiStasio Jr.,  A. Dreuw,  
 B. D. Dunietz,  T. R. Furlani,  Chao-Ping Hsu,  Yousung Jung,  Jing Kong,  
 D. S. Lambrecht,  WanZhen Liang,  C. Ochsenfeld,  V. A. Rassolov,  
 L. V. Slipchenko,  J. E. Subotnik,  T. Van Voorhis,  J. M. Herbert,  
 A. I. Krylov,  P. M. W. Gill,  M. Head-Gordon

 Contributors to earlier versions of Q-Chem not listed above: 
 R. D. Adamson,  B. Austin,  J. Baker,  G. J. O. Beran,  K. Brandhorst,  
 S. T. Brown,  E. F. C. Byrd,  A. K. Chakraborty,  C.-L. Cheng,  
 Siu Hung Chien,  D. M. Chipman,  D. L. Crittenden,  H. Dachsel,  
 R. J. Doerksen,  A. D. Dutoi,  L. Fusti-Molnar,  W. A. Goddard III,  
 A. Golubeva-Zadorozhnaya,  S. R. Gwaltney,  G. Hawkins,  A. Heyden,  
 S. Hirata,  G. Kedziora,  F. J. Keil,  C. Kelley,  Jihan Kim,  R. A. King,  
 R. Z. Khaliullin,  P. P. Korambath,  W. Kurlancheek,  A. M. Lee,  M. S. Lee,  
 S. V. Levchenko,  Ching Yeh Lin,  D. Liotard,  R. C. Lochan,  I. Lotan,  
 P. E. Maslen,  N. Nair,  D. P. O'Neill,  D. Neuhauser,  E. Neuscamman,  
 C. M. Oana,  R. Olson,  B. Peters,  R. Peverati,  P. A. Pieniazek,  
 Y. M. Rhee,  J. Ritchie,  M. A. Rohrdanz,  E. Rosta,  N. J. Russ,  
 H. F. Schaefer III,  N. E. Schultz,  N. Shenvi,  A. C. Simmonett,  A. Sodt,  
 D. Stuck,  K. S. Thanthiriwatte,  V. Vanovschi,  Tao Wang,  A. Warshel,  
 C. F. Williams,  Q. Wu,  X. Xu,  W. Zhang

 Please cite Q-Chem as follows:
 Y. Shao et al., Mol. Phys. 113, 184-215 (2015)
 DOI: 10.1080/00268976.2014.952696

 Q-Chem 5.2.2 for Intel X86 EM64T Linux

 Parts of Q-Chem use Armadillo 9.800.1 (Horizon Scraper).
 http://arma.sourceforge.net/

 Q-Chem begins on Thu Mar 11 13:37:32 2021  

Host: n0068.mhg0
0

     Scratch files written to /local/scratch/users/ymao/r7.00_frame_0024_almo_B3LYP_dp.in20210311133729//

Checking the input file for inconsistencies... 	...done.

--------------------------------------------------------------
User input:
--------------------------------------------------------------
$molecule
0 1
--
0 1
C    24.45700   17.95700   28.43800  
C    25.26600   18.17600   27.14900  
C    24.88700   19.54200   26.55400  
C    25.09700   20.62800   27.62200  
C    24.22800   20.42600   28.87400  
C    24.54700   19.06000   29.50500  
H    25.43300   19.73400   25.62300  
H    26.33200   18.27100   27.38800  
H    23.43500   17.58400   28.29800  
H    24.93100   17.11100   28.95100  
H    26.14500   20.52200   27.92700  
H    24.93900   21.63900   27.22500  
H    24.45300   21.20200   29.61600  
H    23.18500   20.45100   28.53400  
H    25.57100   19.16000   29.88400  
H    23.87900   18.82800   30.34300  
H    23.86300   19.49300   26.16200  
N    25.03200   17.06900   26.22400  
H    24.12700   16.85300   25.82400  
C    26.05500   16.16700   26.01600  
H    25.69500   15.43800   25.26800  
O    27.15600   16.20400   26.53700  
--
0 1
C    20.95200   19.27500   28.07500  
H    21.61500   19.28400   27.20600  
H    21.51600   19.39900   29.00300  
H    20.43700   18.31200   28.04100  
S    19.79300   20.63000   27.78300  
C    21.03400   21.94300   27.73600  
H    21.41500   22.13500   28.74200  
H    21.77900   21.59600   27.01700  
H    20.53800   22.82200   27.31600  
O    19.17600   20.93100   29.11400  
C    17.44700   26.48900   27.19500  
H    18.35700   27.08300   27.07800  
H    17.03400   26.39100   26.18800  
H    16.74400   26.91700   27.91400  
S    17.76900   24.81700   27.80100  
C    18.38900   25.21800   29.45000  
H    19.09100   24.41700   29.69800  
H    18.92200   26.15200   29.25700  
H    17.50800   25.38600   30.07500  
O    19.06100   24.57400   27.08500  
C    19.16100   19.93700   23.97900  
H    19.79100   19.09600   23.67600  
H    18.65000   19.83800   24.94000  
H    18.45900   20.08700   23.15500  
S    20.34700   21.29200   24.12900  
C    20.80700   21.27100   22.38200  
H    21.44400   22.06200   21.97800  
H    21.27200   20.31700   22.12000  
H    19.85000   21.29900   21.85400  
O    21.53200   20.62700   24.75700  
C    29.19500   17.41700   28.98300  
H    30.14400   17.11200   29.43300  
H    28.56400   17.78900   29.79400  
H    28.77500   16.61800   28.36700  
S    29.38900   18.77500   27.80800  
C    30.41600   17.73200   26.74800  
H    31.10500   17.09400   27.30700  
H    29.78000   17.16100   26.06700  
H    30.98700   18.51200   26.23800  
O    30.34200   19.62700   28.58700  
C    22.81800   24.62200   33.53900  
H    23.01900   23.58000   33.80200  
H    23.71800   25.16300   33.23700  
H    22.16400   25.08400   34.28300  
S    21.88900   24.45500   31.99900  
C    20.54400   23.42700   32.63000  
H    19.89900   24.03500   33.26900  
H    20.03100   23.11600   31.71600  
H    21.03700   22.60300   33.15200  
O    22.71700   23.60700   31.08500  
C    28.87500   8.96100    27.88600  
H    29.54900   8.34000    27.29000  
H    29.22100   9.07700    28.91600  
H    27.88100   8.51200    27.94500  
S    28.63600   10.48300   26.94100  
C    27.60500   9.77500    25.63700  
H    26.63300   9.63300    26.11700  
H    27.59600   10.47800   24.79900  
H    28.09500   8.85900    25.29700  
O    29.91400   11.00500   26.36100  
C    29.33500   22.54800   28.77000  
H    30.21900   22.49500   28.13000  
H    29.52800   23.08600   29.70200  
H    29.04400   21.52100   29.00400  
S    28.00200   23.15500   27.71200  
C    28.60700   24.85700   27.76700  
H    27.80600   25.44300   27.30700  
H    28.73100   25.11400   28.82200  
H    29.56400   24.95600   27.24700  
O    26.84600   23.30100   28.65200  
C    23.65000   19.62400   35.43000  
H    24.05800   20.45300   34.84600  
H    23.88000   18.72200   34.85700  
H    22.57100   19.70600   35.57800  
S    24.56400   19.57700   36.98800  
C    26.14100   19.23900   36.17200  
H    26.91900   18.96400   36.88900  
H    25.90400   18.40600   35.50600  
H    26.44100   20.14200   35.63500  
O    24.13100   18.18600   37.33400  
C    24.41000   14.86100   35.71600  
H    24.56600   15.94000   35.79300  
H    24.22400   14.39700   36.68800  
H    25.20900   14.41300   35.11900  
S    22.89400   14.62400   34.76100  
C    21.81800   15.37400   36.00300  
H    22.21800   15.12900   36.99000  
H    21.91900   16.46200   35.96300  
H    20.77200   15.09500   35.84800  
O    22.59500   13.16800   34.93500  
C    20.94200   17.30400   32.95700  
H    21.84300   17.59300   33.50400  
H    20.76900   16.34900   33.45800  
H    21.03800   17.10500   31.88600  
S    19.53500   18.26400   33.55900  
C    19.85500   19.60900   32.39700  
H    19.60100   19.38700   31.35700  
H    19.29000   20.47100   32.76000  
H    20.93000   19.80200   32.45100  
O    20.19000   18.73300   34.82100  
C    17.93100   17.67600   29.84500  
H    18.35400   16.93500   30.53000  
H    18.53000   18.58000   29.70800  
H    16.99700   18.04900   30.27100  
S    17.48200   16.79500   28.33300  
C    16.62200   15.43700   29.15800  
H    17.36200   14.89000   29.74800  
H    15.85800   15.72700   29.88400  
H    16.20300   14.73900   28.42800  
O    18.82200   16.28900   27.89800  
C    25.17000   20.64000   32.39400  
H    24.12000   20.34200   32.44300  
H    25.72700   20.40800   31.48200  
H    25.74600   20.12800   33.16900  
S    25.50300   22.37300   32.78300  
C    27.13600   22.57200   32.03500  
H    27.38100   23.63200   31.92900  
H    27.94300   22.08500   32.58800  
H    27.16100   22.11400   31.04300  
O    25.83300   22.30100   34.24200  
C    28.00200   14.32600   22.07300  
H    27.27100   13.57600   22.38600  
H    27.63200   15.28100   22.45300  
H    28.06900   14.33800   20.98200  
S    29.63400   13.92500   22.73800  
C    29.19400   14.13100   24.47800  
H    29.97000   13.69900   25.11500  
H    29.14600   15.16400   24.83000  
H    28.18000   13.76500   24.66000  
O    30.43700   15.17400   22.54500  
C    31.19800   12.49000   29.09800  
H    31.87600   13.25200   28.70600  
H    31.55400   12.05700   30.03600  
H    31.07500   11.68800   28.36600  
S    29.55700   13.13300   29.49700  
C    29.20400   13.98600   27.94400  
H    29.35700   13.21600   27.18300  
H    28.22400   14.46900   27.97600  
H    29.99200   14.70800   27.71400  
O    29.81200   14.25100   30.45900  
C    25.33100   16.79700   18.13300  
H    25.86600   17.30500   18.94000  
H    25.48900   17.38900   17.22700  
H    24.32700   16.67400   18.54800  
S    26.18900   15.22700   17.88400  
C    25.42700   14.34000   19.26100  
H    25.69300   13.29800   19.06600  
H    25.82300   14.81100   20.16400  
H    24.35500   14.55400   19.24400  
O    27.54500   15.36400   18.50400  
C    26.49700   27.74300   24.46200  
H    25.80300   27.25300   23.77400  
H    26.31300   27.52600   25.51700  
H    26.33500   28.80400   24.25400  
S    28.17900   27.13500   24.20400  
C    27.61300   25.42200   24.10700  
H    27.12400   25.13100   23.17400  
H    28.51400   24.86100   24.36900  
H    27.03300   25.29300   25.02500  
O    28.85700   27.27400   25.53200  
C    30.83600   18.11300   33.21800  
H    30.29900   17.20300   33.49600  
H    30.63300   18.34500   32.16900  
H    31.90400   17.90400   33.31200  
S    30.23900   19.29400   34.44900  
C    30.87600   18.54200   35.96300  
H    30.49600   17.52500   36.08600  
H    31.94800   18.36700   35.84000  
H    30.76600   19.17700   36.84600  
O    28.79000   19.00600   34.68600  
C    23.89700   24.08200   27.99700  
H    24.41600   23.21100   28.40500  
H    22.98500   24.23200   28.58000  
H    23.61700   23.91500   26.95400  
S    24.89300   25.57900   27.81400  
C    24.06000   26.47700   29.14200  
H    24.12200   27.55900   29.00000  
H    23.00900   26.18000   29.18600  
H    24.53000   26.07000   30.04100  
O    24.33300   26.22500   26.58500  
C    20.23800   18.40100   20.27700  
H    21.10600   18.70000   20.87100  
H    20.50100   18.20500   19.23400  
H    19.44300   19.15000   20.25000  
S    19.64200   16.85800   21.00600  
C    18.26400   16.82900   19.83700  
H    17.56400   16.03600   20.11200  
H    17.77200   17.80400   19.89000  
H    18.67700   16.68500   18.83600  
O    18.98100   17.24400   22.29300  
C    23.57800   18.72700   23.06600  
H    24.30400   19.45500   23.43800  
H    22.85600   19.22800   22.41700  
H    23.05900   18.27900   23.91700  
S    24.49800   17.54700   22.05200  
C    23.16000   16.53300   21.38400  
H    22.31300   16.60400   22.07200  
H    22.87100   16.90400   20.39800  
H    23.49500   15.50200   21.24400  
O    25.02200   16.64400   23.12400  
C    22.98800   25.41300   23.65400  
H    23.93200   25.96100   23.59100  
H    22.30600   25.97000   23.00700  
H    22.51800   25.39100   24.64100  
S    23.24100   23.75400   22.98600  
C    23.76300   23.05100   24.56700  
H    24.55600   23.66100   25.00800  
H    22.92700   22.88100   25.25100  
H    24.32200   22.14300   24.32700  
O    24.54900   23.84600   22.26400  
C    21.07400   14.83000   29.96100  
H    21.85300   14.89900   30.72400  
H    20.72200   15.85100   29.79400  
H    20.17200   14.34400   30.34200  
S    21.95500   14.05000   28.58900  
C    20.42600   13.40700   27.87000  
H    19.80700   14.20200   27.44900  
H    20.66000   12.81500   26.98200  
H    19.87200   12.79300   28.58500  
O    22.66900   12.87300   29.17700  
C    28.75700   17.70400   21.08800  
H    29.58400   18.16300   21.63500  
H    27.87300   17.79400   21.72400  
H    28.97100   16.63700   20.98600  
S    28.48200   18.38400   19.43600  
C    30.24100   18.49400   19.03800  
H    30.79100   18.92500   19.87900  
H    30.51800   17.45400   18.85000  
H    30.32100   19.10000   18.13200  
O    28.13600   19.83700   19.52600  
C    27.91500   16.16700   31.98300  
H    28.71200   16.91400   31.94900  
H    28.33400   15.15700   32.00600  
H    27.23900   16.32100   31.13800  
S    27.05100   16.63900   33.49800  
C    28.09500   15.80400   34.71400  
H    28.42700   14.85400   34.28600  
H    29.03100   16.35600   34.82600  
H    27.59000   15.55700   35.65200  
O    25.81800   15.80700   33.33400  
C    28.47400   19.80500   24.00000  
H    28.81000   19.49700   24.99300  
H    27.74500   19.08800   23.61200  
H    29.28600   20.00300   23.29500  
S    27.63600   21.40500   24.03100  
C    27.20100   21.46900   22.27800  
H    26.89100   22.49600   22.07300  
H    28.05700   21.15900   21.67400  
H    26.41500   20.72400   22.12700  
O    28.74500   22.40300   24.16100  
C    33.01500   14.77900   24.34900  
H    33.47800   14.34100   23.46100  
H    32.04900   14.29100   24.50200  
H    32.89400   15.84900   24.16000  
S    33.92300   14.47500   25.88100  
C    33.45900   12.74800   26.13700  
H    33.83700   12.41000   27.10500  
H    32.37500   12.61700   26.09400  
H    33.92700   12.19200   25.32000  
O    33.09100   15.11300   26.95000  
C    25.47500   13.87300   30.18700  
H    26.47200   14.30100   30.32000  
H    25.08900   13.93200   29.16600  
H    24.75200   14.36800   30.84000  
S    25.59300   12.16300   30.76200  
C    26.16800   12.45800   32.44900  
H    26.36800   11.49700   32.92900  
H    27.11700   12.99700   32.39000  
H    25.30700   12.96000   32.89800  
O    26.79600   11.60200   30.07000  
C    25.07400   20.60500   17.72100  
H    25.82400   20.10800   18.34100  
H    24.93300   20.09800   16.76300  
H    25.43600   21.63300   17.64600  
S    23.53100   20.69500   18.65700  
C    24.25400   21.37800   20.16500  
H    23.91500   20.96700   21.12000  
H    25.34100   21.41800   20.06200  
H    23.95900   22.42400   20.27900  
O    23.33400   19.26900   19.06800  
C    25.35300   12.69800   26.49300  
H    25.34900   11.87600   27.21400  
H    26.31800   12.94800   26.04500  
H    24.81600   13.54200   26.93300  
S    24.42600   12.33300   24.98600  
C    23.04800   11.48700   25.79300  
H    23.32000   10.44100   25.95500  
H    22.89200   11.95700   26.76700  
H    22.14100   11.58600   25.19000  
O    25.21900   11.25000   24.32300  
C    20.52700   16.89400   25.35500  
H    19.78000   17.20900   24.62100  
H    20.11700   16.23700   26.12600  
H    21.02600   17.71900   25.86900  
S    21.79800   15.82300   24.64600  
C    20.64600   14.48100   24.27600  
H    19.85500   14.81100   23.59800  
H    21.33800   13.72500   23.89500  
H    20.20900   14.07000   25.19000  
O    22.59900   15.30700   25.80100  
$end

$rem
JOBTYPE  SP
METHOD  B3LYP
BASIS  6-31+G(D)
SYMMETRY  FALSE
SYM_IGNORE  TRUE
MEM_TOTAL  16000
MEM_STATIC  8000
MAX_SUB_FILE_NUM  16000
BASIS_LIN_DEP_THRESH  6
THRESH  14
SCF_CONVERGENCE  8
GEN_SCFMAN  TRUE
SCF_GUESS  FRAGMO
FD_MAT_VEC_PROD  FALSE
XC_GRID  000075000302
NL_GRID  1
MAX_SCF_CYCLES  200
FRGM_METHOD  STOLL
SCFMI_MODE  1
$end

$development
almo_efield  1
$end

$rem_frgm
SCF_CONVERGENCE  4
$end

--------------------------------------------------------------
 ----------------------------------------------------------------
             Standard Nuclear Orientation (Angstroms)
    I     Atom           X                Y                Z
 ----------------------------------------------------------------
    1      C      24.4570000000    17.9570000000    28.4380000000
    2      C      25.2660000000    18.1760000000    27.1490000000
    3      C      24.8870000000    19.5420000000    26.5540000000
    4      C      25.0970000000    20.6280000000    27.6220000000
    5      C      24.2280000000    20.4260000000    28.8740000000
    6      C      24.5470000000    19.0600000000    29.5050000000
    7      H      25.4330000000    19.7340000000    25.6230000000
    8      H      26.3320000000    18.2710000000    27.3880000000
    9      H      23.4350000000    17.5840000000    28.2980000000
   10      H      24.9310000000    17.1110000000    28.9510000000
   11      H      26.1450000000    20.5220000000    27.9270000000
   12      H      24.9390000000    21.6390000000    27.2250000000
   13      H      24.4530000000    21.2020000000    29.6160000000
   14      H      23.1850000000    20.4510000000    28.5340000000
   15      H      25.5710000000    19.1600000000    29.8840000000
   16      H      23.8790000000    18.8280000000    30.3430000000
   17      H      23.8630000000    19.4930000000    26.1620000000
   18      N      25.0320000000    17.0690000000    26.2240000000
   19      H      24.1270000000    16.8530000000    25.8240000000
   20      C      26.0550000000    16.1670000000    26.0160000000
   21      H      25.6950000000    15.4380000000    25.2680000000
   22      O      27.1560000000    16.2040000000    26.5370000000
   23      C      20.9520000000    19.2750000000    28.0750000000
   24      H      21.6150000000    19.2840000000    27.2060000000
   25      H      21.5160000000    19.3990000000    29.0030000000
   26      H      20.4370000000    18.3120000000    28.0410000000
   27      S      19.7930000000    20.6300000000    27.7830000000
   28      C      21.0340000000    21.9430000000    27.7360000000
   29      H      21.4150000000    22.1350000000    28.7420000000
   30      H      21.7790000000    21.5960000000    27.0170000000
   31      H      20.5380000000    22.8220000000    27.3160000000
   32      O      19.1760000000    20.9310000000    29.1140000000
   33      C      17.4470000000    26.4890000000    27.1950000000
   34      H      18.3570000000    27.0830000000    27.0780000000
   35      H      17.0340000000    26.3910000000    26.1880000000
   36      H      16.7440000000    26.9170000000    27.9140000000
   37      S      17.7690000000    24.8170000000    27.8010000000
   38      C      18.3890000000    25.2180000000    29.4500000000
   39      H      19.0910000000    24.4170000000    29.6980000000
   40      H      18.9220000000    26.1520000000    29.2570000000
   41      H      17.5080000000    25.3860000000    30.0750000000
   42      O      19.0610000000    24.5740000000    27.0850000000
   43      C      19.1610000000    19.9370000000    23.9790000000
   44      H      19.7910000000    19.0960000000    23.6760000000
   45      H      18.6500000000    19.8380000000    24.9400000000
   46      H      18.4590000000    20.0870000000    23.1550000000
   47      S      20.3470000000    21.2920000000    24.1290000000
   48      C      20.8070000000    21.2710000000    22.3820000000
   49      H      21.4440000000    22.0620000000    21.9780000000
   50      H      21.2720000000    20.3170000000    22.1200000000
   51      H      19.8500000000    21.2990000000    21.8540000000
   52      O      21.5320000000    20.6270000000    24.7570000000
   53      C      29.1950000000    17.4170000000    28.9830000000
   54      H      30.1440000000    17.1120000000    29.4330000000
   55      H      28.5640000000    17.7890000000    29.7940000000
   56      H      28.7750000000    16.6180000000    28.3670000000
   57      S      29.3890000000    18.7750000000    27.8080000000
   58      C      30.4160000000    17.7320000000    26.7480000000
   59      H      31.1050000000    17.0940000000    27.3070000000
   60      H      29.7800000000    17.1610000000    26.0670000000
   61      H      30.9870000000    18.5120000000    26.2380000000
   62      O      30.3420000000    19.6270000000    28.5870000000
   63      C      22.8180000000    24.6220000000    33.5390000000
   64      H      23.0190000000    23.5800000000    33.8020000000
   65      H      23.7180000000    25.1630000000    33.2370000000
   66      H      22.1640000000    25.0840000000    34.2830000000
   67      S      21.8890000000    24.4550000000    31.9990000000
   68      C      20.5440000000    23.4270000000    32.6300000000
   69      H      19.8990000000    24.0350000000    33.2690000000
   70      H      20.0310000000    23.1160000000    31.7160000000
   71      H      21.0370000000    22.6030000000    33.1520000000
   72      O      22.7170000000    23.6070000000    31.0850000000
   73      C      28.8750000000     8.9610000000    27.8860000000
   74      H      29.5490000000     8.3400000000    27.2900000000
   75      H      29.2210000000     9.0770000000    28.9160000000
   76      H      27.8810000000     8.5120000000    27.9450000000
   77      S      28.6360000000    10.4830000000    26.9410000000
   78      C      27.6050000000     9.7750000000    25.6370000000
   79      H      26.6330000000     9.6330000000    26.1170000000
   80      H      27.5960000000    10.4780000000    24.7990000000
   81      H      28.0950000000     8.8590000000    25.2970000000
   82      O      29.9140000000    11.0050000000    26.3610000000
   83      C      29.3350000000    22.5480000000    28.7700000000
   84      H      30.2190000000    22.4950000000    28.1300000000
   85      H      29.5280000000    23.0860000000    29.7020000000
   86      H      29.0440000000    21.5210000000    29.0040000000
   87      S      28.0020000000    23.1550000000    27.7120000000
   88      C      28.6070000000    24.8570000000    27.7670000000
   89      H      27.8060000000    25.4430000000    27.3070000000
   90      H      28.7310000000    25.1140000000    28.8220000000
   91      H      29.5640000000    24.9560000000    27.2470000000
   92      O      26.8460000000    23.3010000000    28.6520000000
   93      C      23.6500000000    19.6240000000    35.4300000000
   94      H      24.0580000000    20.4530000000    34.8460000000
   95      H      23.8800000000    18.7220000000    34.8570000000
   96      H      22.5710000000    19.7060000000    35.5780000000
   97      S      24.5640000000    19.5770000000    36.9880000000
   98      C      26.1410000000    19.2390000000    36.1720000000
   99      H      26.9190000000    18.9640000000    36.8890000000
  100      H      25.9040000000    18.4060000000    35.5060000000
  101      H      26.4410000000    20.1420000000    35.6350000000
  102      O      24.1310000000    18.1860000000    37.3340000000
  103      C      24.4100000000    14.8610000000    35.7160000000
  104      H      24.5660000000    15.9400000000    35.7930000000
  105      H      24.2240000000    14.3970000000    36.6880000000
  106      H      25.2090000000    14.4130000000    35.1190000000
  107      S      22.8940000000    14.6240000000    34.7610000000
  108      C      21.8180000000    15.3740000000    36.0030000000
  109      H      22.2180000000    15.1290000000    36.9900000000
  110      H      21.9190000000    16.4620000000    35.9630000000
  111      H      20.7720000000    15.0950000000    35.8480000000
  112      O      22.5950000000    13.1680000000    34.9350000000
  113      C      20.9420000000    17.3040000000    32.9570000000
  114      H      21.8430000000    17.5930000000    33.5040000000
  115      H      20.7690000000    16.3490000000    33.4580000000
  116      H      21.0380000000    17.1050000000    31.8860000000
  117      S      19.5350000000    18.2640000000    33.5590000000
  118      C      19.8550000000    19.6090000000    32.3970000000
  119      H      19.6010000000    19.3870000000    31.3570000000
  120      H      19.2900000000    20.4710000000    32.7600000000
  121      H      20.9300000000    19.8020000000    32.4510000000
  122      O      20.1900000000    18.7330000000    34.8210000000
  123      C      17.9310000000    17.6760000000    29.8450000000
  124      H      18.3540000000    16.9350000000    30.5300000000
  125      H      18.5300000000    18.5800000000    29.7080000000
  126      H      16.9970000000    18.0490000000    30.2710000000
  127      S      17.4820000000    16.7950000000    28.3330000000
  128      C      16.6220000000    15.4370000000    29.1580000000
  129      H      17.3620000000    14.8900000000    29.7480000000
  130      H      15.8580000000    15.7270000000    29.8840000000
  131      H      16.2030000000    14.7390000000    28.4280000000
  132      O      18.8220000000    16.2890000000    27.8980000000
  133      C      25.1700000000    20.6400000000    32.3940000000
  134      H      24.1200000000    20.3420000000    32.4430000000
  135      H      25.7270000000    20.4080000000    31.4820000000
  136      H      25.7460000000    20.1280000000    33.1690000000
  137      S      25.5030000000    22.3730000000    32.7830000000
  138      C      27.1360000000    22.5720000000    32.0350000000
  139      H      27.3810000000    23.6320000000    31.9290000000
  140      H      27.9430000000    22.0850000000    32.5880000000
  141      H      27.1610000000    22.1140000000    31.0430000000
  142      O      25.8330000000    22.3010000000    34.2420000000
  143      C      28.0020000000    14.3260000000    22.0730000000
  144      H      27.2710000000    13.5760000000    22.3860000000
  145      H      27.6320000000    15.2810000000    22.4530000000
  146      H      28.0690000000    14.3380000000    20.9820000000
  147      S      29.6340000000    13.9250000000    22.7380000000
  148      C      29.1940000000    14.1310000000    24.4780000000
  149      H      29.9700000000    13.6990000000    25.1150000000
  150      H      29.1460000000    15.1640000000    24.8300000000
  151      H      28.1800000000    13.7650000000    24.6600000000
  152      O      30.4370000000    15.1740000000    22.5450000000
  153      C      31.1980000000    12.4900000000    29.0980000000
  154      H      31.8760000000    13.2520000000    28.7060000000
  155      H      31.5540000000    12.0570000000    30.0360000000
  156      H      31.0750000000    11.6880000000    28.3660000000
  157      S      29.5570000000    13.1330000000    29.4970000000
  158      C      29.2040000000    13.9860000000    27.9440000000
  159      H      29.3570000000    13.2160000000    27.1830000000
  160      H      28.2240000000    14.4690000000    27.9760000000
  161      H      29.9920000000    14.7080000000    27.7140000000
  162      O      29.8120000000    14.2510000000    30.4590000000
  163      C      25.3310000000    16.7970000000    18.1330000000
  164      H      25.8660000000    17.3050000000    18.9400000000
  165      H      25.4890000000    17.3890000000    17.2270000000
  166      H      24.3270000000    16.6740000000    18.5480000000
  167      S      26.1890000000    15.2270000000    17.8840000000
  168      C      25.4270000000    14.3400000000    19.2610000000
  169      H      25.6930000000    13.2980000000    19.0660000000
  170      H      25.8230000000    14.8110000000    20.1640000000
  171      H      24.3550000000    14.5540000000    19.2440000000
  172      O      27.5450000000    15.3640000000    18.5040000000
  173      C      26.4970000000    27.7430000000    24.4620000000
  174      H      25.8030000000    27.2530000000    23.7740000000
  175      H      26.3130000000    27.5260000000    25.5170000000
  176      H      26.3350000000    28.8040000000    24.2540000000
  177      S      28.1790000000    27.1350000000    24.2040000000
  178      C      27.6130000000    25.4220000000    24.1070000000
  179      H      27.1240000000    25.1310000000    23.1740000000
  180      H      28.5140000000    24.8610000000    24.3690000000
  181      H      27.0330000000    25.2930000000    25.0250000000
  182      O      28.8570000000    27.2740000000    25.5320000000
  183      C      30.8360000000    18.1130000000    33.2180000000
  184      H      30.2990000000    17.2030000000    33.4960000000
  185      H      30.6330000000    18.3450000000    32.1690000000
  186      H      31.9040000000    17.9040000000    33.3120000000
  187      S      30.2390000000    19.2940000000    34.4490000000
  188      C      30.8760000000    18.5420000000    35.9630000000
  189      H      30.4960000000    17.5250000000    36.0860000000
  190      H      31.9480000000    18.3670000000    35.8400000000
  191      H      30.7660000000    19.1770000000    36.8460000000
  192      O      28.7900000000    19.0060000000    34.6860000000
  193      C      23.8970000000    24.0820000000    27.9970000000
  194      H      24.4160000000    23.2110000000    28.4050000000
  195      H      22.9850000000    24.2320000000    28.5800000000
  196      H      23.6170000000    23.9150000000    26.9540000000
  197      S      24.8930000000    25.5790000000    27.8140000000
  198      C      24.0600000000    26.4770000000    29.1420000000
  199      H      24.1220000000    27.5590000000    29.0000000000
  200      H      23.0090000000    26.1800000000    29.1860000000
  201      H      24.5300000000    26.0700000000    30.0410000000
  202      O      24.3330000000    26.2250000000    26.5850000000
  203      C      20.2380000000    18.4010000000    20.2770000000
  204      H      21.1060000000    18.7000000000    20.8710000000
  205      H      20.5010000000    18.2050000000    19.2340000000
  206      H      19.4430000000    19.1500000000    20.2500000000
  207      S      19.6420000000    16.8580000000    21.0060000000
  208      C      18.2640000000    16.8290000000    19.8370000000
  209      H      17.5640000000    16.0360000000    20.1120000000
  210      H      17.7720000000    17.8040000000    19.8900000000
  211      H      18.6770000000    16.6850000000    18.8360000000
  212      O      18.9810000000    17.2440000000    22.2930000000
  213      C      23.5780000000    18.7270000000    23.0660000000
  214      H      24.3040000000    19.4550000000    23.4380000000
  215      H      22.8560000000    19.2280000000    22.4170000000
  216      H      23.0590000000    18.2790000000    23.9170000000
  217      S      24.4980000000    17.5470000000    22.0520000000
  218      C      23.1600000000    16.5330000000    21.3840000000
  219      H      22.3130000000    16.6040000000    22.0720000000
  220      H      22.8710000000    16.9040000000    20.3980000000
  221      H      23.4950000000    15.5020000000    21.2440000000
  222      O      25.0220000000    16.6440000000    23.1240000000
  223      C      22.9880000000    25.4130000000    23.6540000000
  224      H      23.9320000000    25.9610000000    23.5910000000
  225      H      22.3060000000    25.9700000000    23.0070000000
  226      H      22.5180000000    25.3910000000    24.6410000000
  227      S      23.2410000000    23.7540000000    22.9860000000
  228      C      23.7630000000    23.0510000000    24.5670000000
  229      H      24.5560000000    23.6610000000    25.0080000000
  230      H      22.9270000000    22.8810000000    25.2510000000
  231      H      24.3220000000    22.1430000000    24.3270000000
  232      O      24.5490000000    23.8460000000    22.2640000000
  233      C      21.0740000000    14.8300000000    29.9610000000
  234      H      21.8530000000    14.8990000000    30.7240000000
  235      H      20.7220000000    15.8510000000    29.7940000000
  236      H      20.1720000000    14.3440000000    30.3420000000
  237      S      21.9550000000    14.0500000000    28.5890000000
  238      C      20.4260000000    13.4070000000    27.8700000000
  239      H      19.8070000000    14.2020000000    27.4490000000
  240      H      20.6600000000    12.8150000000    26.9820000000
  241      H      19.8720000000    12.7930000000    28.5850000000
  242      O      22.6690000000    12.8730000000    29.1770000000
  243      C      28.7570000000    17.7040000000    21.0880000000
  244      H      29.5840000000    18.1630000000    21.6350000000
  245      H      27.8730000000    17.7940000000    21.7240000000
  246      H      28.9710000000    16.6370000000    20.9860000000
  247      S      28.4820000000    18.3840000000    19.4360000000
  248      C      30.2410000000    18.4940000000    19.0380000000
  249      H      30.7910000000    18.9250000000    19.8790000000
  250      H      30.5180000000    17.4540000000    18.8500000000
  251      H      30.3210000000    19.1000000000    18.1320000000
  252      O      28.1360000000    19.8370000000    19.5260000000
  253      C      27.9150000000    16.1670000000    31.9830000000
  254      H      28.7120000000    16.9140000000    31.9490000000
  255      H      28.3340000000    15.1570000000    32.0060000000
  256      H      27.2390000000    16.3210000000    31.1380000000
  257      S      27.0510000000    16.6390000000    33.4980000000
  258      C      28.0950000000    15.8040000000    34.7140000000
  259      H      28.4270000000    14.8540000000    34.2860000000
  260      H      29.0310000000    16.3560000000    34.8260000000
  261      H      27.5900000000    15.5570000000    35.6520000000
  262      O      25.8180000000    15.8070000000    33.3340000000
  263      C      28.4740000000    19.8050000000    24.0000000000
  264      H      28.8100000000    19.4970000000    24.9930000000
  265      H      27.7450000000    19.0880000000    23.6120000000
  266      H      29.2860000000    20.0030000000    23.2950000000
  267      S      27.6360000000    21.4050000000    24.0310000000
  268      C      27.2010000000    21.4690000000    22.2780000000
  269      H      26.8910000000    22.4960000000    22.0730000000
  270      H      28.0570000000    21.1590000000    21.6740000000
  271      H      26.4150000000    20.7240000000    22.1270000000
  272      O      28.7450000000    22.4030000000    24.1610000000
  273      C      33.0150000000    14.7790000000    24.3490000000
  274      H      33.4780000000    14.3410000000    23.4610000000
  275      H      32.0490000000    14.2910000000    24.5020000000
  276      H      32.8940000000    15.8490000000    24.1600000000
  277      S      33.9230000000    14.4750000000    25.8810000000
  278      C      33.4590000000    12.7480000000    26.1370000000
  279      H      33.8370000000    12.4100000000    27.1050000000
  280      H      32.3750000000    12.6170000000    26.0940000000
  281      H      33.9270000000    12.1920000000    25.3200000000
  282      O      33.0910000000    15.1130000000    26.9500000000
  283      C      25.4750000000    13.8730000000    30.1870000000
  284      H      26.4720000000    14.3010000000    30.3200000000
  285      H      25.0890000000    13.9320000000    29.1660000000
  286      H      24.7520000000    14.3680000000    30.8400000000
  287      S      25.5930000000    12.1630000000    30.7620000000
  288      C      26.1680000000    12.4580000000    32.4490000000
  289      H      26.3680000000    11.4970000000    32.9290000000
  290      H      27.1170000000    12.9970000000    32.3900000000
  291      H      25.3070000000    12.9600000000    32.8980000000
  292      O      26.7960000000    11.6020000000    30.0700000000
  293      C      25.0740000000    20.6050000000    17.7210000000
  294      H      25.8240000000    20.1080000000    18.3410000000
  295      H      24.9330000000    20.0980000000    16.7630000000
  296      H      25.4360000000    21.6330000000    17.6460000000
  297      S      23.5310000000    20.6950000000    18.6570000000
  298      C      24.2540000000    21.3780000000    20.1650000000
  299      H      23.9150000000    20.9670000000    21.1200000000
  300      H      25.3410000000    21.4180000000    20.0620000000
  301      H      23.9590000000    22.4240000000    20.2790000000
  302      O      23.3340000000    19.2690000000    19.0680000000
  303      C      25.3530000000    12.6980000000    26.4930000000
  304      H      25.3490000000    11.8760000000    27.2140000000
  305      H      26.3180000000    12.9480000000    26.0450000000
  306      H      24.8160000000    13.5420000000    26.9330000000
  307      S      24.4260000000    12.3330000000    24.9860000000
  308      C      23.0480000000    11.4870000000    25.7930000000
  309      H      23.3200000000    10.4410000000    25.9550000000
  310      H      22.8920000000    11.9570000000    26.7670000000
  311      H      22.1410000000    11.5860000000    25.1900000000
  312      O      25.2190000000    11.2500000000    24.3230000000
  313      C      20.5270000000    16.8940000000    25.3550000000
  314      H      19.7800000000    17.2090000000    24.6210000000
  315      H      20.1170000000    16.2370000000    26.1260000000
  316      H      21.0260000000    17.7190000000    25.8690000000
  317      S      21.7980000000    15.8230000000    24.6460000000
  318      C      20.6460000000    14.4810000000    24.2760000000
  319      H      19.8550000000    14.8110000000    23.5980000000
  320      H      21.3380000000    13.7250000000    23.8950000000
  321      H      20.2090000000    14.0700000000    25.1900000000
  322      O      22.5990000000    15.3070000000    25.8010000000
 ----------------------------------------------------------------
 Nuclear Repulsion Energy =       57020.89686995 hartrees
 There are      665 alpha and      665 beta electrons
 Requested basis set is 6-31+G(d)
 There are 1061 shells and 2957 basis functions

 Total QAlloc Memory Limit  16000 MB
 Mega-Array Size      7821 MB
 MEM_STATIC part      8000 MB
 A cutoff of  1.0D-14 yielded 205152 shell pairs
 There are   1785829 function pairs
 Smallest overlap matrix eigenvalue = 4.66E-07
 Linear dependence detected in AO basis
 Tighter screening thresholds may be required for diffuse basis sets
 Use S2THRESH > 14 and THRESH = 14 in case of SCF convergence issues
 Number of orthogonalized atomic orbitals = 2955
 Maximum deviation from orthogonality = 1.575E-10

 Scale SEOQF with 1.000000e-03/1.000000e-03/1.000000e-03

 Standard Electronic Orientation quadrupole field applied
 Nucleus-field energy     =    -0.0000004498 hartrees
Attempting to make child job directory: /local/scratch/users/ymao/r7.00_frame_0024_almo_B3LYP_dp.in20210311133729//Frg1/
Attempting to make child job directory: /local/scratch/users/ymao/r7.00_frame_0024_almo_B3LYP_dp.in20210311133729//Frg2/
Creating input file /local/scratch/users/ymao/r7.00_frame_0024_almo_B3LYP_dp.in20210311133729/Frg1.input
using default PutDataFrgm: nothing
calling putenv with: QCSCRATCH=/local/scratch/users/ymao/r7.00_frame_0024_almo_B3LYP_dp.in20210311133729/ 
Spawning Job For Fragment 0
Done Job For Fragment 0
calling putenv with: QCSCRATCH=/local/scratch/users/ymao 
calling putenv with: QCTHREADS=8 
Creating input file /local/scratch/users/ymao/r7.00_frame_0024_almo_B3LYP_dp.in20210311133729/Frg2.input
using default PutDataFrgm: nothing
calling putenv with: QCSCRATCH=/local/scratch/users/ymao/r7.00_frame_0024_almo_B3LYP_dp.in20210311133729/ 
Spawning Job For Fragment 1
Done Job For Fragment 1
calling putenv with: QCSCRATCH=/local/scratch/users/ymao 
calling putenv with: QCTHREADS=8 
 Time for running child jobs:  CPU 1.02 s  wall 32277.39 s

 -----------------------------------------------------------------------
  General SCF calculation program by
  Eric Jon Sundstrom, Paul Horn, Yuezhi Mao, Dmitri Zuev, Alec White,
  David Stuck, Shaama M.S., Shane Yost, Joonho Lee, David Small,
  Daniel Levine, Susi Lehtola, Hugh Burton, Evgeny Epifanovsky,
  Bang C. Huynh
 -----------------------------------------------------------------------
Performing Restricted Closed Shell SCFMI
Doing General SCFMI
 Exchange:     0.2000 Hartree-Fock + 0.0800 Slater + 0.7200 B88
 Correlation:  0.1900 VWN1RPA + 0.8100 LYP
 Using Euler-Maclaurin-Lebedev (75,302) quadrature formula
performing fock build before subrot guess so that all methods have access
Printing subrot_rss_gen Method Specification:
Occupied Subspace Method is 0
Virtual Subspace Method is 0
Energy prior to optimization (guess energy) = -17000.278032091453
Begin Timing: Total SCF Calculation
begin iterations for algorithm: DIIS         
the SCF tolerance is set to 1.00e-08
    1  -17000.2780320915      4.98e-05     00000 
    2  -17000.2758275101      7.40e-05     00000 
    3  -17000.2931664714      1.95e-05     00000 
    4  -17000.2942727145      7.26e-06     00000 
    5  -17000.2944671794      2.52e-06     00000 
    6  -17000.2944857398      1.91e-06     00000 
    7  -17000.2944965638      1.11e-06     00000 
    8  -17000.2945005054      5.93e-07     00000 
    9  -17000.2945016274      3.09e-07     00000 
   10  -17000.2945018101      2.44e-07     00000 
   11  -17000.2945019530      1.44e-07     00000 
   12  -17000.2945020133      7.63e-08     00000 
   13  -17000.2945020290      4.77e-08     00000 
   14  -17000.2945020352      3.07e-08     00000 
   15  -17000.2945020371      2.15e-08     00000 
   16  -17000.2945020387      9.46e-09     00000 Convergence criterion met
write pseudocanon occs and virts to disk
write pseudocanon orbital energies to disk
Timing for Total SCF: 62171.00s (wall), 495247.62s (cpu)
SCFMI Energy  -17000.2945020387
<S^2>            0.00000
 Total energy in the final basis set =   -17000.2945020387
    ==================================================
        The end of Object-Oriented SCFman: SCFMI      
    ==================================================
 
 --------------------------------------------------------------
 
                    Orbital Energies (a.u.)
 --------------------------------------------------------------
 
 Alpha MOs
 -- Occupied --
-89.0382 -89.0330 -89.0262 -89.0159 -89.0145 -89.0143 -89.0107 -89.0066
-89.0048 -89.0046 -89.0042 -89.0016 -89.0010 -88.9963 -88.9898 -88.9880
-88.9865 -88.9828 -88.9818 -88.9813 -88.9778 -88.9770 -88.9762 -88.9758
-88.9724 -88.9675 -88.9664 -88.9591 -88.9587 -88.9587 -19.1571 -19.1486
-19.1392 -19.1342 -19.1265 -19.1254 -19.1252 -19.1220 -19.1211 -19.1189
-19.1182 -19.1168 -19.1156 -19.1138 -19.1111 -19.1100 -19.1075 -19.1035
-19.0986 -19.0970 -19.0945 -19.0934 -19.0933 -19.0906 -19.0904 -19.0879
-19.0871 -19.0798 -19.0762 -19.0725 -19.0703 -14.3517 -10.2796 -10.2526
-10.2506 -10.2487 -10.2407 -10.2400 -10.2359 -10.2354 -10.2349 -10.2320
-10.2319 -10.2316 -10.2299 -10.2277 -10.2248 -10.2241 -10.2214 -10.2212
-10.2201 -10.2194 -10.2193 -10.2184 -10.2158 -10.2145 -10.2122 -10.2116
-10.2113 -10.2106 -10.2101 -10.2081 -10.2075 -10.2068 -10.2066 -10.2024
-10.2016 -10.2015 -10.2014 -10.2008 -10.2005 -10.2004 -10.2000 -10.1981
-10.1981 -10.1974 -10.1949 -10.1937 -10.1892 -10.1876 -10.1858 -10.1847
-10.1843 -10.1832 -10.1829 -10.1814 -10.1814 -10.1811 -10.1806 -10.1806
-10.1802 -10.1798 -10.1776 -10.1760 -10.1757 -10.1756 -10.1753 -10.1753
-10.1700  -8.0843  -8.0785  -8.0718  -8.0619  -8.0612  -8.0598  -8.0567
 -8.0527  -8.0511  -8.0508  -8.0503  -8.0476  -8.0476  -8.0412  -8.0353
 -8.0340  -8.0326  -8.0286  -8.0285  -8.0275  -8.0244  -8.0230  -8.0228
 -8.0216  -8.0187  -8.0141  -8.0129  -8.0053  -8.0049  -8.0045  -6.0487
 -6.0472  -6.0430  -6.0419  -6.0417  -6.0363  -6.0359  -6.0349  -6.0293
 -6.0264  -6.0255  -6.0249  -6.0243  -6.0242  -6.0231  -6.0210  -6.0197
 -6.0194  -6.0187  -6.0172  -6.0170  -6.0156  -6.0152  -6.0148  -6.0148
 -6.0142  -6.0141  -6.0139  -6.0132  -6.0120  -6.0119  -6.0109  -6.0107
 -6.0104  -6.0086  -6.0086  -6.0079  -6.0055  -6.0048  -6.0048  -6.0045
 -5.9997  -5.9986  -5.9985  -5.9985  -5.9970  -5.9969  -5.9957  -5.9930
 -5.9929  -5.9928  -5.9919  -5.9917  -5.9916  -5.9913  -5.9908  -5.9900
 -5.9891  -5.9874  -5.9874  -5.9870  -5.9861  -5.9860  -5.9859  -5.9858
 -5.9856  -5.9847  -5.9847  -5.9830  -5.9814  -5.9811  -5.9806  -5.9803
 -5.9786  -5.9783  -5.9771  -5.9770  -5.9763  -5.9758  -5.9716  -5.9708
 -5.9696  -5.9693  -5.9691  -5.9683  -5.9680  -5.9677  -5.9629  -5.9620
 -5.9615  -1.0655  -1.0586  -1.0521  -1.0431  -1.0396  -1.0373  -1.0370
 -1.0346  -1.0323  -1.0312  -1.0298  -1.0296  -1.0265  -1.0237  -1.0217
 -1.0164  -1.0132  -1.0128  -1.0109  -1.0062  -1.0057  -1.0056  -1.0046
 -1.0025  -1.0017  -1.0011  -0.9959  -0.9884  -0.9881  -0.9855  -0.9827
 -0.9167  -0.8436  -0.8321  -0.8266  -0.8249  -0.8158  -0.8144  -0.8137
 -0.8105  -0.8099  -0.8070  -0.8016  -0.7999  -0.7995  -0.7986  -0.7972
 -0.7943  -0.7916  -0.7912  -0.7886  -0.7829  -0.7807  -0.7797  -0.7788
 -0.7787  -0.7776  -0.7738  -0.7693  -0.7644  -0.7623  -0.7606  -0.7598
 -0.7580  -0.7557  -0.7505  -0.7483  -0.7475  -0.7448  -0.7387  -0.7376
 -0.7373  -0.7368  -0.7347  -0.7331  -0.7280  -0.7249  -0.7238  -0.7236
 -0.7180  -0.7156  -0.7136  -0.7131  -0.7129  -0.7121  -0.7101  -0.7099
 -0.7033  -0.6961  -0.6948  -0.6937  -0.6916  -0.6911  -0.6873  -0.6833
 -0.6520  -0.6466  -0.6393  -0.6311  -0.6275  -0.6272  -0.6258  -0.6210
 -0.6185  -0.6179  -0.6174  -0.6173  -0.6143  -0.6135  -0.6125  -0.6105
 -0.6050  -0.6004  -0.5977  -0.5971  -0.5948  -0.5929  -0.5920  -0.5917
 -0.5915  -0.5875  -0.5848  -0.5827  -0.5801  -0.5792  -0.5730  -0.5696
 -0.5690  -0.5610  -0.5236  -0.5205  -0.5111  -0.5099  -0.5080  -0.5031
 -0.5002  -0.5001  -0.4977  -0.4953  -0.4946  -0.4935  -0.4910  -0.4905
 -0.4904  -0.4901  -0.4882  -0.4869  -0.4863  -0.4834  -0.4824  -0.4813
 -0.4800  -0.4795  -0.4786  -0.4785  -0.4770  -0.4761  -0.4758  -0.4749
 -0.4740  -0.4733  -0.4722  -0.4715  -0.4712  -0.4706  -0.4699  -0.4698
 -0.4693  -0.4684  -0.4682  -0.4678  -0.4675  -0.4666  -0.4662  -0.4656
 -0.4654  -0.4638  -0.4630  -0.4617  -0.4606  -0.4595  -0.4586  -0.4583
 -0.4579  -0.4576  -0.4570  -0.4568  -0.4559  -0.4555  -0.4548  -0.4547
 -0.4534  -0.4523  -0.4517  -0.4512  -0.4503  -0.4499  -0.4490  -0.4488
 -0.4487  -0.4479  -0.4473  -0.4469  -0.4466  -0.4465  -0.4460  -0.4453
 -0.4446  -0.4441  -0.4439  -0.4434  -0.4428  -0.4418  -0.4417  -0.4409
 -0.4398  -0.4394  -0.4385  -0.4379  -0.4376  -0.4370  -0.4361  -0.4344
 -0.4342  -0.4333  -0.4333  -0.4323  -0.4322  -0.4310  -0.4299  -0.4297
 -0.4287  -0.4281  -0.4277  -0.4272  -0.4269  -0.4256  -0.4255  -0.4249
 -0.4247  -0.4245  -0.4242  -0.4241  -0.4231  -0.4226  -0.4217  -0.4205
 -0.4199  -0.4198  -0.4191  -0.4187  -0.4183  -0.4175  -0.4172  -0.4163
 -0.4159  -0.4154  -0.4147  -0.4143  -0.4131  -0.4129  -0.4121  -0.4118
 -0.4089  -0.4088  -0.4072  -0.4064  -0.4061  -0.4059  -0.4054  -0.4052
 -0.4050  -0.4038  -0.4032  -0.4017  -0.4015  -0.4001  -0.3995  -0.3993
 -0.3987  -0.3980  -0.3974  -0.3963  -0.3959  -0.3955  -0.3931  -0.3917
 -0.3913  -0.3908  -0.3905  -0.3898  -0.3896  -0.3885  -0.3879  -0.3873
 -0.3869  -0.3868  -0.3864  -0.3856  -0.3845  -0.3836  -0.3832  -0.3818
 -0.3815  -0.3812  -0.3802  -0.3792  -0.3780  -0.3762  -0.3760  -0.3759
 -0.3755  -0.3749  -0.3743  -0.3723  -0.3716  -0.3700  -0.3695  -0.3689
 -0.3680  -0.3664  -0.3658  -0.3650  -0.3646  -0.3640  -0.3610  -0.3606
 -0.3588  -0.3586  -0.3583  -0.3580  -0.3573  -0.3558  -0.3547  -0.3522
 -0.3489  -0.3485  -0.3470  -0.3453  -0.3440  -0.3438  -0.3425  -0.3411
 -0.3391  -0.3383  -0.3365  -0.3307  -0.3301  -0.3262  -0.3251  -0.3236
 -0.3221  -0.3146  -0.3116  -0.3099  -0.3020  -0.2974  -0.2953  -0.2881
 -0.2870  -0.2868  -0.2825  -0.2815  -0.2809  -0.2782  -0.2771  -0.2768
 -0.2748  -0.2737  -0.2737  -0.2706  -0.2685  -0.2675  -0.2643  -0.2633
 -0.2598  -0.2597  -0.2586  -0.2578  -0.2566  -0.2561  -0.2538  -0.2526
 -0.2516  -0.2507  -0.2494  -0.2482  -0.2478  -0.2477  -0.2468  -0.2465
 -0.2454  -0.2436  -0.2431  -0.2409  -0.2390  -0.2364  -0.2349  -0.2321
 -0.2314  -0.2283  -0.2282  -0.2276  -0.2236  -0.2219  -0.2200  -0.2197
 -0.2189  -0.2183  -0.2174  -0.2128  -0.2109  -0.2063  -0.2061  -0.2001
 -0.1917
 -- Virtual --
 -0.0368  -0.0365  -0.0320  -0.0276  -0.0264  -0.0255  -0.0237  -0.0208
 -0.0193  -0.0181  -0.0172  -0.0164  -0.0154  -0.0145  -0.0129  -0.0116
 -0.0096  -0.0094  -0.0068  -0.0060  -0.0048  -0.0041  -0.0032  -0.0012
 -0.0002   0.0006   0.0013   0.0028   0.0040   0.0050   0.0060   0.0063
  0.0073   0.0078   0.0085   0.0099   0.0104   0.0117   0.0123   0.0125
  0.0130   0.0135   0.0145   0.0146   0.0151   0.0157   0.0163   0.0172
  0.0182   0.0185   0.0192   0.0192   0.0206   0.0208   0.0211   0.0217
  0.0229   0.0234   0.0242   0.0246   0.0251   0.0259   0.0267   0.0271
  0.0274   0.0280   0.0295   0.0300   0.0302   0.0308   0.0310   0.0317
  0.0320   0.0322   0.0334   0.0340   0.0345   0.0352   0.0355   0.0361
  0.0369   0.0375   0.0378   0.0386   0.0396   0.0397   0.0401   0.0411
  0.0415   0.0418   0.0427   0.0434   0.0441   0.0443   0.0451   0.0459
  0.0465   0.0466   0.0473   0.0481   0.0486   0.0491   0.0500   0.0508
  0.0513   0.0515   0.0519   0.0522   0.0528   0.0531   0.0544   0.0548
  0.0550   0.0553   0.0559   0.0561   0.0569   0.0575   0.0593   0.0594
  0.0598   0.0611   0.0618   0.0620   0.0626   0.0630   0.0642   0.0642
  0.0649   0.0656   0.0662   0.0664   0.0673   0.0676   0.0683   0.0687
  0.0696   0.0700   0.0706   0.0711   0.0715   0.0720   0.0725   0.0731
  0.0738   0.0744   0.0746   0.0749   0.0762   0.0769   0.0770   0.0776
  0.0782   0.0784   0.0792   0.0798   0.0803   0.0806   0.0815   0.0821
  0.0828   0.0830   0.0843   0.0844   0.0853   0.0858   0.0860   0.0864
  0.0871   0.0875   0.0883   0.0891   0.0901   0.0905   0.0915   0.0922
  0.0924   0.0930   0.0941   0.0947   0.0952   0.0954   0.0962   0.0968
  0.0974   0.0977   0.0985   0.0990   0.0993   0.0998   0.1003   0.1004
  0.1010   0.1022   0.1026   0.1036   0.1047   0.1050   0.1056   0.1062
  0.1073   0.1077   0.1085   0.1089   0.1094   0.1097   0.1100   0.1110
  0.1119   0.1126   0.1129   0.1133   0.1141   0.1143   0.1152   0.1159
  0.1165   0.1168   0.1179   0.1184   0.1188   0.1191   0.1196   0.1197
  0.1206   0.1214   0.1216   0.1220   0.1226   0.1232   0.1239   0.1246
  0.1255   0.1258   0.1262   0.1264   0.1270   0.1279   0.1282   0.1293
  0.1295   0.1302   0.1307   0.1318   0.1321   0.1323   0.1332   0.1337
  0.1340   0.1344   0.1352   0.1356   0.1362   0.1375   0.1382   0.1385
  0.1388   0.1392   0.1395   0.1402   0.1408   0.1414   0.1427   0.1429
  0.1433   0.1435   0.1441   0.1444   0.1452   0.1454   0.1459   0.1468
  0.1475   0.1477   0.1488   0.1493   0.1497   0.1502   0.1507   0.1511
  0.1517   0.1525   0.1534   0.1539   0.1541   0.1544   0.1552   0.1557
  0.1558   0.1565   0.1572   0.1578   0.1582   0.1587   0.1590   0.1599
  0.1609   0.1611   0.1621   0.1624   0.1627   0.1636   0.1646   0.1650
  0.1656   0.1664   0.1666   0.1672   0.1680   0.1691   0.1692   0.1698
  0.1702   0.1705   0.1710   0.1713   0.1725   0.1730   0.1739   0.1744
  0.1745   0.1747   0.1754   0.1757   0.1766   0.1767   0.1774   0.1777
  0.1780   0.1790   0.1798   0.1804   0.1807   0.1808   0.1812   0.1819
  0.1823   0.1825   0.1833   0.1835   0.1849   0.1854   0.1860   0.1863
  0.1868   0.1879   0.1884   0.1885   0.1890   0.1899   0.1901   0.1909
  0.1915   0.1919   0.1925   0.1931   0.1934   0.1939   0.1946   0.1950
  0.1953   0.1960   0.1967   0.1975   0.1981   0.1983   0.1988   0.1992
  0.1999   0.2007   0.2013   0.2016   0.2022   0.2029   0.2039   0.2041
  0.2046   0.2053   0.2057   0.2061   0.2068   0.2069   0.2075   0.2084
  0.2087   0.2091   0.2101   0.2104   0.2108   0.2114   0.2121   0.2122
  0.2132   0.2136   0.2140   0.2143   0.2143   0.2149   0.2153   0.2165
  0.2172   0.2176   0.2179   0.2188   0.2195   0.2202   0.2203   0.2210
  0.2212   0.2224   0.2229   0.2236   0.2244   0.2245   0.2254   0.2258
  0.2262   0.2275   0.2283   0.2284   0.2291   0.2295   0.2303   0.2307
  0.2312   0.2317   0.2322   0.2329   0.2333   0.2340   0.2351   0.2354
  0.2358   0.2365   0.2370   0.2371   0.2373   0.2392   0.2394   0.2396
  0.2408   0.2413   0.2418   0.2424   0.2429   0.2434   0.2444   0.2454
  0.2460   0.2466   0.2468   0.2478   0.2486   0.2493   0.2498   0.2501
  0.2507   0.2512   0.2516   0.2518   0.2526   0.2531   0.2549   0.2552
  0.2557   0.2567   0.2574   0.2578   0.2584   0.2587   0.2598   0.2604
  0.2608   0.2615   0.2617   0.2629   0.2629   0.2634   0.2640   0.2645
  0.2657   0.2659   0.2664   0.2678   0.2679   0.2686   0.2700   0.2700
  0.2708   0.2708   0.2724   0.2730   0.2734   0.2740   0.2745   0.2758
  0.2760   0.2764   0.2772   0.2780   0.2784   0.2788   0.2796   0.2805
  0.2814   0.2820   0.2822   0.2833   0.2843   0.2852   0.2863   0.2867
  0.2874   0.2876   0.2882   0.2894   0.2898   0.2904   0.2913   0.2917
  0.2928   0.2939   0.2944   0.2948   0.2959   0.2959   0.2967   0.2977
  0.2982   0.2994   0.3002   0.3004   0.3011   0.3019   0.3031   0.3036
  0.3042   0.3050   0.3056   0.3068   0.3074   0.3080   0.3087   0.3093
  0.3102   0.3109   0.3120   0.3128   0.3135   0.3143   0.3151   0.3157
  0.3163   0.3169   0.3178   0.3184   0.3191   0.3205   0.3207   0.3216
  0.3228   0.3244   0.3252   0.3257   0.3261   0.3267   0.3269   0.3278
  0.3281   0.3290   0.3294   0.3297   0.3309   0.3317   0.3325   0.3337
  0.3352   0.3358   0.3368   0.3372   0.3382   0.3384   0.3392   0.3399
  0.3403   0.3409   0.3414   0.3430   0.3432   0.3439   0.3452   0.3457
  0.3460   0.3465   0.3476   0.3488   0.3494   0.3506   0.3510   0.3518
  0.3525   0.3533   0.3539   0.3542   0.3556   0.3566   0.3569   0.3583
  0.3593   0.3603   0.3610   0.3611   0.3616   0.3618   0.3634   0.3640
  0.3654   0.3658   0.3676   0.3678   0.3683   0.3689   0.3698   0.3700
  0.3709   0.3718   0.3725   0.3731   0.3745   0.3750   0.3755   0.3768
  0.3774   0.3781   0.3789   0.3797   0.3807   0.3817   0.3821   0.3828
  0.3831   0.3842   0.3848   0.3860   0.3863   0.3871   0.3881   0.3885
  0.3891   0.3894   0.3902   0.3912   0.3921   0.3932   0.3949   0.3955
  0.3958   0.3961   0.3976   0.3982   0.3990   0.4000   0.4003   0.4013
  0.4021   0.4024   0.4042   0.4049   0.4052   0.4060   0.4071   0.4075
  0.4083   0.4088   0.4095   0.4104   0.4117   0.4121   0.4126   0.4136
  0.4139   0.4146   0.4156   0.4172   0.4176   0.4183   0.4191   0.4207
  0.4213   0.4218   0.4226   0.4241   0.4253   0.4260   0.4265   0.4270
  0.4275   0.4276   0.4300   0.4311   0.4318   0.4323   0.4337   0.4347
  0.4350   0.4367   0.4373   0.4376   0.4380   0.4390   0.4400   0.4416
  0.4431   0.4441   0.4452   0.4462   0.4469   0.4478   0.4492   0.4494
  0.4504   0.4515   0.4522   0.4531   0.4534   0.4544   0.4549   0.4558
  0.4568   0.4577   0.4593   0.4601   0.4616   0.4618   0.4633   0.4641
  0.4654   0.4658   0.4669   0.4675   0.4691   0.4698   0.4724   0.4735
  0.4744   0.4749   0.4754   0.4769   0.4778   0.4791   0.4799   0.4812
  0.4834   0.4851   0.4867   0.4875   0.4879   0.4897   0.4906   0.4919
  0.4938   0.4955   0.4963   0.4973   0.4987   0.4995   0.5002   0.5014
  0.5020   0.5045   0.5058   0.5067   0.5092   0.5101   0.5112   0.5121
  0.5144   0.5149   0.5178   0.5185   0.5193   0.5207   0.5212   0.5232
  0.5248   0.5259   0.5265   0.5280   0.5295   0.5302   0.5318   0.5344
  0.5368   0.5374   0.5381   0.5385   0.5413   0.5416   0.5430   0.5450
  0.5454   0.5462   0.5498   0.5514   0.5520   0.5530   0.5553   0.5557
  0.5563   0.5584   0.5605   0.5622   0.5640   0.5659   0.5665   0.5672
  0.5683   0.5693   0.5703   0.5716   0.5726   0.5729   0.5744   0.5757
  0.5765   0.5782   0.5799   0.5819   0.5823   0.5830   0.5846   0.5854
  0.5857   0.5870   0.5888   0.5896   0.5905   0.5913   0.5930   0.5935
  0.5948   0.5961   0.5978   0.5984   0.5990   0.6000   0.6016   0.6027
  0.6046   0.6050   0.6063   0.6071   0.6101   0.6116   0.6127   0.6143
  0.6148   0.6161   0.6170   0.6180   0.6197   0.6211   0.6218   0.6240
  0.6250   0.6254   0.6274   0.6275   0.6285   0.6318   0.6323   0.6329
  0.6335   0.6346   0.6352   0.6373   0.6384   0.6394   0.6404   0.6419
  0.6430   0.6442   0.6464   0.6470   0.6474   0.6486   0.6506   0.6510
  0.6514   0.6534   0.6539   0.6547   0.6565   0.6585   0.6594   0.6595
  0.6603   0.6613   0.6622   0.6636   0.6641   0.6650   0.6654   0.6657
  0.6687   0.6690   0.6702   0.6704   0.6731   0.6744   0.6752   0.6757
  0.6782   0.6789   0.6793   0.6810   0.6817   0.6825   0.6836   0.6854
  0.6863   0.6865   0.6874   0.6880   0.6886   0.6907   0.6911   0.6918
  0.6931   0.6937   0.6947   0.6967   0.6974   0.6982   0.6999   0.7001
  0.7011   0.7019   0.7026   0.7045   0.7060   0.7067   0.7078   0.7085
  0.7096   0.7112   0.7128   0.7133   0.7138   0.7143   0.7149   0.7170
  0.7175   0.7188   0.7195   0.7225   0.7234   0.7247   0.7252   0.7258
  0.7278   0.7283   0.7287   0.7317   0.7332   0.7345   0.7349   0.7355
  0.7362   0.7366   0.7377   0.7392   0.7404   0.7422   0.7427   0.7437
  0.7465   0.7483   0.7497   0.7499   0.7506   0.7516   0.7544   0.7559
  0.7568   0.7578   0.7592   0.7599   0.7630   0.7635   0.7643   0.7656
  0.7670   0.7683   0.7690   0.7714   0.7721   0.7734   0.7754   0.7763
  0.7769   0.7789   0.7797   0.7817   0.7827   0.7849   0.7853   0.7872
  0.7887   0.7899   0.7911   0.7928   0.7932   0.7961   0.7964   0.7975
  0.7984   0.7997   0.8010   0.8014   0.8037   0.8043   0.8060   0.8075
  0.8078   0.8095   0.8101   0.8110   0.8118   0.8131   0.8148   0.8163
  0.8171   0.8187   0.8193   0.8201   0.8212   0.8229   0.8235   0.8255
  0.8279   0.8281   0.8290   0.8302   0.8322   0.8330   0.8345   0.8360
  0.8365   0.8386   0.8395   0.8397   0.8410   0.8426   0.8442   0.8450
  0.8456   0.8478   0.8484   0.8502   0.8526   0.8536   0.8539   0.8564
  0.8569   0.8577   0.8587   0.8608   0.8615   0.8624   0.8652   0.8664
  0.8670   0.8676   0.8686   0.8700   0.8713   0.8722   0.8726   0.8754
  0.8767   0.8771   0.8783   0.8793   0.8804   0.8821   0.8830   0.8837
  0.8860   0.8871   0.8887   0.8900   0.8920   0.8924   0.8940   0.8954
  0.8958   0.8962   0.8970   0.8987   0.8994   0.9004   0.9008   0.9025
  0.9036   0.9053   0.9060   0.9068   0.9083   0.9094   0.9108   0.9109
  0.9121   0.9146   0.9150   0.9165   0.9175   0.9179   0.9190   0.9200
  0.9206   0.9233   0.9241   0.9248   0.9251   0.9266   0.9275   0.9289
  0.9295   0.9304   0.9322   0.9327   0.9347   0.9355   0.9360   0.9368
  0.9387   0.9395   0.9408   0.9416   0.9432   0.9434   0.9441   0.9450
  0.9469   0.9484   0.9495   0.9506   0.9515   0.9523   0.9527   0.9539
  0.9553   0.9561   0.9567   0.9581   0.9592   0.9601   0.9617   0.9619
  0.9643   0.9649   0.9660   0.9666   0.9683   0.9689   0.9703   0.9718
  0.9722   0.9741   0.9744   0.9748   0.9768   0.9770   0.9785   0.9792
  0.9803   0.9810   0.9812   0.9825   0.9833   0.9843   0.9850   0.9854
  0.9864   0.9878   0.9884   0.9894   0.9914   0.9922   0.9924   0.9936
  0.9941   0.9946   0.9953   0.9969   0.9981   0.9992   1.0001   1.0015
  1.0023   1.0032   1.0035   1.0042   1.0055   1.0058   1.0081   1.0088
  1.0093   1.0104   1.0114   1.0124   1.0130   1.0145   1.0151   1.0162
  1.0169   1.0178   1.0193   1.0214   1.0217   1.0221   1.0242   1.0259
  1.0266   1.0285   1.0291   1.0295   1.0312   1.0314   1.0320   1.0339
  1.0344   1.0359   1.0375   1.0384   1.0389   1.0404   1.0409   1.0420
  1.0437   1.0441   1.0441   1.0456   1.0463   1.0484   1.0494   1.0503
  1.0544   1.0554   1.0559   1.0562   1.0575   1.0583   1.0599   1.0604
  1.0610   1.0627   1.0641   1.0652   1.0660   1.0672   1.0678   1.0696
  1.0718   1.0731   1.0735   1.0751   1.0761   1.0763   1.0781   1.0787
  1.0800   1.0811   1.0814   1.0825   1.0842   1.0858   1.0859   1.0874
  1.0878   1.0892   1.0905   1.0920   1.0927   1.0941   1.0960   1.0967
  1.0987   1.0994   1.1016   1.1024   1.1028   1.1042   1.1049   1.1070
  1.1079   1.1084   1.1098   1.1110   1.1123   1.1136   1.1143   1.1151
  1.1171   1.1180   1.1201   1.1205   1.1212   1.1217   1.1239   1.1249
  1.1267   1.1279   1.1284   1.1308   1.1314   1.1322   1.1331   1.1340
  1.1350   1.1357   1.1368   1.1380   1.1384   1.1401   1.1407   1.1428
  1.1433   1.1460   1.1474   1.1488   1.1499   1.1503   1.1519   1.1524
  1.1531   1.1543   1.1558   1.1569   1.1577   1.1588   1.1604   1.1612
  1.1622   1.1629   1.1643   1.1652   1.1673   1.1678   1.1689   1.1706
  1.1717   1.1729   1.1735   1.1740   1.1754   1.1779   1.1786   1.1798
  1.1815   1.1833   1.1852   1.1864   1.1876   1.1890   1.1894   1.1909
  1.1936   1.1944   1.1950   1.1960   1.1967   1.1986   1.2000   1.2019
  1.2035   1.2046   1.2066   1.2066   1.2076   1.2085   1.2098   1.2118
  1.2154   1.2165   1.2189   1.2204   1.2210   1.2213   1.2228   1.2244
  1.2246   1.2273   1.2291   1.2330   1.2336   1.2351   1.2363   1.2394
  1.2411   1.2419   1.2421   1.2434   1.2454   1.2482   1.2499   1.2517
  1.2524   1.2547   1.2576   1.2594   1.2617   1.2624   1.2653   1.2657
  1.2674   1.2714   1.2730   1.2740   1.2771   1.2777   1.2799   1.2821
  1.2850   1.2861   1.2875   1.2898   1.2907   1.2933   1.2947   1.2964
  1.2981   1.3008   1.3011   1.3049   1.3051   1.3060   1.3086   1.3106
  1.3116   1.3142   1.3158   1.3183   1.3204   1.3216   1.3261   1.3270
  1.3292   1.3311   1.3330   1.3348   1.3363   1.3384   1.3407   1.3413
  1.3425   1.3440   1.3472   1.3487   1.3492   1.3505   1.3527   1.3533
  1.3555   1.3565   1.3583   1.3599   1.3611   1.3637   1.3650   1.3673
  1.3689   1.3717   1.3730   1.3751   1.3769   1.3783   1.3790   1.3808
  1.3842   1.3858   1.3876   1.3894   1.3902   1.3916   1.3924   1.3951
  1.3961   1.3976   1.3993   1.4013   1.4022   1.4024   1.4055   1.4057
  1.4076   1.4086   1.4096   1.4107   1.4120   1.4121   1.4137   1.4150
  1.4169   1.4182   1.4190   1.4193   1.4196   1.4221   1.4238   1.4245
  1.4249   1.4279   1.4292   1.4300   1.4312   1.4326   1.4342   1.4355
  1.4371   1.4388   1.4399   1.4406   1.4417   1.4441   1.4444   1.4465
  1.4487   1.4498   1.4504   1.4515   1.4544   1.4558   1.4568   1.4578
  1.4597   1.4601   1.4624   1.4632   1.4653   1.4663   1.4675   1.4690
  1.4696   1.4711   1.4724   1.4729   1.4768   1.4771   1.4812   1.4831
  1.4851   1.4861   1.4876   1.4900   1.4909   1.4929   1.4948   1.4954
  1.4977   1.4984   1.4999   1.5006   1.5013   1.5049   1.5070   1.5075
  1.5102   1.5110   1.5121   1.5144   1.5163   1.5173   1.5212   1.5221
  1.5238   1.5265   1.5273   1.5279   1.5301   1.5309   1.5357   1.5360
  1.5374   1.5408   1.5434   1.5454   1.5475   1.5488   1.5514   1.5549
  1.5563   1.5572   1.5621   1.5634   1.5639   1.5664   1.5672   1.5709
  1.5733   1.5758   1.5774   1.5821   1.5843   1.5885   1.5900   1.5912
  1.5938   1.5982   1.6004   1.6050   1.6069   1.6093   1.6112   1.6127
  1.6184   1.6214   1.6218   1.6263   1.6285   1.6344   1.6376   1.6390
  1.6419   1.6436   1.6450   1.6473   1.6542   1.6551   1.6563   1.6586
  1.6611   1.6616   1.6637   1.6673   1.6683   1.6720   1.6741   1.6749
  1.6774   1.6783   1.6795   1.6811   1.6819   1.6825   1.6835   1.6843
  1.6860   1.6875   1.6913   1.6921   1.6929   1.6941   1.6955   1.6965
  1.6974   1.6993   1.6998   1.7019   1.7026   1.7036   1.7043   1.7055
  1.7071   1.7082   1.7093   1.7097   1.7106   1.7119   1.7129   1.7144
  1.7150   1.7158   1.7187   1.7192   1.7218   1.7225   1.7248   1.7257
  1.7268   1.7272   1.7312   1.7317   1.7337   1.7345   1.7358   1.7373
  1.7376   1.7391   1.7407   1.7420   1.7425   1.7438   1.7447   1.7459
  1.7470   1.7477   1.7498   1.7499   1.7507   1.7513   1.7533   1.7546
  1.7555   1.7558   1.7563   1.7584   1.7593   1.7618   1.7626   1.7630
  1.7649   1.7687   1.7690   1.7707   1.7723   1.7726   1.7758   1.7763
  1.7778   1.7788   1.7809   1.7818   1.7836   1.7849   1.7860   1.7863
  1.7891   1.7894   1.7911   1.7917   1.7921   1.7943   1.7965   1.7991
  1.8008   1.8018   1.8025   1.8034   1.8061   1.8067   1.8073   1.8089
  1.8117   1.8144   1.8156   1.8174   1.8186   1.8219   1.8247   1.8266
  1.8294   1.8316   1.8348   1.8367   1.8392   1.8419   1.8436   1.8456
  1.8499   1.8513   1.8544   1.8575   1.8581   1.8592   1.8631   1.8643
  1.8685   1.8702   1.8719   1.8730   1.8759   1.8783   1.8790   1.8791
  1.8805   1.8812   1.8855   1.8867   1.8880   1.8899   1.8909   1.8926
  1.8930   1.8965   1.8969   1.8974   1.8990   1.8995   1.9005   1.9016
  1.9027   1.9037   1.9043   1.9057   1.9058   1.9067   1.9083   1.9098
  1.9110   1.9113   1.9123   1.9136   1.9139   1.9164   1.9170   1.9188
  1.9205   1.9212   1.9227   1.9230   1.9249   1.9256   1.9285   1.9288
  1.9292   1.9310   1.9316   1.9331   1.9337   1.9352   1.9372   1.9391
  1.9402   1.9420   1.9444   1.9454   1.9483   1.9505   1.9523   1.9525
  1.9550   1.9561   1.9585   1.9600   1.9611   1.9634   1.9651   1.9669
  1.9699   1.9704   1.9736   1.9784   1.9789   1.9839   1.9869   1.9882
  1.9920   1.9995   2.0046   2.0073   2.0187   2.0203   2.0304   2.0323
  2.0384   2.0417   2.0440   2.0472   2.0489   2.0514   2.0524   2.0539
  2.0553   2.0592   2.0623   2.0625   2.0637   2.0647   2.0678   2.0688
  2.0718   2.0733   2.0741   2.0752   2.0783   2.0814   2.0827   2.0833
  2.0843   2.0876   2.0885   2.0891   2.0913   2.0936   2.0967   2.0971
  2.0981   2.0995   2.1014   2.1017   2.1042   2.1049   2.1056   2.1067
  2.1075   2.1087   2.1092   2.1113   2.1127   2.1147   2.1152   2.1160
  2.1170   2.1182   2.1185   2.1192   2.1206   2.1209   2.1224   2.1240
  2.1278   2.1286   2.1323   2.1328   2.1347   2.1365   2.1394   2.1415
  2.1485   2.1496   2.1513   2.1540   2.1554   2.1619   2.1645   2.1681
  2.1696   2.1744   2.1828   2.1849   2.1881   2.1905   2.1913   2.1953
  2.1980   2.1995   2.2016   2.2041   2.2048   2.2061   2.2071   2.2102
  2.2110   2.2128   2.2168   2.2181   2.2223   2.2241   2.2256   2.2262
  2.2264   2.2290   2.2314   2.2319   2.2333   2.2350   2.2361   2.2364
  2.2386   2.2397   2.2405   2.2411   2.2416   2.2444   2.2451   2.2459
  2.2467   2.2473   2.2483   2.2496   2.2497   2.2505   2.2514   2.2534
  2.2537   2.2544   2.2560   2.2580   2.2589   2.2593   2.2606   2.2622
  2.2631   2.2648   2.2651   2.2662   2.2668   2.2679   2.2690   2.2699
  2.2702   2.2731   2.2736   2.2746   2.2747   2.2753   2.2761   2.2773
  2.2784   2.2802   2.2808   2.2822   2.2827   2.2840   2.2843   2.2854
  2.2858   2.2864   2.2866   2.2882   2.2895   2.2902   2.2910   2.2918
  2.2924   2.2930   2.2943   2.2954   2.2964   2.2972   2.2976   2.2978
  2.2989   2.3004   2.3018   2.3023   2.3031   2.3038   2.3040   2.3056
  2.3064   2.3074   2.3086   2.3092   2.3097   2.3112   2.3123   2.3135
  2.3142   2.3157   2.3172   2.3173   2.3176   2.3188   2.3204   2.3211
  2.3217   2.3226   2.3232   2.3244   2.3249   2.3265   2.3274   2.3280
  2.3286   2.3295   2.3302   2.3318   2.3332   2.3361   2.3384   2.3401
  2.3419   2.3430   2.3439   2.3444   2.3457   2.3485   2.3491   2.3507
  2.3520   2.3533   2.3539   2.3547   2.3556   2.3562   2.3567   2.3594
  2.3604   2.3618   2.3639   2.3655   2.3664   2.3679   2.3687   2.3720
  2.3741   2.3755   2.3775   2.3791   2.3802   2.3813   2.3831   2.3849
  2.3875   2.3905   2.3912   2.3964   2.3973   2.3979   2.4001   2.4016
  2.4042   2.4071   2.4090   2.4152   2.4178   2.4204   2.4227   2.4279
  2.4319   2.4486   2.4627   2.4887   2.5144   2.5325   2.5621   2.6343
  2.6898   2.7488   2.7698   2.7881   2.8146   2.8187   2.8299   2.8336
  2.8370   2.8378   2.8428   2.8432   2.8459   2.8503   2.8528   2.8541
  2.8551   2.8571   2.8623   2.8633   2.8682   2.8691   2.8720   2.8731
  2.8769   2.8796   2.8804   2.8819   2.8844   2.8856   2.8868   2.8884
  2.8895   2.8921   2.8994   2.9038   2.9052   2.9132   2.9805   3.0946
  3.2580   3.9417   3.9449   3.9610   3.9647   3.9655   3.9746   3.9769
  3.9808   3.9842   3.9868   3.9882   3.9912   3.9948   3.9968   4.0024
  4.0036   4.0060   4.0074   4.0098   4.0122   4.0158   4.0168   4.0229
  4.0243   4.0296   4.0371   4.0401   4.0428   4.0491   4.0534   4.2135
  4.2198   4.2293   4.2366   4.2449   4.2481   4.2492   4.2502   4.2564
  4.2601   4.2657   4.2669   4.2683   4.2736   4.2750   4.2785   4.2802
  4.2824   4.2842   4.2867   4.2890   4.2898   4.2928   4.2941   4.2987
  4.3011   4.3032   4.3053   4.3067   4.3079   4.3095   4.3109   4.3135
  4.3159   4.3176   4.3204   4.3240   4.3243   4.3302   4.3318   4.3339
  4.3382   4.3394   4.3399   4.3455   4.3478   4.3496   4.3517   4.3535
  4.3561   4.3572   4.3596   4.3656   4.3684   4.3716   4.3723   4.3769
  4.3796   4.3829   4.3853   4.3888   4.3908   4.3924   4.3980   4.3998
  4.4040   4.4064   4.4098   4.4128   4.4164   4.4216   4.4251   4.4276
  4.4362   4.4395   4.4413   4.4449   4.4516   4.4625   4.4688   4.4718
  4.4791   4.4878   4.5080   4.5189   4.5287   4.5316   4.5423   4.5773
  4.5791   4.6252   4.6329   4.6497   4.7388   4.7567   4.7687   4.7991
  4.8092   4.8820
 --------------------------------------------------------------
 
          Ground-State Mulliken Net Atomic Charges

     Atom                 Charge (a.u.)
  ----------------------------------------
      1 C                    -0.148127
      2 C                    -0.780832
      3 C                    -0.275483
      4 C                    -0.285820
      5 C                    -0.432010
      6 C                    -0.506960
      7 H                     0.200624
      8 H                     0.239325
      9 H                     0.216234
     10 H                     0.216001
     11 H                     0.200696
     12 H                     0.199011
     13 H                     0.221906
     14 H                     0.159601
     15 H                     0.184373
     16 H                     0.197231
     17 H                     0.211204
     18 N                    -0.249029
     19 H                     0.455684
     20 C                     0.363118
     21 H                     0.167909
     22 O                    -0.554655
     23 C                    -0.819044
     24 H                     0.272017
     25 H                     0.274433
     26 H                     0.293422
     27 S                     0.372337
     28 C                    -0.855894
     29 H                     0.301123
     30 H                     0.276209
     31 H                     0.338836
     32 O                    -0.633685
     33 C                    -0.830766
     34 H                     0.271743
     35 H                     0.250753
     36 H                     0.217892
     37 S                     0.933371
     38 C                    -0.790336
     39 H                     0.269533
     40 H                     0.252077
     41 H                     0.226604
     42 O                    -0.771904
     43 C                    -0.831637
     44 H                     0.276411
     45 H                     0.267024
     46 H                     0.246333
     47 S                     0.903038
     48 C                    -0.806040
     49 H                     0.260067
     50 H                     0.230829
     51 H                     0.231626
     52 O                    -0.644109
     53 C                    -1.074134
     54 H                     0.300049
     55 H                     0.216465
     56 H                     0.267584
     57 S                     1.260200
     58 C                    -1.074165
     59 H                     0.307553
     60 H                     0.267732
     61 H                     0.246156
     62 O                    -0.714696
     63 C                    -0.693553
     64 H                     0.259562
     65 H                     0.259333
     66 H                     0.232074
     67 S                     0.626228
     68 C                    -0.771092
     69 H                     0.237781
     70 H                     0.261929
     71 H                     0.249880
     72 O                    -0.641114
     73 C                    -0.881269
     74 H                     0.246757
     75 H                     0.267644
     76 H                     0.247407
     77 S                     0.868904
     78 C                    -0.817761
     79 H                     0.252733
     80 H                     0.287509
     81 H                     0.232887
     82 O                    -0.661610
     83 C                    -0.806960
     84 H                     0.262920
     85 H                     0.243444
     86 H                     0.278069
     87 S                     0.483013
     88 C                    -0.597954
     89 H                     0.261251
     90 H                     0.243742
     91 H                     0.261334
     92 O                    -0.631893
     93 C                    -0.871510
     94 H                     0.247600
     95 H                     0.244960
     96 H                     0.286729
     97 S                     0.849135
     98 C                    -0.828145
     99 H                     0.247376
    100 H                     0.230092
    101 H                     0.305893
    102 O                    -0.787344
    103 C                    -0.772241
    104 H                     0.278370
    105 H                     0.230390
    106 H                     0.265628
    107 S                     0.974807
    108 C                    -0.976487
    109 H                     0.247140
    110 H                     0.290030
    111 H                     0.239385
    112 O                    -0.735761
    113 C                    -1.127706
    114 H                     0.308024
    115 H                     0.271654
    116 H                     0.217408
    117 S                     1.107532
    118 C                    -0.754710
    119 H                     0.243449
    120 H                     0.244923
    121 H                     0.247243
    122 O                    -0.706012
    123 C                    -0.827633
    124 H                     0.246972
    125 H                     0.287047
    126 H                     0.247206
    127 S                     0.915466
    128 C                    -0.880682
    129 H                     0.265857
    130 H                     0.254107
    131 H                     0.257564
    132 O                    -0.744671
    133 C                    -0.979531
    134 H                     0.258926
    135 H                     0.230718
    136 H                     0.310891
    137 S                     1.086561
    138 C                    -0.953386
    139 H                     0.250660
    140 H                     0.270027
    141 H                     0.265378
    142 O                    -0.738121
    143 C                    -0.979317
    144 H                     0.257509
    145 H                     0.293935
    146 H                     0.288446
    147 S                     0.901764
    148 C                    -0.895147
    149 H                     0.259397
    150 H                     0.300934
    151 H                     0.230553
    152 O                    -0.707436
    153 C                    -1.094758
    154 H                     0.282243
    155 H                     0.237533
    156 H                     0.270042
    157 S                     1.139482
    158 C                    -0.956213
    159 H                     0.244215
    160 H                     0.284159
    161 H                     0.282421
    162 O                    -0.652992
    163 C                    -0.770738
    164 H                     0.289834
    165 H                     0.248896
    166 H                     0.256474
    167 S                     0.800586
    168 C                    -0.807118
    169 H                     0.255332
    170 H                     0.277887
    171 H                     0.212435
    172 O                    -0.744970
    173 C                    -0.712547
    174 H                     0.218231
    175 H                     0.283804
    176 H                     0.224349
    177 S                     0.711797
    178 C                    -0.906228
    179 H                     0.257429
    180 H                     0.310164
    181 H                     0.251941
    182 O                    -0.717190
    183 C                    -0.816761
    184 H                     0.224889
    185 H                     0.284445
    186 H                     0.245689
    187 S                     1.034844
    188 C                    -0.894926
    189 H                     0.251817
    190 H                     0.227863
    191 H                     0.258716
    192 O                    -0.743712
    193 C                    -0.825677
    194 H                     0.312358
    195 H                     0.260182
    196 H                     0.220442
    197 S                     0.966534
    198 C                    -0.997612
    199 H                     0.243934
    200 H                     0.249479
    201 H                     0.241955
    202 O                    -0.727265
    203 C                    -0.976622
    204 H                     0.257549
    205 H                     0.275332
    206 H                     0.252312
    207 S                     0.964081
    208 C                    -0.876773
    209 H                     0.254076
    210 H                     0.248383
    211 H                     0.237901
    212 O                    -0.696391
    213 C                    -1.190728
    214 H                     0.273506
    215 H                     0.209520
    216 H                     0.286978
    217 S                     1.243587
    218 C                    -1.072605
    219 H                     0.245397
    220 H                     0.277917
    221 H                     0.277009
    222 O                    -0.590513
    223 C                    -1.075962
    224 H                     0.281169
    225 H                     0.235503
    226 H                     0.289312
    227 S                     1.292548
    228 C                    -1.175771
    229 H                     0.306249
    230 H                     0.249792
    231 H                     0.283933
    232 O                    -0.710327
    233 C                    -1.048131
    234 H                     0.260338
    235 H                     0.257184
    236 H                     0.241342
    237 S                     1.078490
    238 C                    -0.954956
    239 H                     0.284396
    240 H                     0.237144
    241 H                     0.253462
    242 O                    -0.601796
    243 C                    -0.975261
    244 H                     0.256523
    245 H                     0.244345
    246 H                     0.303359
    247 S                     1.018977
    248 C                    -0.874120
    249 H                     0.251829
[...]
    2   0.0567338  -0.0062735  -0.0233632  -0.0012336   0.0180265  -0.0178894
    3  -0.0064475   0.0056503   0.0086143   0.0009411   0.0218927   0.0199508
          193         194         195         196         197         198
    1  -0.0060638   0.0264001  -0.0234661  -0.0098442   0.0573680  -0.0050328
    2  -0.0114117  -0.0223508   0.0037900  -0.0109823  -0.0083252   0.0007350
    3   0.0000665   0.0108595   0.0191515  -0.0254194   0.0116779   0.0045925
          199         200         201         202         203         204
    1   0.0090308  -0.0301515   0.0118735  -0.0385786   0.0046382   0.0259342
    2   0.0292158  -0.0054209  -0.0015210   0.0477038   0.0068241   0.0144839
    3  -0.0029956  -0.0023568   0.0346960  -0.0891429  -0.0026734   0.0034349
          205         206         207         208         209         210
    1   0.0217407  -0.0205654   0.0359385  -0.0069500  -0.0206144  -0.0195157
    2  -0.0000470   0.0234639  -0.0402921   0.0003409  -0.0221456   0.0242127
    3  -0.0277895   0.0081656  -0.0086488  -0.0035760   0.0058596   0.0034109
          211         212         213         214         215         216
    1   0.0047514  -0.0486593  -0.0066803   0.0154228  -0.0202679  -0.0102957
    2  -0.0083318   0.0261825   0.0020745   0.0203846   0.0190698  -0.0205431
    3  -0.0331833   0.0945288   0.0077809   0.0158128  -0.0103302   0.0269363
          217         218         219         220         221         222
    1   0.0310881  -0.0087213  -0.0191080  -0.0100302   0.0122771   0.0349718
    2   0.0238359  -0.0031066  -0.0079615   0.0168333  -0.0276119  -0.0692715
    3  -0.0357724  -0.0009008   0.0221789  -0.0276373   0.0094673   0.0851502
          223         224         225         226         227         228
    1   0.0005607   0.0291808  -0.0219196  -0.0018888  -0.0449003   0.0052997
    2   0.0108900   0.0080243   0.0160471   0.0048854  -0.0220675  -0.0046390
    3   0.0050701   0.0106126  -0.0212635   0.0337190  -0.0155233   0.0100089
          229         230         231         232         233         234
    1   0.0158422  -0.0200968   0.0057369   0.0949717  -0.0017192   0.0163178
    2   0.0267042  -0.0130003  -0.0339895   0.0067869   0.0048252  -0.0019556
    3   0.0112000   0.0192090  -0.0027793  -0.0530752   0.0074956   0.0296255
          235         236         237         238         239         240
    1  -0.0043904  -0.0178457   0.0263027  -0.0073434  -0.0203447   0.0123083
    2   0.0307390  -0.0280732   0.0441552  -0.0014575   0.0322263  -0.0240399
    3  -0.0221837   0.0109451  -0.0387720  -0.0052611   0.0021868  -0.0195994
          241         242         243         244         245         246
    1  -0.0120503   0.0533203   0.0028815   0.0251130  -0.0297456   0.0104283
    2  -0.0177716  -0.0843420  -0.0059024   0.0130026   0.0019593  -0.0293304
    3   0.0209960   0.0421634   0.0083110   0.0119475   0.0130804  -0.0014333
          247         248         249         250         251         252
    1  -0.0276244   0.0063737   0.0163364   0.0218490   0.0049777  -0.0246092
    2  -0.0387058  -0.0007510   0.0143999  -0.0289176   0.0176912   0.1062135
    3  -0.0348813  -0.0016614   0.0200888  -0.0088645  -0.0244240   0.0030392
          253         254         255         256         257         258
    1   0.0067635   0.0294697   0.0137564  -0.0213091  -0.0031947   0.0064194
    2  -0.0037725   0.0141325  -0.0273509   0.0032627   0.0603933  -0.0067494
    3  -0.0030141  -0.0151333  -0.0056396  -0.0176393   0.0051455   0.0033160
          259         260         261         262         263         264
    1   0.0035516   0.0173137  -0.0167585  -0.0914854   0.0027680   0.0093885
    2  -0.0323042   0.0225164   0.0034052  -0.0580772  -0.0026748  -0.0017308
    3  -0.0120247   0.0153323   0.0265082  -0.0131027  -0.0028905   0.0246327
          265         266         267         268         269         270
    1  -0.0163060   0.0289130  -0.0479347   0.0011928  -0.0145998   0.0226081
    2  -0.0275554  -0.0024350   0.0006997   0.0004055   0.0267388  -0.0037170
    3  -0.0116508  -0.0160556   0.0318984  -0.0092787  -0.0092011  -0.0247931
          271         272         273         274         275         276
    1  -0.0274410   0.0800338  -0.0075018   0.0145937  -0.0291893  -0.0073307
    2  -0.0158050   0.0745826   0.0000491  -0.0140429  -0.0027120   0.0289384
    3  -0.0139001   0.0105455  -0.0078722  -0.0276194  -0.0044555  -0.0025671
          277         278         279         280         281         282
    1   0.0557402  -0.0035771   0.0116376  -0.0305163   0.0123065  -0.0566710
    2   0.0059275  -0.0076839  -0.0087806  -0.0048674  -0.0285907   0.0470683
    3  -0.0042332  -0.0011547   0.0267252   0.0014798  -0.0209647   0.0806426
          283         284         285         286         287         288
    1  -0.0014955   0.0240954  -0.0107688  -0.0192381  -0.0549129   0.0011535
    2   0.0076771   0.0145412  -0.0050127   0.0212754  -0.0285138   0.0032935
    3   0.0005318   0.0008910  -0.0263148   0.0202976   0.0010726   0.0059562
          289         290         291         292         293         294
    1   0.0007502   0.0225170  -0.0145183   0.0872009   0.0111270   0.0229537
    2  -0.0291800   0.0211515   0.0206332  -0.0427038  -0.0011427  -0.0199187
    3   0.0128772   0.0030495   0.0291586  -0.0494612   0.0009994   0.0167990
          295         296         297         298         299         300
    1  -0.0039175   0.0165450  -0.0365361   0.0071144  -0.0074758   0.0309053
    2  -0.0106996   0.0303782   0.0314978   0.0093198  -0.0261804  -0.0057421
    3  -0.0275810  -0.0154071  -0.0216803   0.0081192   0.0180077   0.0068270
          301         302         303         304         305         306
    1  -0.0028145  -0.0141562  -0.0011270   0.0063181   0.0290270  -0.0097712
    2   0.0366010  -0.1036288   0.0030195  -0.0241471   0.0099618   0.0337043
    3   0.0028871   0.0299408   0.0039126   0.0181744   0.0038011   0.0125127
          307         308         309         310         311         312
    1  -0.0172064  -0.0042996   0.0083401  -0.0079237  -0.0251254   0.0562492
    2   0.0521932  -0.0022265  -0.0297295   0.0100707  -0.0017432  -0.0775641
    3  -0.0244666   0.0063818   0.0000413   0.0304686  -0.0175779  -0.0504283
          313         314         315         316         317         318
    1  -0.0041965  -0.0188711  -0.0213525   0.0148396   0.0263460  -0.0019095
    2   0.0016693   0.0062082  -0.0041326   0.0241765   0.0272225  -0.0045263
    3   0.0085486  -0.0201923   0.0265075   0.0088798  -0.0484660   0.0009647
          319         320         321         322
    1  -0.0201183   0.0102849  -0.0100801   0.0685527
    2   0.0069888  -0.0263363  -0.0047369  -0.0279598
    3  -0.0229137  -0.0193770   0.0268888   0.0810659
  --- DONE ESP SUMMARY ---
Archival summary:
1\1\n0068.mhg0\SP\ProcedureUnspecified\6-31+G*\303060h22\ymao\FriMar1218:16:472021FriMar1218:16:472021\0\\#,ProcedureUnspecified,6-31+G*,\\0,1\S\O,1,1.49639\C,1,1.80684,2,100.691\H,3,1.09241,1,109.816,2,-162.425,0\H,3,1.09306,1,110.471,2,-45.1158,0\H,3,1.09352,1,107.73,2,77.8619,0\C,1,1.80748,2,99.8053,3,103.647,0\H,7,1.09247,1,107.608,2,-159.939,0\H,7,1.09282,1,114.265,2,-37.8927,0\H,7,1.09336,1,106.713,2,82.4847,0\H,8,1.94504,7,152.336,1,164.503,0\C,11,1.09315,8,142.981,7,53.0077,0\H,12,1.09301,11,107.162,8,64.3978,0\H,12,1.09335,11,106.197,8,179.924,0\S,12,1.80667,11,110.5,8,-67.7642,0\O,15,1.49694,12,101.475,11,40.9274,0\C,15,1.80696,12,94.481,11,-63.1003,0\H,17,1.09283,15,112.413,12,-49.8922,0\H,17,1.09291,15,107.567,12,-173.683,0\H,17,1.09361,15,102.801,12,63.0343,0\H,11,2.04994,8,73.5811,7,-133.062,0\C,21,1.09346,11,127.659,8,170.517,0\H,22,1.09259,21,113.801,11,9.99906,0\H,22,1.09336,21,112.104,11,130.182,0\S,22,1.80762,21,106.025,11,-112.049,0\O,25,1.49743,22,105.791,21,73.5376,0\C,25,1.80729,22,90.2426,21,177.038,0\H,27,1.09239,25,107.852,22,66.2742,0\H,27,1.09292,25,109.709,22,-171.303,0\H,27,1.09339,25,107.303,22,-51.4853,0\H,20,2.11043,17,124.093,15,129.397,0\C,31,1.09361,20,123.677,17,-99.8771,0\H,32,1.09262,31,114.218,20,23.8136,0\H,32,1.09279,31,112.981,20,146.511,0\S,32,1.80698,31,112.819,20,-100.178,0\O,35,1.49729,32,106.133,31,-171.047,0\C,35,1.80692,32,94.1348,31,-65.1081,0\H,37,1.09282,35,111.36,32,59.5368,0\H,37,1.09329,35,111.275,32,-63.6504,0\H,37,1.09342,35,100.45,32,-176.115,0\H,33,2.14096,32,166.253,31,89.4845,0\C,41,1.09307,33,108.88,32,6.15689,0\H,42,1.09259,41,105.57,33,15.0421,0\H,42,1.093,41,111.166,33,136.332,0\S,42,1.80681,41,104.739,33,-101.886,0\O,45,1.49762,42,105.746,41,-162.101,0\C,45,1.80728,42,96.2328,41,-60.68,0\H,47,1.09197,45,104.758,42,51.5931,0\H,47,1.09273,45,110.068,42,-72.6837,0\H,47,1.09319,45,106.415,42,166.053,0\Gh,44,2.02786,42,106.689,41,27.6782,0\Gh,51,1.0973,44,134.333,42,-143.43,0\Gh,52,1.09698,51,112.857,44,-99.4228,0\Gh,52,1.53736,51,106.377,44,139.869,0\Gh,54,1.09662,52,107.517,51,-175.322,0\Gh,54,1.09759,52,109.525,51,66.2543,0\Gh,54,1.53757,52,113.308,51,-60.0043,0\Gh,57,1.09624,54,113.464,52,174.542,0\Gh,57,1.09756,54,114.019,52,61.2547,0\Gh,57,1.53741,54,108.97,52,-60.99,0\Gh,60,1.09659,57,104.301,54,-62.3231,0\Gh,60,1.46145,57,112.867,54,177.024,0\Gh,62,1.01276,60,123.684,57,-58.6264,0\Gh,62,1.37964,60,118.159,57,129.981,0\Gh,64,1.10478,62,106.97,60,-178.103,0\Gh,64,1.21861,62,125.847,60,-0.063366,0\Gh,60,1.53752,57,108.742,54,54.9497,0\Gh,67,1.09691,60,115.574,57,82.2193,0\Gh,67,1.09707,60,105.934,57,-166.236,0\Gh,67,1.53727,60,116.673,57,-53.891,0\Gh,70,1.09646,67,111.102,60,-63.1737,0\Gh,70,1.09649,67,110.059,60,176.115,0\H,71,2.03358,70,113.53,67,-171.745,0\C,73,1.09353,71,138.287,70,40.1825,0\H,74,1.09257,73,117.973,71,-18.8932,0\H,74,1.09295,73,102.918,71,102.762,0\S,74,1.80707,73,106.806,71,-150.794,0\O,77,1.49759,74,101.784,73,-132.327,0\C,77,1.80715,74,100.546,73,-27.4682,0\H,79,1.09281,77,114.128,74,-73.3433,0\H,79,1.09291,77,110.501,74,44.4676,0\H,79,1.0931,77,110.454,74,164.227,0\H,56,2.03399,54,122.62,52,28.6816,0\C,83,1.09292,56,121.431,54,-155.964,0\H,84,1.09276,83,107.852,56,125.387,0\H,84,1.09277,83,110.867,56,6.80348,0\S,84,1.80735,83,115.862,56,-106.047,0\O,87,1.49712,84,103.556,83,146.059,0\C,87,1.80662,84,94.7716,83,-109.843,0\H,89,1.09304,87,111.74,84,-154.219,0\H,89,1.09304,87,109.748,84,-32.9423,0\H,89,1.09305,87,102.782,84,79.7379,0\H,86,2.10843,84,158.392,83,39.6175,0\C,93,1.09346,86,100.3,84,-125.646,0\H,94,1.09295,93,113.53,86,112.556,0\H,94,1.09336,93,112.889,86,-0.913849,0\S,94,1.80728,93,112.76,86,-126.618,0\O,97,1.49687,94,101.155,93,-178.789,0\C,97,1.80624,94,94.2556,93,75.8797,0\H,99,1.09269,97,109.672,94,-158.146,0\H,99,1.09335,97,108.549,94,88.3263,0\H,99,1.09341,97,112.059,94,-40.6523,0\O,34,2.19538,32,140.945,31,-72.8347,0\S,103,1.49695,34,140.406,32,49.51,0\C,104,1.80663,103,100.694,34,-129.395,0\H,105,1.09223,104,106.286,103,-177.372,0\H,105,1.09306,104,115.76,103,68.2415,0\H,105,1.09418,104,106.845,103,-61.6338,0\C,104,1.80676,103,107.741,34,130.81,0\H,109,1.0931,104,115.884,103,154.794,0\H,109,1.09312,104,107.478,103,38.6187,0\H,109,1.09346,104,110.937,103,-78.612,0\H,107,2.12544,105,119.532,104,-162.052,0\C,113,1.09334,107,158.771,105,-25.8815,0\H,114,1.09272,113,110.858,107,-84.0324,0\H,114,1.09352,113,108.131,107,154.509,0\S,114,1.80601,113,114.812,107,36.5497,0\O,117,1.49721,114,103.387,113,170.092,0\C,117,1.80656,114,92.4845,113,73.1985,0\H,119,1.09222,117,100.861,114,-169.978,0\H,119,1.09295,117,109.558,114,87.8394,0\H,119,1.09355,117,119.435,114,-52.3512,0\H,39,2.23376,37,143.243,35,-72.6352,0\C,123,1.0926,39,107.719,37,123.852,0\H,124,1.09198,123,101.685,39,16.498,0\H,124,1.09322,123,109.62,39,135.115,0\S,124,1.80783,123,109.561,39,-102.096,0\O,127,1.49695,124,106.258,123,-70.4525,0\C,127,1.80747,124,92.4724,123,-177.783,0\H,129,1.0926,127,102.112,124,156.258,0\H,129,1.09281,127,116.371,124,-88.7157,0\H,129,1.09314,127,118.353,124,32.9403,0\H,101,2.28109,99,170.91,97,-143.82,0\C,133,1.0932,101,145.595,99,28.8375,0\H,134,1.09269,133,114.313,101,5.15087,0\H,134,1.09327,133,102.779,101,-114.713,0\S,134,1.80703,133,110.502,101,120.986,0\O,137,1.49753,134,105.282,133,-151.602,0\C,137,1.80669,134,92.0102,133,-44.3008,0\H,139,1.09284,137,116.007,134,75.7959,0\H,139,1.09324,137,102.444,134,-156.954,0\H,139,1.09351,137,103.47,134,-53.2106,0\O,50,2.30313,47,160.248,45,62.2235,0\S,143,1.49699,50,128.976,47,-15.1085,0\C,144,1.80677,143,100.16,50,70.636,0\H,145,1.09256,144,101.298,143,65.432,0\H,145,1.09317,144,106.222,143,-178.246,0\H,145,1.09358,144,105.349,143,-49.9206,0\C,144,1.80735,143,98.2542,50,171.713,0\H,149,1.0928,144,107.058,143,79.5727,0\H,149,1.09287,144,104.851,143,-159.607,0\H,149,1.09299,144,112.975,143,-35.9506,0\H,4,2.36545,3,120.667,1,69.3776,0\C,153,1.09333,4,148.338,3,-48.9903,0\H,154,1.09341,153,102.794,4,-5.26901,0\H,154,1.09374,153,120.529,4,-123.838,0\S,154,1.8064,153,112.999,4,108.35,0\O,157,1.4973,154,107.071,153,-130.378,0\C,157,1.80653,154,96.9686,153,-31.4713,0\H,159,1.09273,157,105.39,154,-68.6381,0\H,159,1.09295,157,103.265,154,166.896,0\H,159,1.09328,157,107.796,154,44.7856,0\H,123,2.40088,39,108.46,37,-4.60114,0\C,163,1.09266,123,111.486,39,-50.5694,0\H,164,1.09286,163,108.367,123,-120.239,0\H,164,1.09364,163,109.521,123,2.21941,0\S,164,1.80717,163,107.792,123,122.011,0\O,167,1.4971,164,105.249,163,139.754,0\C,167,1.80654,164,96.5083,163,33.1703,0\H,169,1.09284,167,103.872,164,-76.8091,0\H,169,1.0929,167,99.0532,164,164.52,0\H,169,1.09341,167,113.347,164,40.4555,0\H,170,2.28318,169,117.836,167,158.684,0\C,173,1.09312,170,161.173,169,9.93735,0\H,174,1.09278,173,107.461,170,-165.989,0\H,174,1.09311,173,114.493,170,70.6176,0\S,174,1.80794,173,111.787,170,-49.6549,0\O,177,1.49693,174,105.064,173,75.5182,0\C,177,1.80655,174,99.3997,173,-177.418,0\H,179,1.09267,177,108.957,174,-175.718,0\H,179,1.09298,177,107.847,174,-59.4747,0\H,179,1.09313,177,101.997,174,66.2231,0\H,176,2.31037,174,133.488,173,100.068,0\C,183,1.09303,176,110.845,174,121.879,0\H,184,1.09287,183,109.31,176,143.725,0\H,184,1.0937,183,112.538,176,20.373,0\S,184,1.80679,183,108.402,176,-106.658,0\O,187,1.49647,184,99.0253,183,52.8839,0\C,187,1.80716,184,99.6281,183,162.013,0\H,189,1.0924,187,109.299,184,74.6044,0\H,189,1.09356,187,114.503,184,-154.791,0\H,189,1.09358,187,108.266,184,-36.4892,0\H,190,2.0234,189,132.928,187,-43.8008,0\C,193,1.09259,190,145.477,189,127.874,0\H,194,1.09231,193,107.415,190,115.11,0\H,194,1.09336,193,109.244,190,-128.291,0\S,194,1.80735,193,102.04,190,-3.84817,0\O,197,1.49623,194,107.578,193,-37.5084,0\C,197,1.80651,194,100.506,193,63.792,0\H,199,1.09262,197,111.049,194,-58.3024,0\H,199,1.09313,197,108.55,194,52.8301,0\H,199,1.09317,197,113.557,194,170.959,0\O,186,2.32347,184,126.142,183,66.9165,0\S,203,1.49679,186,127.648,184,-113.088,0\C,204,1.80666,203,103.48,186,99.0836,0\H,205,1.09303,204,111.017,203,-72.0517,0\H,205,1.09322,204,110.599,203,51.8026,0\H,205,1.09336,204,103.795,203,161.186,0\C,204,1.80708,203,104.654,186,-157.731,0\H,209,1.0927,204,113.237,203,-56.1007,0\H,209,1.09273,204,104.318,203,66.5003,0\H,209,1.09277,204,107.868,203,-178.019,0\H,208,2.21036,205,122.419,204,-152.231,0\C,213,1.09296,208,115.769,205,-74.3451,0\H,214,1.09238,213,102.543,208,76.7528,0\H,214,1.09329,213,115.415,208,-34.2063,0\S,214,1.80655,213,110.081,208,-159.938,0\O,217,1.49735,214,99.1863,213,-88.0993,0\C,217,1.80733,214,96.2669,213,165.979,0\H,219,1.09239,217,111.828,214,52.8065,0\H,219,1.09308,217,110.26,214,-64.7193,0\H,219,1.09312,217,108.32,214,175.439,0\H,213,2.24688,208,124.711,205,75.6943,0\C,223,1.09303,213,166.798,208,-64.5202,0\H,224,1.09305,223,108.009,213,-162.379,0\H,224,1.09328,223,111.306,213,-44.7452,0\S,224,1.80663,223,104.499,213,75.7608,0\O,227,1.49734,224,104.741,223,-60.2587,0\C,227,1.80648,224,98.7396,223,41.9482,0\H,229,1.09273,227,111.336,224,-51.9805,0\H,229,1.09277,227,109.413,224,-173.698,0\H,229,1.09346,227,105.682,224,66.858,0\H,206,2.25271,205,101.966,204,101.308,0\C,233,1.09282,206,152.788,205,-64.9547,0\H,234,1.09282,233,116.441,206,-78.2061,0\H,234,1.09368,233,111.194,206,44.5407,0\S,234,1.80622,233,102.961,206,165.339,0\O,237,1.49698,234,99.0771,233,-162.69,0\C,237,1.80726,234,90.4975,233,-56.6229,0\H,239,1.09282,237,113.278,234,-39.6346,0\H,239,1.09284,237,109.653,234,86.7806,0\H,239,1.09295,237,99.1316,234,-155.009,0\H,238,2.33365,237,101.585,234,-114.59,0\C,243,1.09278,238,125.196,237,-126.594,0\H,244,1.09264,243,107.175,238,11.8083,0\H,244,1.09331,243,109.083,238,-110.075,0\S,244,1.80685,243,104.161,238,123.502,0\O,247,1.49708,244,103.578,243,71.0638,0\C,247,1.80717,244,92.9573,243,170.53,0\H,249,1.09291,247,106.788,244,-52.2877,0\H,249,1.09364,247,111.33,244,67.5322,0\H,249,1.09389,247,104.276,244,-170.195,0\H,188,2.34528,187,117.452,184,127.602,0\C,253,1.0934,188,111.21,187,100.283,0\H,254,1.09293,253,109.796,188,-37.8347,0\H,254,1.09301,253,115.847,188,-166.444,0\S,254,1.80733,253,105.707,188,76.838,0\O,257,1.49653,254,103.517,253,74.3543,0\C,257,1.80633,254,94.6975,253,177.728,0\H,259,1.09279,257,108.053,254,-34.5709,0\H,259,1.09341,257,109.449,254,76.7182,0\H,259,1.09361,257,111.492,254,-161.737,0\H,76,2.40152,74,93.5164,73,-169.131,0\C,263,1.09305,76,122.196,74,126.698,0\H,264,1.09219,263,112.595,76,-139.543,0\H,264,1.09308,263,105.5,76,-19.6398,0\S,264,1.80692,263,106.954,76,96.2182,0\O,267,1.49736,264,94.4236,263,-163.299,0\C,267,1.80749,264,93.2637,263,-62.4538,0\H,269,1.09253,267,103.21,264,-49.71,0\H,269,1.0926,267,107.872,264,70.0723,0\H,269,1.09316,267,111.831,264,-169.384,0\H,220,2.40494,219,95.2873,217,78.2983,0\C,273,1.09302,220,112.612,219,175.824,0\H,274,1.09262,273,107.976,220,105.472,0\H,274,1.09273,273,107.044,220,-9.00502,0\S,274,1.80752,273,108.165,220,-130.107,0\O,277,1.49634,274,110.213,273,177.983,0\C,277,1.80682,274,94.3651,273,-79.3273,0\H,279,1.09255,277,103.107,274,74.6742,0\H,279,1.09292,277,106.716,274,-167.749,0\H,279,1.09341,277,110.137,274,-45.3916,0\H,276,2.29246,274,124.82,273,126.916,0\C,283,1.09365,276,128.684,274,7.29245,0\H,284,1.09262,283,110.036,276,-119.225,0\H,284,1.09342,283,112.643,276,9.34154,0\S,284,1.80643,283,106.114,276,119.257,0\O,287,1.49759,284,104.372,283,-163.52,0\C,287,1.8073,284,97.2602,283,-57.1885,0\H,289,1.09218,287,106.48,284,-166.634,0\H,289,1.09254,287,109.731,284,-44.418,0\H,289,1.09345,287,106.429,284,71.105,0\H,8,2.41409,7,111.076,1,-79.4268,0\C,293,1.09356,8,151.154,7,112.365,0\H,294,1.0926,293,113.859,8,-111.142,0\H,294,1.09277,293,100.659,8,138.125,0\S,294,1.80646,293,117.571,8,18.8068,0\O,297,1.49707,294,100.581,293,-33.866,0\C,297,1.80694,294,96.2855,293,-137.314,0\H,299,1.09245,297,105.763,294,-61.201,0\H,299,1.09266,297,108.353,294,49.6452,0\H,299,1.09302,297,111.528,294,173.388,0\O,212,2.41546,209,144.85,204,42.58,0\S,303,1.49739,212,100.794,209,-83.8402,0\C,304,1.80683,303,110.125,212,-175.666,0\H,305,1.09305,304,107.282,303,69.5559,0\H,305,1.09332,304,103.965,303,-167.938,0\H,305,1.09386,304,107.804,303,-46.1825,0\C,304,1.80738,303,112.534,212,-68.5887,0\H,309,1.0923,304,104.718,303,-160.777,0\H,309,1.09274,304,116.443,303,82.1605,0\H,309,1.09322,304,105.952,303,-43.4561,0\H,148,2.57847,145,141.359,144,-149.843,0\C,313,1.09329,148,132.986,145,-56.8016,0\H,314,1.09271,313,111.727,148,64.6762,0\H,314,1.09294,313,113.358,148,-164.879,0\S,314,1.80665,313,102.662,148,-52.0934,0\O,317,1.49669,314,107.623,313,-59.032,0\C,317,1.80625,314,97.9164,313,-169.507,0\H,319,1.09265,317,103.519,314,174.946,0\H,319,1.09302,317,108.161,314,-58.9369,0\H,319,1.09331,317,102.212,314,57.6086,0\\\@

 Total job time:  105.88s(wall), 317.63s(cpu) 
 Fri Mar 12 18:16:47 2021

        *************************************************************
        *                                                           *
        *  Thank you very much for using Q-Chem.  Have a nice day.  *
        *                                                           *
        *************************************************************


