                  Welcome to Q-Chem
     A Quantum Leap Into The Future Of Chemistry


 Q-Chem 5.2 (devel), Q-Chem, Inc., Pleasanton, CA (2019)

 Yihan Shao,  Zhengting Gan,  E. Epifanovsky,  A. T. B. Gilbert,  M. Wormit,  
 J. Kussmann,  A. W. Lange,  A. Behn,  Jia Deng,  Xintian Feng,  D. Ghosh,  
 M. Goldey,  P. R. Horn,  L. D. Jacobson,  I. Kaliman,  T. Kus,  A. Landau,  
 Jie Liu,  E. I. Proynov,  R. M. Richard,  R. P. Steele,  E. J. Sundstrom,  
 H. L. Woodcock III,  P. M. Zimmerman,  D. Zuev,  B. Alam,  B. Albrecht,  
 E. Alguire,  S. A. Baeppler,  D. Barton,  Z. Benda,  Y. A. Bernard,  
 E. J. Berquist,  K. B. Bravaya,  H. Burton,  K. Carter-Fenk,  D. Casanova,  
 Chun-Min Chang,  Yunqing Chen,  A. Chien,  K. D. Closser,  M. P. Coons,  
 S. Coriani,  S. Dasgupta,  A. L. Dempwolff,  M. Diedenhofen,  Hainam Do,  
 R. G. Edgar,  Po-Tung Fang,  S. Faraji,  S. Fatehi,  Qingguo Feng,  
 J. Fosso-Tande,  J. Gayvert,  Qinghui Ge,  A. Ghysels,  G. Gidofalvi,  
 J. Gomes,  J. Gonthier,  A. Gunina,  D. Hait,  M. W. D. Hanson-Heine,  
 P. H. P. Harbach,  A. W. Hauser,  M. F. Herbst,  J. E. Herr,  
 E. G. Hohenstein,  Z. C. Holden,  Kerwin Hui,  B. C. Huynh,  T.-C. Jagau,  
 Hyunjun Ji,  B. Kaduk,  K. Khistyaev,  Jaehoon Kim,  P. Klunzinger,  K. Koh,  
 D. Kosenkov,  L. Koulias,  T. Kowalczyk,  C. M. Krauter,  A. Kunitsa,  
 Ka Un Lao,  A. Laurent,  K. V. Lawler,  Joonho Lee,  D. Lefrancois,  
 S. Lehtola,  D. S. Levine,  Yi-Pei Li,  You-Sheng Lin,  Fenglai Liu,  
 Kuan-Yu Liu,  E. Livshits,  M. Loipersberger,  A. Luenser,  P. Manohar,  
 E. Mansoor,  S. F. Manzer,  Shan-Ping Mao,  Yuezhi Mao,  N. Mardirossian,  
 A. V. Marenich,  T. Markovich,  L. A. Martinez-Martinez,  S. A. Maurer,  
 N. J. Mayhall,  S. C. McKenzie,  J.-M. Mewes,  P. Morgante,  A. F. Morrison,  
 J. W. Mullinax,  K. Nanda,  T. S. Nguyen-Beck,  R. Olivares-Amaya,  
 J. A. Parkhill,  S. K. Paul,  F. Pavosevic,  Zheng Pei,  T. M. Perrine,  
 F. Plasser,  P. Pokhilko,  S. Prager,  A. Prociuk,  E. Ramos,  B. Rana,  
 D. R. Rehn,  F. Rob,  M. Scheurer,  M. Schneider,  N. Sergueev,  
 S. M. Sharada,  S. Sharma,  D. W. Small,  T. Stauch,  C. J. Stein,  
 T. Stein,  Yu-Chuan Su,  S. P. Veccham,  Zhen Tao,  A. J. W. Thom,  
 A. Tkatchenko,  T. Tsuchimochi,  N. M. Tubman,  L. Vogt,  M. L. Vidal,  
 O. Vydrov,  M. A. Watson,  J. Wenzel,  M. de Wergifosse,  T. A. Wesolowski,  
 A. White,  J. Witte,  A. Yamada,  Jun Yang,  K. Yao,  S. Yeganeh,  
 S. R. Yost,  Zhi-Qiang You,  A. Zech,  Igor Ying Zhang,  Xing Zhang,  
 Yan Zhao,  Ying Zhu,  B. R. Brooks,  G. K. L. Chan,  C. J. Cramer,  
 M. S. Gordon,  W. J. Hehre,  A. Klamt,  M. W. Schmidt,  C. D. Sherrill,  
 D. G. Truhlar,  A. Aspuru-Guzik,  R. Baer,  A. T. Bell,  N. A. Besley,  
 Jeng-Da Chai,  A. E. DePrince, III,  R. A. DiStasio Jr.,  A. Dreuw,  
 B. D. Dunietz,  T. R. Furlani,  Chao-Ping Hsu,  Yousung Jung,  Jing Kong,  
 D. S. Lambrecht,  WanZhen Liang,  C. Ochsenfeld,  V. A. Rassolov,  
 L. V. Slipchenko,  J. E. Subotnik,  T. Van Voorhis,  J. M. Herbert,  
 A. I. Krylov,  P. M. W. Gill,  M. Head-Gordon

 Contributors to earlier versions of Q-Chem not listed above: 
 R. D. Adamson,  B. Austin,  J. Baker,  G. J. O. Beran,  K. Brandhorst,  
 S. T. Brown,  E. F. C. Byrd,  A. K. Chakraborty,  C.-L. Cheng,  
 Siu Hung Chien,  D. M. Chipman,  D. L. Crittenden,  H. Dachsel,  
 R. J. Doerksen,  A. D. Dutoi,  L. Fusti-Molnar,  W. A. Goddard III,  
 A. Golubeva-Zadorozhnaya,  S. R. Gwaltney,  G. Hawkins,  A. Heyden,  
 S. Hirata,  G. Kedziora,  F. J. Keil,  C. Kelley,  Jihan Kim,  R. A. King,  
 R. Z. Khaliullin,  P. P. Korambath,  W. Kurlancheek,  A. M. Lee,  M. S. Lee,  
 S. V. Levchenko,  Ching Yeh Lin,  D. Liotard,  R. C. Lochan,  I. Lotan,  
 P. E. Maslen,  N. Nair,  D. P. O'Neill,  D. Neuhauser,  E. Neuscamman,  
 C. M. Oana,  R. Olson,  B. Peters,  R. Peverati,  P. A. Pieniazek,  
 Y. M. Rhee,  J. Ritchie,  M. A. Rohrdanz,  E. Rosta,  N. J. Russ,  
 H. F. Schaefer III,  N. E. Schultz,  N. Shenvi,  A. C. Simmonett,  A. Sodt,  
 D. Stuck,  K. S. Thanthiriwatte,  V. Vanovschi,  Tao Wang,  A. Warshel,  
 C. F. Williams,  Q. Wu,  X. Xu,  W. Zhang

 Please cite Q-Chem as follows:
 Y. Shao et al., Mol. Phys. 113, 184-215 (2015)
 DOI: 10.1080/00268976.2014.952696

 Q-Chem 5.2.2 for Intel X86 EM64T Linux

 Parts of Q-Chem use Armadillo 9.800.1 (Horizon Scraper).
 http://arma.sourceforge.net/

 Q-Chem begins on Thu Mar 11 13:37:32 2021  

Host: n0070.mhg0
0

     Scratch files written to /local/scratch/users/ymao/r7.00_frame_0086_almo_B3LYP_dp.in20210311133730//

Checking the input file for inconsistencies... 	...done.

--------------------------------------------------------------
User input:
--------------------------------------------------------------
$molecule
0 1
--
0 1
C    27.85300   28.54700   23.94600  
C    28.50800   29.76800   24.61000  
C    28.48800   29.55900   26.13300  
C    29.24500   28.27500   26.50700  
C    28.63900   27.03200   25.83500  
C    28.53100   27.21700   24.31300  
H    28.91900   30.41800   26.66300  
H    29.50900   29.97300   24.21100  
H    26.78800   28.53500   24.20800  
H    27.83200   28.66300   22.85500  
H    30.23100   28.31400   26.02700  
H    29.39500   28.27700   27.59400  
H    29.13400   26.06100   25.95900  
H    27.60100   26.93500   26.17500  
H    29.53700   27.31300   23.88700  
H    28.03100   26.39600   23.78300  
H    27.46400   29.47300   26.51800  
N    27.68600   30.92400   24.25500  
H    26.81500   30.76400   23.76300  
C    28.09100   32.24200   24.23000  
H    27.33600   32.87900   23.73500  
O    29.11800   32.65800   24.73700  
--
0 1
C    24.42800   33.63100   22.04900  
H    25.27500   34.32200   22.03300  
H    23.59200   34.11700   21.53900  
H    24.12400   33.34100   23.05800  
S    24.98400   32.24300   21.03400  
C    23.46000   31.29700   21.25000  
H    23.56300   30.31100   20.79000  
H    23.31900   31.09800   22.31600  
H    22.55400   31.80400   20.90800  
O    25.97500   31.54000   21.91000  
C    32.26000   30.28600   25.94000  
H    32.94000   30.93300   26.49900  
H    31.28700   30.76800   25.81400  
H    32.03200   29.42400   26.57100  
S    32.88100   29.76800   24.32400  
C    32.59300   31.39900   23.59900  
H    33.01600   31.31000   22.59500  
H    31.53600   31.66900   23.53000  
H    33.18900   32.17600   24.08500  
O    31.78600   28.96600   23.69200  
C    27.65900   23.42000   31.96500  
H    27.99700   22.78300   31.14500  
H    27.35600   22.79800   32.81200  
H    26.79000   24.00300   31.64900  
S    29.01800   24.52000   32.42100  
C    29.95800   23.33600   33.41200  
H    29.27700   22.90000   34.14800  
H    30.38600   22.55000   32.78400  
H    30.74800   23.79900   34.00800  
O    28.33500   25.27700   33.51600  
C    28.74100   37.26500   21.31100  
H    29.40300   38.13000   21.40600  
H    28.87600   36.64500   20.42100  
H    27.71500   37.58400   21.11200  
S    28.74300   36.25600   22.81000  
C    30.36600   35.47300   22.68000  
H    31.17800   36.09700   23.06200  
H    30.30200   34.53600   23.24000  
H    30.46700   35.11200   21.65300  
O    27.80300   35.18800   22.34500  
C    31.86400   31.75500   19.82200  
H    31.84900   30.79600   20.34700  
H    32.43000   31.80500   18.88800  
H    32.23200   32.40600   20.61800  
S    30.10600   32.08000   19.55400  
C    29.50200   31.90300   21.24800  
H    29.88000   32.78900   21.76400  
H    28.40900   31.93400   21.26200  
H    29.86300   30.98600   21.71900  
O    29.57200   30.82100   18.94600  
C    30.77500   32.68700   29.15300  
H    30.66100   31.79700   28.52800  
H    30.99000   32.42900   30.19300  
H    29.80300   33.18600   29.14900  
S    31.99000   33.78400   28.38600  
C    30.96400   33.74900   26.89900  
H    30.01500   34.29200   26.91500  
H    31.50100   34.22400   26.07500  
H    30.83200   32.72800   26.53100  
O    33.22300   32.97200   28.14000  
C    29.46200   23.58300   27.84000  
H    29.89200   24.45700   27.34600  
H    29.66500   22.77100   27.13600  
H    28.38700   23.76000   27.92400  
S    30.11800   23.32300   29.50400  
C    31.82700   23.07800   28.97100  
H    32.37000   22.50500   29.72700  
H    31.68200   22.61900   27.99000  
H    32.16900   24.10100   28.79400  
O    29.74800   21.88400   29.69100  
C    26.52800   26.98400   28.71100  
H    26.27500   26.59600   27.72100  
H    26.77700   28.04800   28.68700  
H    27.36400   26.32800   28.96500  
S    25.22400   26.59500   29.90100  
C    26.17300   27.18200   31.32200  
H    26.75000   28.08600   31.10800  
H    25.34100   27.35600   32.00800  
H    26.75200   26.35400   31.73800  
O    25.36100   25.11000   30.02300  
C    28.51600   22.51500   22.37600  
H    27.45700   22.70500   22.56700  
H    29.03300   23.14700   21.64900  
H    28.56800   21.46300   22.08600  
S    29.35000   22.62700   23.97500  
C    30.84800   21.88300   23.29200  
H    30.64300   20.85900   22.96900  
H    31.13600   22.51000   22.44300  
H    31.60500   21.90100   24.08000  
O    28.76100   21.62700   24.92000  
C    21.57100   37.55600   24.75000  
H    21.51800   37.33600   25.81900  
H    22.54500   38.01100   24.55400  
H    20.69800   38.13800   24.44200  
S    21.74600   35.94500   23.95000  
C    22.07000   36.59800   22.29700  
H    22.37000   35.70000   21.75000  
H    21.05900   36.81900   21.94500  
H    22.80700   37.39700   22.17600  
O    20.28800   35.62600   23.83800  
C    25.37300   22.54300   28.52000  
H    25.43200   22.75600   27.44900  
H    24.52000   22.92300   29.08700  
H    26.27600   22.99300   28.94200  
S    25.38100   20.73700   28.47900  
C    27.06900   20.73300   27.83400  
H    27.64900   20.91300   28.74300  
H    27.28500   19.80700   27.29400  
H    27.13900   21.55600   27.11900  
O    24.51400   20.51000   27.28000  
C    27.97100   37.68400   29.99400  
H    28.29900   37.57600   28.95800  
H    27.11400   38.29700   30.28600  
H    28.87600   38.11500   30.43100  
S    27.82300   35.99300   30.61200  
C    28.80000   36.15000   32.12400  
H    29.49300   36.97500   31.93700  
H    28.09700   36.40900   32.92000  
H    29.29400   35.20200   32.35000  
O    28.80200   35.31800   29.70300  
C    30.04600   38.78400   26.76100  
H    29.73500   39.81100   26.55400  
H    29.13400   38.18100   26.75000  
H    30.55900   38.84100   27.72400  
S    31.08700   38.25100   25.38400  
C    32.44600   39.44100   25.40300  
H    32.01300   40.38900   25.07300  
H    32.68500   39.57600   26.46100  
H    33.24700   39.16700   24.71100  
O    30.16600   38.53500   24.23800  
C    21.52100   25.41500   24.64800  
H    21.59500   24.56700   23.96300  
H    20.53400   25.84800   24.46400  
H    22.25900   26.20000   24.46300  
S    21.73200   24.77400   26.32400  
C    22.84400   23.41800   25.88800  
H    22.41800   22.88000   25.03800  
H    23.83100   23.81600   25.63700  
H    22.87500   22.78000   26.77500  
O    20.52500   23.91900   26.55800  
C    24.95600   35.56000   19.33700  
H    24.53800   36.54300   19.10700  
H    24.14200   34.83500   19.40100  
H    25.55000   35.63100   20.25200  
S    26.02900   35.13000   17.94800  
C    27.07400   34.04400   18.94500  
H    26.46800   33.16300   19.17000  
H    27.90900   33.78400   18.28800  
H    27.51600   34.61800   19.76300  
O    26.87100   36.33300   17.65400  
C    24.39600   25.50500   20.38100  
H    24.11900   25.88400   19.39400  
H    25.45700   25.24900   20.31200  
H    23.72700   24.68400   20.65000  
S    24.42500   26.78600   21.65500  
C    24.53800   25.66800   23.07000  
H    25.50400   25.15900   23.11000  
H    24.55400   26.20600   24.02200  
H    23.76000   24.90500   22.98300  
O    23.07400   27.43100   21.66700  
C    26.99000   39.42500   24.41500  
H    26.64000   40.45100   24.27100  
H    26.98400   39.10000   25.45900  
H    27.98200   39.32600   23.96700  
S    26.02100   38.37100   23.31400  
C    26.16100   39.36800   21.81400  
H    25.56300   40.26900   21.97400  
H    27.16400   39.75400   21.61400  
H    25.76900   38.84800   20.93600  
O    24.62000   38.64100   23.76800  
C    25.70700   30.98000   29.79300  
H    25.80800   31.49800   28.83600  
H    25.43700   29.92600   29.69000  
H    25.14600   31.63000   30.46900  
S    27.33600   30.89200   30.57000  
C    27.41500   32.68900   30.74100  
H    27.58400   33.06200   29.72800  
H    26.50800   33.19600   31.08000  
H    28.26500   33.01300   31.34900  
O    28.20600   30.56000   29.39700  
C    31.85500   28.07400   17.72600  
H    31.97200   28.31000   16.66500  
H    31.17700   27.22100   17.81300  
H    31.45000   28.88300   18.33800  
S    33.41600   27.50100   18.43400  
C    33.47900   25.92600   17.55100  
H    34.46500   25.51600   17.78200  
H    32.60400   25.41600   17.96100  
H    33.32400   26.18900   16.50100  
O    33.12300   27.29300   19.88700  
C    29.97300   27.76400   20.82400  
H    30.38900   28.65100   20.34000  
H    29.38200   28.13100   21.66700  
H    30.78700   27.21300   21.30400  
S    28.97500   26.79800   19.66800  
C    27.72200   28.09500   19.55700  
H    26.84800   27.82500   18.95900  
H    27.51100   28.21700   20.62300  
H    28.18900   29.00600   19.17300  
O    28.21500   25.77200   20.44800  
C    32.93500   25.07300   23.94500  
H    32.77700   24.30500   23.18300  
H    32.65500   26.03900   23.51600  
H    33.99100   25.07700   24.22900  
S    31.96800   24.65300   25.41200  
C    32.55000   26.03300   26.42300  
H    33.64200   26.05300   26.45700  
H    32.22500   26.97900   25.98300  
H    32.16500   25.81400   27.42200  
O    32.72300   23.45500   25.89800  
C    23.48500   30.58100   26.92000  
H    23.71600   30.73000   27.97700  
H    23.73400   31.44000   26.29100  
H    22.42800   30.34900   26.76800  
S    24.55900   29.26800   26.29700  
C    23.78800   29.28700   24.66300  
H    22.86200   28.70800   24.62300  
H    23.71000   30.33200   24.35100  
H    24.50600   28.76400   24.02600  
O    24.28200   27.92000   26.88700  
C    25.52900   35.92100   25.76300  
H    24.61000   36.19800   25.24100  
H    25.55500   36.54900   26.65700  
H    26.34500   36.13700   25.06900  
S    25.47200   34.22000   26.36900  
C    27.21800   34.22100   26.83800  
H    27.70500   34.27000   25.86100  
H    27.32100   35.15800   27.39200  
H    27.51200   33.34200   27.41600  
O    25.25500   33.32500   25.18900  
C    24.33700   30.71900   17.70000  
H    24.79900   30.52300   18.67100  
H    25.15600   31.03700   17.04900  
H    23.61000   31.53500   17.69800  
S    23.55700   29.22100   17.05800  
C    22.38700   29.02000   18.42000  
H    21.53300   29.70000   18.46800  
H    22.04300   28.00000   18.23400  
H    22.92000   28.96200   19.37300  
O    24.64100   28.20200   17.22400  
C    22.34400   20.17400   22.72600  
H    22.16900   20.18100   23.80500  
H    21.49900   20.59100   22.17300  
H    22.42500   19.16700   22.31000  
S    23.80300   21.16600   22.33500  
C    24.71600   20.30300   23.63300  
H    24.79300   19.22600   23.46300  
H    25.70200   20.77400   23.65800  
H    24.29000   20.45700   24.62800  
O    23.44800   22.52300   22.85900  
C    31.33400   29.05000   29.65600  
H    31.63600   29.59500   30.55400  
H    32.17700   28.73300   29.03700  
H    30.70400   29.64700   28.99200  
S    30.52800   27.46300   29.97000  
C    29.84000   27.85200   31.59500  
H    29.25700   28.77100   31.49500  
H    29.25100   27.05900   32.06300  
H    30.70700   28.01300   32.24200  
O    31.67200   26.54400   30.26600  
$end

$rem
JOBTYPE  SP
METHOD  B3LYP
BASIS  6-31+G(D)
SYMMETRY  FALSE
SYM_IGNORE  TRUE
MEM_TOTAL  16000
MEM_STATIC  8000
MAX_SUB_FILE_NUM  16000
BASIS_LIN_DEP_THRESH  6
THRESH  14
SCF_CONVERGENCE  8
GEN_SCFMAN  TRUE
SCF_GUESS  FRAGMO
FD_MAT_VEC_PROD  FALSE
XC_GRID  000075000302
NL_GRID  1
MAX_SCF_CYCLES  200
FRGM_METHOD  STOLL
SCFMI_MODE  1
$end

$development
almo_efield  1
$end

$rem_frgm
SCF_CONVERGENCE  4
$end

--------------------------------------------------------------
 ----------------------------------------------------------------
             Standard Nuclear Orientation (Angstroms)
    I     Atom           X                Y                Z
 ----------------------------------------------------------------
    1      C      27.8530000000    28.5470000000    23.9460000000
    2      C      28.5080000000    29.7680000000    24.6100000000
    3      C      28.4880000000    29.5590000000    26.1330000000
    4      C      29.2450000000    28.2750000000    26.5070000000
    5      C      28.6390000000    27.0320000000    25.8350000000
    6      C      28.5310000000    27.2170000000    24.3130000000
    7      H      28.9190000000    30.4180000000    26.6630000000
    8      H      29.5090000000    29.9730000000    24.2110000000
    9      H      26.7880000000    28.5350000000    24.2080000000
   10      H      27.8320000000    28.6630000000    22.8550000000
   11      H      30.2310000000    28.3140000000    26.0270000000
   12      H      29.3950000000    28.2770000000    27.5940000000
   13      H      29.1340000000    26.0610000000    25.9590000000
   14      H      27.6010000000    26.9350000000    26.1750000000
   15      H      29.5370000000    27.3130000000    23.8870000000
   16      H      28.0310000000    26.3960000000    23.7830000000
   17      H      27.4640000000    29.4730000000    26.5180000000
   18      N      27.6860000000    30.9240000000    24.2550000000
   19      H      26.8150000000    30.7640000000    23.7630000000
   20      C      28.0910000000    32.2420000000    24.2300000000
   21      H      27.3360000000    32.8790000000    23.7350000000
   22      O      29.1180000000    32.6580000000    24.7370000000
   23      C      24.4280000000    33.6310000000    22.0490000000
   24      H      25.2750000000    34.3220000000    22.0330000000
   25      H      23.5920000000    34.1170000000    21.5390000000
   26      H      24.1240000000    33.3410000000    23.0580000000
   27      S      24.9840000000    32.2430000000    21.0340000000
   28      C      23.4600000000    31.2970000000    21.2500000000
   29      H      23.5630000000    30.3110000000    20.7900000000
   30      H      23.3190000000    31.0980000000    22.3160000000
   31      H      22.5540000000    31.8040000000    20.9080000000
   32      O      25.9750000000    31.5400000000    21.9100000000
   33      C      32.2600000000    30.2860000000    25.9400000000
   34      H      32.9400000000    30.9330000000    26.4990000000
   35      H      31.2870000000    30.7680000000    25.8140000000
   36      H      32.0320000000    29.4240000000    26.5710000000
   37      S      32.8810000000    29.7680000000    24.3240000000
   38      C      32.5930000000    31.3990000000    23.5990000000
   39      H      33.0160000000    31.3100000000    22.5950000000
   40      H      31.5360000000    31.6690000000    23.5300000000
   41      H      33.1890000000    32.1760000000    24.0850000000
   42      O      31.7860000000    28.9660000000    23.6920000000
   43      C      27.6590000000    23.4200000000    31.9650000000
   44      H      27.9970000000    22.7830000000    31.1450000000
   45      H      27.3560000000    22.7980000000    32.8120000000
   46      H      26.7900000000    24.0030000000    31.6490000000
   47      S      29.0180000000    24.5200000000    32.4210000000
   48      C      29.9580000000    23.3360000000    33.4120000000
   49      H      29.2770000000    22.9000000000    34.1480000000
   50      H      30.3860000000    22.5500000000    32.7840000000
   51      H      30.7480000000    23.7990000000    34.0080000000
   52      O      28.3350000000    25.2770000000    33.5160000000
   53      C      28.7410000000    37.2650000000    21.3110000000
   54      H      29.4030000000    38.1300000000    21.4060000000
   55      H      28.8760000000    36.6450000000    20.4210000000
   56      H      27.7150000000    37.5840000000    21.1120000000
   57      S      28.7430000000    36.2560000000    22.8100000000
   58      C      30.3660000000    35.4730000000    22.6800000000
   59      H      31.1780000000    36.0970000000    23.0620000000
   60      H      30.3020000000    34.5360000000    23.2400000000
   61      H      30.4670000000    35.1120000000    21.6530000000
   62      O      27.8030000000    35.1880000000    22.3450000000
   63      C      31.8640000000    31.7550000000    19.8220000000
   64      H      31.8490000000    30.7960000000    20.3470000000
   65      H      32.4300000000    31.8050000000    18.8880000000
   66      H      32.2320000000    32.4060000000    20.6180000000
   67      S      30.1060000000    32.0800000000    19.5540000000
   68      C      29.5020000000    31.9030000000    21.2480000000
   69      H      29.8800000000    32.7890000000    21.7640000000
   70      H      28.4090000000    31.9340000000    21.2620000000
   71      H      29.8630000000    30.9860000000    21.7190000000
   72      O      29.5720000000    30.8210000000    18.9460000000
   73      C      30.7750000000    32.6870000000    29.1530000000
   74      H      30.6610000000    31.7970000000    28.5280000000
   75      H      30.9900000000    32.4290000000    30.1930000000
   76      H      29.8030000000    33.1860000000    29.1490000000
   77      S      31.9900000000    33.7840000000    28.3860000000
   78      C      30.9640000000    33.7490000000    26.8990000000
   79      H      30.0150000000    34.2920000000    26.9150000000
   80      H      31.5010000000    34.2240000000    26.0750000000
   81      H      30.8320000000    32.7280000000    26.5310000000
   82      O      33.2230000000    32.9720000000    28.1400000000
   83      C      29.4620000000    23.5830000000    27.8400000000
   84      H      29.8920000000    24.4570000000    27.3460000000
   85      H      29.6650000000    22.7710000000    27.1360000000
   86      H      28.3870000000    23.7600000000    27.9240000000
   87      S      30.1180000000    23.3230000000    29.5040000000
   88      C      31.8270000000    23.0780000000    28.9710000000
   89      H      32.3700000000    22.5050000000    29.7270000000
   90      H      31.6820000000    22.6190000000    27.9900000000
   91      H      32.1690000000    24.1010000000    28.7940000000
   92      O      29.7480000000    21.8840000000    29.6910000000
   93      C      26.5280000000    26.9840000000    28.7110000000
   94      H      26.2750000000    26.5960000000    27.7210000000
   95      H      26.7770000000    28.0480000000    28.6870000000
   96      H      27.3640000000    26.3280000000    28.9650000000
   97      S      25.2240000000    26.5950000000    29.9010000000
   98      C      26.1730000000    27.1820000000    31.3220000000
   99      H      26.7500000000    28.0860000000    31.1080000000
  100      H      25.3410000000    27.3560000000    32.0080000000
  101      H      26.7520000000    26.3540000000    31.7380000000
  102      O      25.3610000000    25.1100000000    30.0230000000
  103      C      28.5160000000    22.5150000000    22.3760000000
  104      H      27.4570000000    22.7050000000    22.5670000000
  105      H      29.0330000000    23.1470000000    21.6490000000
  106      H      28.5680000000    21.4630000000    22.0860000000
  107      S      29.3500000000    22.6270000000    23.9750000000
  108      C      30.8480000000    21.8830000000    23.2920000000
  109      H      30.6430000000    20.8590000000    22.9690000000
  110      H      31.1360000000    22.5100000000    22.4430000000
  111      H      31.6050000000    21.9010000000    24.0800000000
  112      O      28.7610000000    21.6270000000    24.9200000000
  113      C      21.5710000000    37.5560000000    24.7500000000
  114      H      21.5180000000    37.3360000000    25.8190000000
  115      H      22.5450000000    38.0110000000    24.5540000000
  116      H      20.6980000000    38.1380000000    24.4420000000
  117      S      21.7460000000    35.9450000000    23.9500000000
  118      C      22.0700000000    36.5980000000    22.2970000000
  119      H      22.3700000000    35.7000000000    21.7500000000
  120      H      21.0590000000    36.8190000000    21.9450000000
  121      H      22.8070000000    37.3970000000    22.1760000000
  122      O      20.2880000000    35.6260000000    23.8380000000
  123      C      25.3730000000    22.5430000000    28.5200000000
  124      H      25.4320000000    22.7560000000    27.4490000000
  125      H      24.5200000000    22.9230000000    29.0870000000
  126      H      26.2760000000    22.9930000000    28.9420000000
  127      S      25.3810000000    20.7370000000    28.4790000000
  128      C      27.0690000000    20.7330000000    27.8340000000
  129      H      27.6490000000    20.9130000000    28.7430000000
  130      H      27.2850000000    19.8070000000    27.2940000000
  131      H      27.1390000000    21.5560000000    27.1190000000
  132      O      24.5140000000    20.5100000000    27.2800000000
  133      C      27.9710000000    37.6840000000    29.9940000000
  134      H      28.2990000000    37.5760000000    28.9580000000
  135      H      27.1140000000    38.2970000000    30.2860000000
  136      H      28.8760000000    38.1150000000    30.4310000000
  137      S      27.8230000000    35.9930000000    30.6120000000
  138      C      28.8000000000    36.1500000000    32.1240000000
  139      H      29.4930000000    36.9750000000    31.9370000000
  140      H      28.0970000000    36.4090000000    32.9200000000
  141      H      29.2940000000    35.2020000000    32.3500000000
  142      O      28.8020000000    35.3180000000    29.7030000000
  143      C      30.0460000000    38.7840000000    26.7610000000
  144      H      29.7350000000    39.8110000000    26.5540000000
  145      H      29.1340000000    38.1810000000    26.7500000000
  146      H      30.5590000000    38.8410000000    27.7240000000
  147      S      31.0870000000    38.2510000000    25.3840000000
  148      C      32.4460000000    39.4410000000    25.4030000000
  149      H      32.0130000000    40.3890000000    25.0730000000
  150      H      32.6850000000    39.5760000000    26.4610000000
  151      H      33.2470000000    39.1670000000    24.7110000000
  152      O      30.1660000000    38.5350000000    24.2380000000
  153      C      21.5210000000    25.4150000000    24.6480000000
  154      H      21.5950000000    24.5670000000    23.9630000000
  155      H      20.5340000000    25.8480000000    24.4640000000
  156      H      22.2590000000    26.2000000000    24.4630000000
  157      S      21.7320000000    24.7740000000    26.3240000000
  158      C      22.8440000000    23.4180000000    25.8880000000
  159      H      22.4180000000    22.8800000000    25.0380000000
  160      H      23.8310000000    23.8160000000    25.6370000000
  161      H      22.8750000000    22.7800000000    26.7750000000
  162      O      20.5250000000    23.9190000000    26.5580000000
  163      C      24.9560000000    35.5600000000    19.3370000000
  164      H      24.5380000000    36.5430000000    19.1070000000
  165      H      24.1420000000    34.8350000000    19.4010000000
  166      H      25.5500000000    35.6310000000    20.2520000000
  167      S      26.0290000000    35.1300000000    17.9480000000
  168      C      27.0740000000    34.0440000000    18.9450000000
  169      H      26.4680000000    33.1630000000    19.1700000000
  170      H      27.9090000000    33.7840000000    18.2880000000
  171      H      27.5160000000    34.6180000000    19.7630000000
  172      O      26.8710000000    36.3330000000    17.6540000000
  173      C      24.3960000000    25.5050000000    20.3810000000
  174      H      24.1190000000    25.8840000000    19.3940000000
  175      H      25.4570000000    25.2490000000    20.3120000000
  176      H      23.7270000000    24.6840000000    20.6500000000
  177      S      24.4250000000    26.7860000000    21.6550000000
  178      C      24.5380000000    25.6680000000    23.0700000000
  179      H      25.5040000000    25.1590000000    23.1100000000
  180      H      24.5540000000    26.2060000000    24.0220000000
  181      H      23.7600000000    24.9050000000    22.9830000000
  182      O      23.0740000000    27.4310000000    21.6670000000
  183      C      26.9900000000    39.4250000000    24.4150000000
  184      H      26.6400000000    40.4510000000    24.2710000000
  185      H      26.9840000000    39.1000000000    25.4590000000
  186      H      27.9820000000    39.3260000000    23.9670000000
  187      S      26.0210000000    38.3710000000    23.3140000000
  188      C      26.1610000000    39.3680000000    21.8140000000
  189      H      25.5630000000    40.2690000000    21.9740000000
  190      H      27.1640000000    39.7540000000    21.6140000000
  191      H      25.7690000000    38.8480000000    20.9360000000
  192      O      24.6200000000    38.6410000000    23.7680000000
  193      C      25.7070000000    30.9800000000    29.7930000000
  194      H      25.8080000000    31.4980000000    28.8360000000
  195      H      25.4370000000    29.9260000000    29.6900000000
  196      H      25.1460000000    31.6300000000    30.4690000000
  197      S      27.3360000000    30.8920000000    30.5700000000
  198      C      27.4150000000    32.6890000000    30.7410000000
  199      H      27.5840000000    33.0620000000    29.7280000000
  200      H      26.5080000000    33.1960000000    31.0800000000
  201      H      28.2650000000    33.0130000000    31.3490000000
  202      O      28.2060000000    30.5600000000    29.3970000000
  203      C      31.8550000000    28.0740000000    17.7260000000
  204      H      31.9720000000    28.3100000000    16.6650000000
  205      H      31.1770000000    27.2210000000    17.8130000000
  206      H      31.4500000000    28.8830000000    18.3380000000
  207      S      33.4160000000    27.5010000000    18.4340000000
  208      C      33.4790000000    25.9260000000    17.5510000000
  209      H      34.4650000000    25.5160000000    17.7820000000
  210      H      32.6040000000    25.4160000000    17.9610000000
  211      H      33.3240000000    26.1890000000    16.5010000000
  212      O      33.1230000000    27.2930000000    19.8870000000
  213      C      29.9730000000    27.7640000000    20.8240000000
  214      H      30.3890000000    28.6510000000    20.3400000000
  215      H      29.3820000000    28.1310000000    21.6670000000
  216      H      30.7870000000    27.2130000000    21.3040000000
  217      S      28.9750000000    26.7980000000    19.6680000000
  218      C      27.7220000000    28.0950000000    19.5570000000
  219      H      26.8480000000    27.8250000000    18.9590000000
  220      H      27.5110000000    28.2170000000    20.6230000000
  221      H      28.1890000000    29.0060000000    19.1730000000
  222      O      28.2150000000    25.7720000000    20.4480000000
  223      C      32.9350000000    25.0730000000    23.9450000000
  224      H      32.7770000000    24.3050000000    23.1830000000
  225      H      32.6550000000    26.0390000000    23.5160000000
  226      H      33.9910000000    25.0770000000    24.2290000000
  227      S      31.9680000000    24.6530000000    25.4120000000
  228      C      32.5500000000    26.0330000000    26.4230000000
  229      H      33.6420000000    26.0530000000    26.4570000000
  230      H      32.2250000000    26.9790000000    25.9830000000
  231      H      32.1650000000    25.8140000000    27.4220000000
  232      O      32.7230000000    23.4550000000    25.8980000000
  233      C      23.4850000000    30.5810000000    26.9200000000
  234      H      23.7160000000    30.7300000000    27.9770000000
  235      H      23.7340000000    31.4400000000    26.2910000000
  236      H      22.4280000000    30.3490000000    26.7680000000
  237      S      24.5590000000    29.2680000000    26.2970000000
  238      C      23.7880000000    29.2870000000    24.6630000000
  239      H      22.8620000000    28.7080000000    24.6230000000
  240      H      23.7100000000    30.3320000000    24.3510000000
  241      H      24.5060000000    28.7640000000    24.0260000000
  242      O      24.2820000000    27.9200000000    26.8870000000
  243      C      25.5290000000    35.9210000000    25.7630000000
  244      H      24.6100000000    36.1980000000    25.2410000000
  245      H      25.5550000000    36.5490000000    26.6570000000
  246      H      26.3450000000    36.1370000000    25.0690000000
  247      S      25.4720000000    34.2200000000    26.3690000000
  248      C      27.2180000000    34.2210000000    26.8380000000
  249      H      27.7050000000    34.2700000000    25.8610000000
  250      H      27.3210000000    35.1580000000    27.3920000000
  251      H      27.5120000000    33.3420000000    27.4160000000
  252      O      25.2550000000    33.3250000000    25.1890000000
  253      C      24.3370000000    30.7190000000    17.7000000000
  254      H      24.7990000000    30.5230000000    18.6710000000
  255      H      25.1560000000    31.0370000000    17.0490000000
  256      H      23.6100000000    31.5350000000    17.6980000000
  257      S      23.5570000000    29.2210000000    17.0580000000
  258      C      22.3870000000    29.0200000000    18.4200000000
  259      H      21.5330000000    29.7000000000    18.4680000000
  260      H      22.0430000000    28.0000000000    18.2340000000
  261      H      22.9200000000    28.9620000000    19.3730000000
  262      O      24.6410000000    28.2020000000    17.2240000000
  263      C      22.3440000000    20.1740000000    22.7260000000
  264      H      22.1690000000    20.1810000000    23.8050000000
  265      H      21.4990000000    20.5910000000    22.1730000000
  266      H      22.4250000000    19.1670000000    22.3100000000
  267      S      23.8030000000    21.1660000000    22.3350000000
  268      C      24.7160000000    20.3030000000    23.6330000000
  269      H      24.7930000000    19.2260000000    23.4630000000
  270      H      25.7020000000    20.7740000000    23.6580000000
  271      H      24.2900000000    20.4570000000    24.6280000000
  272      O      23.4480000000    22.5230000000    22.8590000000
  273      C      31.3340000000    29.0500000000    29.6560000000
  274      H      31.6360000000    29.5950000000    30.5540000000
  275      H      32.1770000000    28.7330000000    29.0370000000
  276      H      30.7040000000    29.6470000000    28.9920000000
  277      S      30.5280000000    27.4630000000    29.9700000000
  278      C      29.8400000000    27.8520000000    31.5950000000
  279      H      29.2570000000    28.7710000000    31.4950000000
  280      H      29.2510000000    27.0590000000    32.0630000000
  281      H      30.7070000000    28.0130000000    32.2420000000
  282      O      31.6720000000    26.5440000000    30.2660000000
 ----------------------------------------------------------------
 Nuclear Repulsion Energy =       44927.12793341 hartrees
 There are      581 alpha and      581 beta electrons
 Requested basis set is 6-31+G(d)
 There are 929 shells and 2589 basis functions

 Total QAlloc Memory Limit  16000 MB
 Mega-Array Size      7821 MB
 MEM_STATIC part      8000 MB
 A cutoff of  1.0D-14 yielded 164685 shell pairs
 There are   1422463 function pairs
 Smallest overlap matrix eigenvalue = 3.23E-07
 Linear dependence detected in AO basis
 Tighter screening thresholds may be required for diffuse basis sets
 Use S2THRESH > 14 and THRESH = 14 in case of SCF convergence issues
 Number of orthogonalized atomic orbitals = 2586
 Maximum deviation from orthogonality = 1.159E-10

 Scale SEOQF with 1.000000e-03/1.000000e-03/1.000000e-03

 Standard Electronic Orientation quadrupole field applied
 Nucleus-field energy     =     0.0000002801 hartrees
Attempting to make child job directory: /local/scratch/users/ymao/r7.00_frame_0086_almo_B3LYP_dp.in20210311133730//Frg1/
Attempting to make child job directory: /local/scratch/users/ymao/r7.00_frame_0086_almo_B3LYP_dp.in20210311133730//Frg2/
Creating input file /local/scratch/users/ymao/r7.00_frame_0086_almo_B3LYP_dp.in20210311133730/Frg1.input
using default PutDataFrgm: nothing
calling putenv with: QCSCRATCH=/local/scratch/users/ymao/r7.00_frame_0086_almo_B3LYP_dp.in20210311133730/ 
Spawning Job For Fragment 0
Done Job For Fragment 0
calling putenv with: QCSCRATCH=/local/scratch/users/ymao 
calling putenv with: QCTHREADS=8 
Creating input file /local/scratch/users/ymao/r7.00_frame_0086_almo_B3LYP_dp.in20210311133730/Frg2.input
using default PutDataFrgm: nothing
calling putenv with: QCSCRATCH=/local/scratch/users/ymao/r7.00_frame_0086_almo_B3LYP_dp.in20210311133730/ 
Spawning Job For Fragment 1
Done Job For Fragment 1
calling putenv with: QCSCRATCH=/local/scratch/users/ymao 
calling putenv with: QCTHREADS=8 
 Time for running child jobs:  CPU 1.09 s  wall 22860.47 s

 -----------------------------------------------------------------------
  General SCF calculation program by
  Eric Jon Sundstrom, Paul Horn, Yuezhi Mao, Dmitri Zuev, Alec White,
  David Stuck, Shaama M.S., Shane Yost, Joonho Lee, David Small,
  Daniel Levine, Susi Lehtola, Hugh Burton, Evgeny Epifanovsky,
  Bang C. Huynh
 -----------------------------------------------------------------------
Performing Restricted Closed Shell SCFMI
Doing General SCFMI
 Exchange:     0.2000 Hartree-Fock + 0.0800 Slater + 0.7200 B88
 Correlation:  0.1900 VWN1RPA + 0.8100 LYP
 Using Euler-Maclaurin-Lebedev (75,302) quadrature formula
performing fock build before subrot guess so that all methods have access
Printing subrot_rss_gen Method Specification:
Occupied Subspace Method is 0
Virtual Subspace Method is 0
Energy prior to optimization (guess energy) = -14787.530254386795
Begin Timing: Total SCF Calculation
begin iterations for algorithm: DIIS         
the SCF tolerance is set to 1.00e-08
    1  -14787.5302543868      6.07e-05     00000 
    2  -14787.5210830355      1.08e-04     00000 
    3  -14787.5482402147      1.72e-05     00000 
    4  -14787.5489126233      7.93e-06     00000 
    5  -14787.5490632029      4.38e-06     00000 
    6  -14787.5491060054      2.40e-06     00000 
    7  -14787.5491218183      1.14e-06     00000 
    8  -14787.5491259123      6.59e-07     00000 
    9  -14787.5491268129      4.74e-07     00000 
   10  -14787.5491271636      3.22e-07     00000 
   11  -14787.5491273765      1.67e-07     00000 
   12  -14787.5491274412      1.01e-07     00000 
   13  -14787.5491274612      7.18e-08     00000 
   14  -14787.5491274708      4.46e-08     00000 
   15  -14787.5491274753      2.39e-08     00000 
   16  -14787.5491274766      1.18e-08     00000 
   17  -14787.5491274768      8.23e-09     00000 Convergence criterion met
write pseudocanon occs and virts to disk
write pseudocanon orbital energies to disk
Timing for Total SCF: 51918.00s (wall), 411198.41s (cpu)
SCFMI Energy  -14787.5491274768
<S^2>            0.00000
 Total energy in the final basis set =   -14787.5491274768
    ==================================================
        The end of Object-Oriented SCFman: SCFMI      
    ==================================================
 
 --------------------------------------------------------------
 
                    Orbital Energies (a.u.)
 --------------------------------------------------------------
 
 Alpha MOs
 -- Occupied --
-89.0515 -89.0488 -89.0313 -89.0308 -89.0194 -89.0191 -89.0152 -89.0104
-89.0087 -89.0053 -89.0041 -89.0002 -88.9990 -88.9936 -88.9924 -88.9902
-88.9896 -88.9831 -88.9811 -88.9801 -88.9783 -88.9757 -88.9745 -88.9709
-88.9503 -88.9469 -19.1659 -19.1591 -19.1465 -19.1429 -19.1392 -19.1302
-19.1282 -19.1272 -19.1259 -19.1243 -19.1242 -19.1204 -19.1176 -19.1174
-19.1162 -19.1058 -19.1048 -19.1047 -19.1043 -19.1036 -19.0967 -19.0960
-19.0949 -19.0844 -19.0800 -19.0668 -19.0556 -14.3481 -10.2773 -10.2725
-10.2720 -10.2710 -10.2684 -10.2474 -10.2470 -10.2456 -10.2456 -10.2381
-10.2353 -10.2344 -10.2339 -10.2332 -10.2305 -10.2267 -10.2250 -10.2221
-10.2204 -10.2190 -10.2180 -10.2172 -10.2166 -10.2162 -10.2156 -10.2135
-10.2132 -10.2126 -10.2125 -10.2118 -10.2099 -10.2097 -10.2081 -10.2079
-10.2035 -10.2021 -10.1992 -10.1991 -10.1987 -10.1961 -10.1927 -10.1909
-10.1880 -10.1867 -10.1864 -10.1861 -10.1851 -10.1816 -10.1806 -10.1786
-10.1776 -10.1757 -10.1738 -10.1733 -10.1713 -10.1689 -10.1643 -10.1616
-10.1571  -8.0983  -8.0949  -8.0772  -8.0768  -8.0649  -8.0644  -8.0606
 -8.0558  -8.0548  -8.0513  -8.0493  -8.0468  -8.0450  -8.0406  -8.0385
 -8.0360  -8.0359  -8.0292  -8.0271  -8.0263  -8.0238  -8.0221  -8.0201
 -8.0175  -7.9969  -7.9933  -6.0626  -6.0614  -6.0594  -6.0582  -6.0557
 -6.0518  -6.0416  -6.0410  -6.0403  -6.0398  -6.0344  -6.0344  -6.0294
 -6.0288  -6.0279  -6.0276  -6.0249  -6.0236  -6.0223  -6.0217  -6.0201
 -6.0192  -6.0189  -6.0182  -6.0179  -6.0156  -6.0144  -6.0137  -6.0134
 -6.0123  -6.0122  -6.0108  -6.0099  -6.0092  -6.0088  -6.0082  -6.0070
 -6.0049  -6.0045  -6.0037  -6.0030  -6.0024  -6.0016  -6.0003  -6.0001
 -5.9992  -5.9990  -5.9978  -5.9957  -5.9935  -5.9934  -5.9933  -5.9921
 -5.9913  -5.9907  -5.9902  -5.9893  -5.9882  -5.9869  -5.9867  -5.9864
 -5.9850  -5.9847  -5.9846  -5.9837  -5.9832  -5.9818  -5.9815  -5.9804
 -5.9795  -5.9773  -5.9751  -5.9612  -5.9597  -5.9575  -5.9563  -5.9547
 -5.9508  -1.0761  -1.0750  -1.0562  -1.0546  -1.0447  -1.0427  -1.0404
 -1.0389  -1.0334  -1.0322  -1.0296  -1.0290  -1.0222  -1.0222  -1.0213
 -1.0207  -1.0151  -1.0142  -1.0099  -1.0084  -1.0080  -1.0034  -1.0011
 -1.0005  -0.9964  -0.9777  -0.9688  -0.9160  -0.8516  -0.8511  -0.8362
 -0.8319  -0.8297  -0.8192  -0.8152  -0.8117  -0.8103  -0.8097  -0.8091
 -0.8079  -0.8066  -0.8054  -0.7993  -0.7944  -0.7920  -0.7907  -0.7892
 -0.7858  -0.7844  -0.7833  -0.7821  -0.7770  -0.7769  -0.7687  -0.7672
 -0.7605  -0.7562  -0.7551  -0.7504  -0.7458  -0.7449  -0.7388  -0.7387
 -0.7373  -0.7345  -0.7331  -0.7318  -0.7299  -0.7289  -0.7278  -0.7222
 -0.7217  -0.7187  -0.7172  -0.7087  -0.7062  -0.7001  -0.6992  -0.6988
 -0.6955  -0.6921  -0.6753  -0.6696  -0.6662  -0.6629  -0.6459  -0.6449
 -0.6337  -0.6325  -0.6281  -0.6257  -0.6252  -0.6202  -0.6176  -0.6169
 -0.6122  -0.6099  -0.6097  -0.6058  -0.6052  -0.6031  -0.6024  -0.5956
 -0.5946  -0.5922  -0.5899  -0.5891  -0.5851  -0.5831  -0.5695  -0.5633
 -0.5600  -0.5588  -0.5349  -0.5307  -0.5245  -0.5225  -0.5209  -0.5184
 -0.5154  -0.5139  -0.5132  -0.5045  -0.5023  -0.4997  -0.4979  -0.4962
 -0.4957  -0.4942  -0.4929  -0.4915  -0.4904  -0.4898  -0.4879  -0.4867
 -0.4855  -0.4849  -0.4843  -0.4810  -0.4806  -0.4794  -0.4785  -0.4773
 -0.4761  -0.4759  -0.4755  -0.4742  -0.4737  -0.4732  -0.4721  -0.4716
 -0.4714  -0.4710  -0.4695  -0.4693  -0.4687  -0.4685  -0.4678  -0.4673
 -0.4657  -0.4650  -0.4644  -0.4638  -0.4633  -0.4626  -0.4617  -0.4612
 -0.4608  -0.4597  -0.4592  -0.4587  -0.4586  -0.4579  -0.4567  -0.4560
 -0.4557  -0.4555  -0.4548  -0.4543  -0.4535  -0.4527  -0.4506  -0.4501
 -0.4484  -0.4481  -0.4462  -0.4461  -0.4457  -0.4453  -0.4436  -0.4425
 -0.4421  -0.4420  -0.4411  -0.4407  -0.4406  -0.4382  -0.4374  -0.4372
 -0.4368  -0.4364  -0.4351  -0.4336  -0.4334  -0.4331  -0.4327  -0.4320
 -0.4310  -0.4300  -0.4296  -0.4294  -0.4289  -0.4282  -0.4268  -0.4268
 -0.4242  -0.4235  -0.4225  -0.4215  -0.4209  -0.4200  -0.4186  -0.4178
 -0.4161  -0.4156  -0.4146  -0.4142  -0.4138  -0.4136  -0.4125  -0.4118
 -0.4115  -0.4109  -0.4106  -0.4099  -0.4098  -0.4092  -0.4076  -0.4063
 -0.4037  -0.4033  -0.4031  -0.4020  -0.4020  -0.4011  -0.4003  -0.3998
 -0.3987  -0.3973  -0.3965  -0.3963  -0.3962  -0.3947  -0.3934  -0.3927
 -0.3915  -0.3907  -0.3899  -0.3883  -0.3882  -0.3869  -0.3868  -0.3850
 -0.3846  -0.3842  -0.3839  -0.3829  -0.3795  -0.3789  -0.3782  -0.3777
 -0.3764  -0.3760  -0.3749  -0.3747  -0.3738  -0.3733  -0.3728  -0.3713
 -0.3688  -0.3685  -0.3677  -0.3674  -0.3669  -0.3635  -0.3629  -0.3626
 -0.3625  -0.3611  -0.3608  -0.3587  -0.3547  -0.3525  -0.3524  -0.3482
 -0.3474  -0.3459  -0.3450  -0.3428  -0.3394  -0.3391  -0.3384  -0.3369
 -0.3326  -0.3317  -0.3302  -0.3219  -0.3155  -0.3154  -0.3118  -0.3060
 -0.3055  -0.3044  -0.3027  -0.3002  -0.2927  -0.2909  -0.2902  -0.2861
 -0.2842  -0.2838  -0.2833  -0.2820  -0.2781  -0.2780  -0.2768  -0.2751
 -0.2703  -0.2667  -0.2649  -0.2646  -0.2636  -0.2629  -0.2612  -0.2590
 -0.2579  -0.2567  -0.2565  -0.2557  -0.2549  -0.2541  -0.2491  -0.2472
 -0.2461  -0.2455  -0.2447  -0.2392  -0.2389  -0.2387  -0.2348  -0.2347
 -0.2343  -0.2307  -0.2303  -0.2256  -0.2235  -0.2226  -0.2211  -0.2208
 -0.2157  -0.2129  -0.2080  -0.1973  -0.1852
 -- Virtual --
 -0.0609  -0.0507  -0.0455  -0.0420  -0.0391  -0.0311  -0.0298  -0.0291
 -0.0279  -0.0269  -0.0249  -0.0221  -0.0192  -0.0171  -0.0157  -0.0133
 -0.0115  -0.0104  -0.0095  -0.0087  -0.0075  -0.0061  -0.0049  -0.0041
 -0.0038  -0.0018  -0.0013   0.0002   0.0013   0.0026   0.0037   0.0043
  0.0051   0.0059   0.0068   0.0075   0.0084   0.0088   0.0105   0.0112
  0.0116   0.0119   0.0131   0.0144   0.0147   0.0150   0.0159   0.0162
  0.0169   0.0173   0.0179   0.0182   0.0192   0.0195   0.0204   0.0210
  0.0222   0.0226   0.0235   0.0246   0.0251   0.0254   0.0258   0.0266
  0.0274   0.0277   0.0282   0.0291   0.0296   0.0303   0.0313   0.0314
  0.0322   0.0331   0.0349   0.0354   0.0367   0.0369   0.0379   0.0386
  0.0394   0.0400   0.0407   0.0410   0.0421   0.0424   0.0436   0.0440
  0.0447   0.0452   0.0456   0.0465   0.0469   0.0478   0.0484   0.0490
  0.0497   0.0503   0.0508   0.0517   0.0529   0.0534   0.0542   0.0547
  0.0548   0.0555   0.0559   0.0572   0.0576   0.0579   0.0585   0.0586
  0.0595   0.0608   0.0614   0.0617   0.0625   0.0634   0.0638   0.0651
  0.0656   0.0666   0.0669   0.0679   0.0680   0.0684   0.0691   0.0705
  0.0710   0.0715   0.0723   0.0728   0.0732   0.0740   0.0747   0.0758
  0.0766   0.0770   0.0775   0.0780   0.0786   0.0790   0.0801   0.0809
  0.0815   0.0826   0.0831   0.0837   0.0839   0.0849   0.0852   0.0860
  0.0865   0.0873   0.0877   0.0882   0.0884   0.0898   0.0900   0.0907
  0.0912   0.0914   0.0923   0.0931   0.0937   0.0939   0.0948   0.0961
  0.0965   0.0975   0.0976   0.0983   0.0988   0.0999   0.1000   0.1008
  0.1015   0.1021   0.1031   0.1035   0.1040   0.1047   0.1055   0.1062
  0.1064   0.1070   0.1075   0.1083   0.1089   0.1097   0.1100   0.1110
  0.1113   0.1119   0.1125   0.1129   0.1139   0.1148   0.1162   0.1168
  0.1175   0.1179   0.1187   0.1201   0.1203   0.1211   0.1212   0.1214
  0.1223   0.1228   0.1235   0.1242   0.1247   0.1255   0.1260   0.1267
  0.1274   0.1278   0.1283   0.1286   0.1294   0.1305   0.1311   0.1315
  0.1321   0.1324   0.1335   0.1341   0.1350   0.1353   0.1364   0.1368
  0.1374   0.1377   0.1383   0.1390   0.1394   0.1400   0.1404   0.1412
  0.1417   0.1430   0.1434   0.1439   0.1445   0.1454   0.1458   0.1461
  0.1468   0.1475   0.1483   0.1488   0.1491   0.1498   0.1500   0.1502
  0.1515   0.1522   0.1528   0.1537   0.1542   0.1552   0.1555   0.1561
  0.1570   0.1575   0.1580   0.1589   0.1591   0.1594   0.1599   0.1603
  0.1618   0.1623   0.1636   0.1639   0.1643   0.1652   0.1656   0.1661
  0.1670   0.1680   0.1686   0.1699   0.1702   0.1705   0.1707   0.1716
  0.1727   0.1730   0.1738   0.1749   0.1749   0.1754   0.1759   0.1765
  0.1771   0.1780   0.1789   0.1795   0.1801   0.1802   0.1815   0.1820
  0.1825   0.1835   0.1847   0.1852   0.1856   0.1862   0.1865   0.1872
  0.1879   0.1884   0.1888   0.1895   0.1901   0.1901   0.1912   0.1920
  0.1924   0.1929   0.1933   0.1949   0.1953   0.1958   0.1961   0.1973
  0.1974   0.1980   0.1988   0.1994   0.2004   0.2009   0.2012   0.2016
  0.2026   0.2032   0.2038   0.2045   0.2052   0.2054   0.2063   0.2064
  0.2069   0.2081   0.2081   0.2091   0.2096   0.2099   0.2107   0.2114
  0.2119   0.2125   0.2127   0.2137   0.2146   0.2148   0.2157   0.2162
  0.2170   0.2176   0.2178   0.2194   0.2200   0.2203   0.2208   0.2223
  0.2231   0.2236   0.2240   0.2253   0.2258   0.2260   0.2267   0.2269
  0.2271   0.2289   0.2296   0.2305   0.2314   0.2318   0.2323   0.2331
  0.2334   0.2346   0.2351   0.2358   0.2360   0.2368   0.2374   0.2378
  0.2383   0.2394   0.2403   0.2405   0.2414   0.2420   0.2427   0.2434
  0.2439   0.2448   0.2454   0.2466   0.2470   0.2479   0.2482   0.2484
  0.2496   0.2506   0.2512   0.2513   0.2525   0.2529   0.2542   0.2549
  0.2559   0.2561   0.2564   0.2569   0.2578   0.2584   0.2595   0.2606
  0.2611   0.2619   0.2621   0.2626   0.2629   0.2641   0.2650   0.2656
  0.2662   0.2671   0.2674   0.2682   0.2695   0.2697   0.2703   0.2711
  0.2719   0.2734   0.2738   0.2749   0.2753   0.2759   0.2766   0.2778
  0.2779   0.2794   0.2797   0.2804   0.2822   0.2825   0.2836   0.2840
  0.2848   0.2853   0.2870   0.2874   0.2878   0.2892   0.2898   0.2905
  0.2911   0.2919   0.2923   0.2935   0.2941   0.2947   0.2958   0.2964
  0.2974   0.2978   0.2983   0.2991   0.2998   0.3005   0.3010   0.3028
  0.3037   0.3047   0.3054   0.3062   0.3070   0.3074   0.3085   0.3098
  0.3104   0.3117   0.3130   0.3140   0.3141   0.3151   0.3163   0.3166
  0.3183   0.3185   0.3198   0.3205   0.3214   0.3222   0.3229   0.3245
  0.3250   0.3254   0.3257   0.3269   0.3276   0.3279   0.3299   0.3303
  0.3306   0.3315   0.3319   0.3328   0.3340   0.3346   0.3358   0.3372
  0.3385   0.3397   0.3399   0.3400   0.3419   0.3422   0.3429   0.3432
  0.3462   0.3466   0.3468   0.3483   0.3489   0.3499   0.3504   0.3512
  0.3521   0.3530   0.3536   0.3550   0.3558   0.3570   0.3580   0.3587
  0.3591   0.3598   0.3605   0.3616   0.3619   0.3639   0.3641   0.3643
  0.3662   0.3667   0.3677   0.3685   0.3694   0.3701   0.3715   0.3727
  0.3745   0.3746   0.3756   0.3772   0.3773   0.3787   0.3792   0.3805
  0.3816   0.3823   0.3831   0.3843   0.3856   0.3877   0.3880   0.3887
  0.3896   0.3900   0.3911   0.3914   0.3922   0.3939   0.3947   0.3956
  0.3974   0.3980   0.3986   0.3991   0.3996   0.4008   0.4019   0.4025
  0.4035   0.4043   0.4053   0.4060   0.4066   0.4076   0.4088   0.4093
  0.4099   0.4111   0.4126   0.4133   0.4139   0.4154   0.4174   0.4175
  0.4184   0.4189   0.4200   0.4205   0.4221   0.4238   0.4248   0.4251
  0.4257   0.4265   0.4273   0.4295   0.4299   0.4310   0.4319   0.4321
  0.4341   0.4344   0.4366   0.4371   0.4384   0.4406   0.4411   0.4417
  0.4435   0.4439   0.4446   0.4458   0.4467   0.4475   0.4481   0.4499
  0.4511   0.4515   0.4539   0.4548   0.4560   0.4565   0.4586   0.4587
  0.4592   0.4623   0.4626   0.4633   0.4650   0.4660   0.4678   0.4695
  0.4701   0.4712   0.4729   0.4757   0.4779   0.4791   0.4796   0.4797
  0.4804   0.4818   0.4829   0.4835   0.4859   0.4866   0.4889   0.4921
  0.4932   0.4937   0.4959   0.4965   0.4985   0.4996   0.5028   0.5032
  0.5043   0.5051   0.5073   0.5076   0.5100   0.5109   0.5134   0.5137
  0.5148   0.5172   0.5181   0.5190   0.5225   0.5232   0.5247   0.5269
  0.5278   0.5295   0.5322   0.5335   0.5362   0.5365   0.5381   0.5395
  0.5405   0.5415   0.5442   0.5448   0.5456   0.5475   0.5488   0.5489
  0.5500   0.5525   0.5553   0.5556   0.5571   0.5609   0.5617   0.5643
  0.5665   0.5688   0.5696   0.5710   0.5718   0.5736   0.5747   0.5762
  0.5771   0.5792   0.5805   0.5810   0.5829   0.5842   0.5858   0.5869
  0.5887   0.5902   0.5916   0.5928   0.5939   0.5954   0.5963   0.5983
  0.5985   0.6005   0.6023   0.6043   0.6060   0.6066   0.6085   0.6094
  0.6105   0.6121   0.6137   0.6155   0.6161   0.6170   0.6200   0.6212
  0.6222   0.6238   0.6247   0.6254   0.6264   0.6279   0.6285   0.6301
  0.6322   0.6332   0.6342   0.6353   0.6364   0.6384   0.6388   0.6397
  0.6407   0.6413   0.6431   0.6442   0.6454   0.6461   0.6477   0.6488
  0.6503   0.6512   0.6517   0.6527   0.6548   0.6560   0.6573   0.6585
  0.6591   0.6600   0.6613   0.6634   0.6646   0.6658   0.6665   0.6671
  0.6685   0.6702   0.6707   0.6712   0.6733   0.6755   0.6758   0.6767
  0.6791   0.6802   0.6806   0.6811   0.6832   0.6846   0.6848   0.6869
  0.6871   0.6878   0.6893   0.6904   0.6912   0.6929   0.6942   0.6947
  0.6954   0.6967   0.6975   0.6999   0.7006   0.7026   0.7030   0.7045
  0.7049   0.7056   0.7069   0.7074   0.7083   0.7114   0.7127   0.7139
  0.7148   0.7157   0.7173   0.7180   0.7207   0.7217   0.7232   0.7246
  0.7259   0.7263   0.7276   0.7290   0.7298   0.7316   0.7324   0.7347
  0.7363   0.7373   0.7400   0.7417   0.7423   0.7448   0.7457   0.7479
  0.7487   0.7502   0.7519   0.7540   0.7547   0.7559   0.7566   0.7579
  0.7589   0.7614   0.7641   0.7649   0.7660   0.7676   0.7691   0.7698
  0.7727   0.7737   0.7754   0.7773   0.7788   0.7800   0.7826   0.7834
  0.7847   0.7856   0.7881   0.7884   0.7891   0.7906   0.7924   0.7948
  0.7972   0.7991   0.7995   0.8013   0.8043   0.8058   0.8069   0.8077
  0.8083   0.8106   0.8136   0.8141   0.8163   0.8178   0.8188   0.8211
  0.8231   0.8235   0.8260   0.8266   0.8282   0.8300   0.8310   0.8323
  0.8344   0.8353   0.8358   0.8379   0.8397   0.8414   0.8424   0.8434
  0.8453   0.8473   0.8485   0.8492   0.8497   0.8506   0.8513   0.8554
  0.8557   0.8562   0.8579   0.8584   0.8597   0.8616   0.8635   0.8643
  0.8651   0.8657   0.8667   0.8677   0.8693   0.8707   0.8719   0.8733
  0.8746   0.8752   0.8764   0.8796   0.8805   0.8812   0.8830   0.8847
  0.8867   0.8884   0.8894   0.8918   0.8925   0.8934   0.8941   0.8954
  0.8972   0.8978   0.8988   0.9003   0.9011   0.9030   0.9040   0.9045
  0.9069   0.9076   0.9090   0.9098   0.9113   0.9126   0.9134   0.9144
  0.9151   0.9160   0.9172   0.9178   0.9189   0.9196   0.9202   0.9221
  0.9241   0.9250   0.9260   0.9276   0.9280   0.9285   0.9306   0.9311
  0.9324   0.9331   0.9350   0.9364   0.9381   0.9400   0.9408   0.9416
  0.9422   0.9435   0.9438   0.9467   0.9470   0.9484   0.9493   0.9506
  0.9523   0.9527   0.9547   0.9557   0.9571   0.9579   0.9590   0.9599
  0.9614   0.9626   0.9631   0.9641   0.9652   0.9658   0.9676   0.9689
  0.9700   0.9704   0.9721   0.9725   0.9739   0.9744   0.9758   0.9773
  0.9779   0.9793   0.9806   0.9810   0.9818   0.9830   0.9856   0.9868
  0.9880   0.9889   0.9908   0.9918   0.9931   0.9940   0.9950   0.9975
  0.9980   0.9990   0.9996   1.0000   1.0006   1.0019   1.0030   1.0043
  1.0051   1.0055   1.0075   1.0102   1.0118   1.0129   1.0137   1.0146
  1.0162   1.0166   1.0182   1.0194   1.0201   1.0212   1.0216   1.0239
  1.0244   1.0268   1.0280   1.0296   1.0305   1.0311   1.0325   1.0338
  1.0358   1.0367   1.0371   1.0383   1.0403   1.0415   1.0429   1.0449
  1.0471   1.0480   1.0489   1.0501   1.0511   1.0523   1.0535   1.0542
  1.0557   1.0567   1.0574   1.0590   1.0611   1.0625   1.0639   1.0648
  1.0662   1.0668   1.0686   1.0710   1.0725   1.0730   1.0741   1.0750
  1.0773   1.0787   1.0801   1.0830   1.0834   1.0841   1.0848   1.0849
  1.0871   1.0892   1.0902   1.0910   1.0927   1.0938   1.0968   1.0983
  1.0996   1.1010   1.1019   1.1033   1.1054   1.1064   1.1087   1.1090
  1.1097   1.1117   1.1129   1.1132   1.1149   1.1163   1.1179   1.1184
  1.1195   1.1213   1.1237   1.1242   1.1253   1.1263   1.1296   1.1304
  1.1316   1.1326   1.1356   1.1360   1.1365   1.1387   1.1398   1.1422
  1.1438   1.1455   1.1469   1.1490   1.1498   1.1504   1.1512   1.1532
  1.1540   1.1554   1.1562   1.1582   1.1593   1.1605   1.1623   1.1625
  1.1646   1.1648   1.1662   1.1667   1.1684   1.1703   1.1729   1.1738
  1.1742   1.1762   1.1767   1.1784   1.1794   1.1818   1.1827   1.1852
  1.1861   1.1880   1.1891   1.1895   1.1922   1.1935   1.1949   1.1966
  1.1983   1.1990   1.2010   1.2033   1.2038   1.2051   1.2067   1.2103
  1.2123   1.2135   1.2157   1.2177   1.2185   1.2205   1.2219   1.2252
  1.2259   1.2279   1.2310   1.2312   1.2333   1.2352   1.2374   1.2401
  1.2422   1.2434   1.2459   1.2494   1.2500   1.2526   1.2541   1.2549
  1.2577   1.2591   1.2611   1.2634   1.2660   1.2679   1.2715   1.2754
  1.2772   1.2786   1.2808   1.2844   1.2859   1.2874   1.2890   1.2897
  1.2926   1.2970   1.2985   1.2998   1.3022   1.3060   1.3096   1.3104
  1.3116   1.3141   1.3167   1.3181   1.3194   1.3222   1.3226   1.3244
  1.3277   1.3323   1.3330   1.3348   1.3367   1.3398   1.3413   1.3437
  1.3451   1.3481   1.3486   1.3504   1.3520   1.3542   1.3552   1.3579
  1.3583   1.3594   1.3617   1.3654   1.3664   1.3678   1.3700   1.3705
  1.3721   1.3742   1.3756   1.3760   1.3788   1.3801   1.3820   1.3832
  1.3846   1.3859   1.3887   1.3894   1.3904   1.3928   1.3938   1.3956
  1.3976   1.3989   1.4013   1.4036   1.4047   1.4070   1.4079   1.4093
  1.4100   1.4110   1.4137   1.4160   1.4175   1.4194   1.4206   1.4212
  1.4228   1.4252   1.4259   1.4286   1.4301   1.4325   1.4338   1.4342
  1.4354   1.4364   1.4380   1.4427   1.4431   1.4448   1.4465   1.4476
  1.4487   1.4495   1.4513   1.4544   1.4557   1.4579   1.4598   1.4610
  1.4627   1.4632   1.4656   1.4673   1.4701   1.4721   1.4735   1.4751
  1.4758   1.4769   1.4792   1.4816   1.4841   1.4861   1.4861   1.4874
  1.4895   1.4920   1.4932   1.4951   1.4989   1.5004   1.5014   1.5039
  1.5046   1.5084   1.5108   1.5131   1.5139   1.5179   1.5190   1.5199
  1.5226   1.5231   1.5263   1.5298   1.5319   1.5346   1.5359   1.5381
  1.5393   1.5405   1.5447   1.5487   1.5503   1.5523   1.5526   1.5571
  1.5617   1.5637   1.5671   1.5691   1.5732   1.5759   1.5778   1.5827
  1.5861   1.5867   1.5910   1.5939   1.6014   1.6022   1.6049   1.6071
  1.6096   1.6113   1.6214   1.6235   1.6275   1.6310   1.6326   1.6352
  1.6411   1.6426   1.6444   1.6472   1.6488   1.6496   1.6520   1.6542
  1.6577   1.6588   1.6609   1.6635   1.6636   1.6681   1.6708   1.6741
  1.6753   1.6772   1.6808   1.6810   1.6815   1.6824   1.6838   1.6848
  1.6853   1.6873   1.6891   1.6910   1.6928   1.6932   1.6940   1.6974
  1.6979   1.6994   1.7007   1.7013   1.7039   1.7058   1.7076   1.7089
  1.7100   1.7129   1.7137   1.7148   1.7151   1.7172   1.7183   1.7192
  1.7210   1.7238   1.7261   1.7265   1.7292   1.7296   1.7316   1.7320
  1.7333   1.7347   1.7356   1.7365   1.7375   1.7387   1.7414   1.7421
  1.7436   1.7472   1.7477   1.7489   1.7519   1.7542   1.7566   1.7571
  1.7587   1.7588   1.7598   1.7607   1.7638   1.7644   1.7660   1.7665
  1.7675   1.7696   1.7710   1.7719   1.7729   1.7739   1.7750   1.7772
  1.7797   1.7821   1.7826   1.7860   1.7871   1.7881   1.7893   1.7923
  1.7930   1.7948   1.7966   1.7991   1.8004   1.8021   1.8032   1.8072
  1.8095   1.8105   1.8126   1.8132   1.8149   1.8194   1.8210   1.8248
  1.8263   1.8285   1.8291   1.8359   1.8385   1.8401   1.8407   1.8424
  1.8437   1.8477   1.8551   1.8582   1.8614   1.8629   1.8641   1.8659
  1.8690   1.8716   1.8722   1.8749   1.8766   1.8786   1.8793   1.8808
  1.8819   1.8832   1.8836   1.8861   1.8873   1.8892   1.8906   1.8910
  1.8932   1.8942   1.8950   1.8966   1.8971   1.8989   1.9011   1.9020
  1.9042   1.9045   1.9061   1.9066   1.9069   1.9088   1.9093   1.9108
  1.9129   1.9149   1.9157   1.9186   1.9198   1.9208   1.9228   1.9244
  1.9266   1.9271   1.9297   1.9316   1.9345   1.9381   1.9392   1.9437
  1.9446   1.9454   1.9459   1.9473   1.9485   1.9516   1.9562   1.9594
  1.9641   1.9652   1.9681   1.9713   1.9724   1.9730   1.9759   1.9799
  1.9827   1.9894   1.9920   2.0022   2.0084   2.0163   2.0177   2.0211
  2.0248   2.0295   2.0362   2.0432   2.0454   2.0462   2.0522   2.0539
  2.0550   2.0580   2.0588   2.0607   2.0610   2.0622   2.0685   2.0704
  2.0727   2.0736   2.0760   2.0786   2.0815   2.0827   2.0833   2.0851
  2.0871   2.0876   2.0900   2.0925   2.0932   2.0955   2.0969   2.0987
  2.1000   2.1018   2.1033   2.1046   2.1052   2.1067   2.1079   2.1089
  2.1100   2.1109   2.1130   2.1131   2.1141   2.1182   2.1194   2.1223
  2.1238   2.1244   2.1272   2.1292   2.1308   2.1340   2.1346   2.1373
  2.1389   2.1397   2.1436   2.1483   2.1501   2.1561   2.1586   2.1636
  2.1709   2.1725   2.1736   2.1770   2.1783   2.1811   2.1848   2.1880
  2.1933   2.1943   2.1965   2.1995   2.2009   2.2039   2.2043   2.2045
  2.2064   2.2076   2.2091   2.2107   2.2120   2.2145   2.2172   2.2173
  2.2196   2.2201   2.2207   2.2229   2.2247   2.2264   2.2293   2.2310
  2.2325   2.2356   2.2365   2.2369   2.2409   2.2420   2.2424   2.2451
  2.2466   2.2471   2.2480   2.2502   2.2514   2.2542   2.2553   2.2557
  2.2563   2.2568   2.2575   2.2594   2.2598   2.2604   2.2607   2.2622
  2.2627   2.2643   2.2646   2.2648   2.2653   2.2672   2.2677   2.2685
  2.2693   2.2706   2.2714   2.2721   2.2726   2.2736   2.2751   2.2755
  2.2759   2.2778   2.2783   2.2801   2.2804   2.2818   2.2820   2.2831
  2.2849   2.2852   2.2857   2.2863   2.2871   2.2888   2.2901   2.2921
  2.2933   2.2946   2.2958   2.2967   2.2973   2.3002   2.3010   2.3033
  2.3046   2.3053   2.3066   2.3074   2.3078   2.3082   2.3095   2.3109
  2.3113   2.3118   2.3141   2.3148   2.3154   2.3174   2.3185   2.3201
  2.3212   2.3226   2.3243   2.3256   2.3261   2.3283   2.3290   2.3323
  2.3324   2.3351   2.3370   2.3388   2.3400   2.3406   2.3435   2.3441
  2.3467   2.3470   2.3483   2.3521   2.3536   2.3547   2.3565   2.3573
  2.3580   2.3599   2.3631   2.3640   2.3666   2.3686   2.3696   2.3710
  2.3762   2.3783   2.3792   2.3800   2.3807   2.3829   2.3890   2.3910
  2.3978   2.3995   2.4035   2.4096   2.4168   2.4254   2.4280   2.4396
  2.4514   2.4727   2.4982   2.5155   2.5630   2.5858   2.6125   2.6970
  2.7463   2.7557   2.7752   2.7893   2.7996   2.8202   2.8280   2.8350
  2.8357   2.8383   2.8419   2.8443   2.8464   2.8481   2.8495   2.8524
  2.8548   2.8559   2.8634   2.8660   2.8681   2.8720   2.8733   2.8780
  2.8804   2.8819   2.8826   2.8878   2.8923   2.8942   2.9000   2.9011
  2.9282   2.9688   3.1204   3.2885   3.9199   3.9291   3.9557   3.9597
  3.9662   3.9690   3.9723   3.9740   3.9815   3.9858   3.9937   3.9942
  3.9974   4.0018   4.0031   4.0066   4.0102   4.0113   4.0137   4.0165
  4.0191   4.0207   4.0241   4.0263   4.0290   4.0330   4.1911   4.2001
  4.2153   4.2226   4.2263   4.2305   4.2417   4.2437   4.2514   4.2553
  4.2581   4.2642   4.2668   4.2695   4.2713   4.2737   4.2761   4.2789
  4.2821   4.2831   4.2835   4.2882   4.2937   4.2952   4.2967   4.3000
  4.3009   4.3052   4.3089   4.3109   4.3134   4.3152   4.3180   4.3206
  4.3226   4.3242   4.3273   4.3280   4.3326   4.3343   4.3378   4.3402
  4.3427   4.3455   4.3475   4.3509   4.3519   4.3553   4.3577   4.3605
  4.3669   4.3693   4.3700   4.3722   4.3783   4.3801   4.3828   4.3841
  4.3890   4.3924   4.3964   4.4005   4.4056   4.4121   4.4126   4.4208
  4.4254   4.4369   4.4398   4.4518   4.4577   4.4648   4.4845   4.4989
  4.5145   4.5387   4.5528   4.5716   4.5792   4.6050   4.6414   4.6858
  4.7001   4.7309   4.7839   4.8141   5.0201
 --------------------------------------------------------------
 
          Ground-State Mulliken Net Atomic Charges

     Atom                 Charge (a.u.)
  ----------------------------------------
      1 C                    -0.524980
      2 C                    -0.631126
      3 C                     0.029918
      4 C                    -0.610294
      5 C                    -0.380380
      6 C                    -0.341991
      7 H                     0.219025
      8 H                     0.247765
      9 H                     0.189879
     10 H                     0.200218
     11 H                     0.185264
     12 H                     0.199205
     13 H                     0.197304
     14 H                     0.180462
     15 H                     0.229343
     16 H                     0.219014
     17 H                     0.223626
     18 N                    -0.272086
     19 H                     0.450930
     20 C                     0.374728
     21 H                     0.225129
     22 O                    -0.610955
     23 C                    -0.809089
     24 H                     0.300504
     25 H                     0.218679
     26 H                     0.310334
     27 S                     0.397454
     28 C                    -0.756726
     29 H                     0.270280
     30 H                     0.262088
     31 H                     0.242425
     32 O                    -0.530308
     33 C                    -0.889182
     34 H                     0.303408
     35 H                     0.267462
     36 H                     0.242275
     37 S                     0.915760
     38 C                    -0.921913
     39 H                     0.236067
     40 H                     0.298380
     41 H                     0.243172
     42 O                    -0.718346
     43 C                    -0.910159
     44 H                     0.265906
     45 H                     0.239534
     46 H                     0.307177
     47 S                     1.108319
     48 C                    -1.060616
     49 H                     0.251352
     50 H                     0.253509
     51 H                     0.250610
     52 O                    -0.725275
     53 C                    -0.782083
     54 H                     0.254455
     55 H                     0.287817
     56 H                     0.257850
     57 S                     0.760375
     58 C                    -1.062178
     59 H                     0.240539
     60 H                     0.314970
     61 H                     0.246550
     62 O                    -0.587663
     63 C                    -0.888381
     64 H                     0.275595
     65 H                     0.258052
     66 H                     0.237197
     67 S                     0.859071
     68 C                    -0.800240
     69 H                     0.227959
     70 H                     0.336023
     71 H                     0.279504
     72 O                    -0.710761
     73 C                    -0.805516
     74 H                     0.268733
     75 H                     0.232545
     76 H                     0.284383
     77 S                     0.749827
     78 C                    -0.824342
     79 H                     0.254078
     80 H                     0.238968
     81 H                     0.281038
     82 O                    -0.649776
     83 C                    -1.248041
     84 H                     0.241569
     85 H                     0.319403
     86 H                     0.257604
     87 S                     1.441591
     88 C                    -1.028128
     89 H                     0.244422
     90 H                     0.298193
     91 H                     0.242667
     92 O                    -0.768920
     93 C                    -1.115872
     94 H                     0.294231
     95 H                     0.257235
     96 H                     0.268607
     97 S                     1.191004
     98 C                    -0.912816
     99 H                     0.214669
    100 H                     0.243958
    101 H                     0.300849
    102 O                    -0.785943
    103 C                    -0.886519
    104 H                     0.249716
    105 H                     0.268198
    106 H                     0.242991
    107 S                     1.030985
    108 C                    -0.954286
    109 H                     0.254307
    110 H                     0.225981
    111 H                     0.295109
    112 O                    -0.678778
    113 C                    -0.850885
    114 H                     0.236108
    115 H                     0.284004
    116 H                     0.258603
    117 S                     0.949662
    118 C                    -0.802685
    119 H                     0.212580
    120 H                     0.274093
    121 H                     0.261723
    122 O                    -0.759824
    123 C                    -0.976501
    124 H                     0.248374
    125 H                     0.277524
    126 H                     0.257099
    127 S                     0.979276
    128 C                    -0.863184
    129 H                     0.279523
    130 H                     0.246476
    131 H                     0.263720
    132 O                    -0.731102
    133 C                    -0.862712
    134 H                     0.263729
    135 H                     0.246099
    136 H                     0.243375
    137 S                     1.074416
    138 C                    -0.796015
    139 H                     0.234089
    140 H                     0.247433
    141 H                     0.266021
    142 O                    -0.808528
    143 C                    -0.903321
    144 H                     0.271490
    145 H                     0.253048
    146 H                     0.237584
    147 S                     0.957233
    148 C                    -0.820896
    149 H                     0.264436
    150 H                     0.239861
    151 H                     0.263924
    152 O                    -0.721950
    153 C                    -0.833784
    154 H                     0.255447
    155 H                     0.250534
    156 H                     0.230153
    157 S                     1.027009
    158 C                    -0.831842
    159 H                     0.274419
    160 H                     0.214892
    161 H                     0.280956
    162 O                    -0.768613
    163 C                    -0.857120
    164 H                     0.253954
    165 H                     0.233741
    166 H                     0.262646
    167 S                     0.866623
    168 C                    -0.876224
    169 H                     0.228581
    170 H                     0.262680
    171 H                     0.295975
    172 O                    -0.708942
    173 C                    -1.036024
    174 H                     0.273677
    175 H                     0.279041
    176 H                     0.258735
    177 S                     1.076330
    178 C                    -1.018962
    179 H                     0.253461
    180 H                     0.258103
    181 H                     0.307042
    182 O                    -0.635500
    183 C                    -0.720348
    184 H                     0.251365
    185 H                     0.236493
    186 H                     0.291358
    187 S                     0.856886
    188 C                    -0.966676
    189 H                     0.276484
    190 H                     0.265483
    191 H                     0.273523
    192 O                    -0.744787
    193 C                    -0.791171
    194 H                     0.275505
    195 H                     0.267076
    196 H                     0.231526
    197 S                     0.473191
    198 C                    -0.804349
    199 H                     0.300990
    200 H                     0.244551
    201 H                     0.256372
    202 O                    -0.599947
    203 C                    -0.787999
    204 H                     0.230145
    205 H                     0.250629
    206 H                     0.276768
    207 S                     0.691711
    208 C                    -0.731825
    209 H                     0.247355
    210 H                     0.252337
    211 H                     0.233146
    212 O                    -0.653208
    213 C                    -0.805735
    214 H                     0.254816
    215 H                     0.242009
    216 H                     0.303191
    217 S                     0.517773
    218 C                    -0.682684
    219 H                     0.289425
    220 H                     0.236313
    221 H                     0.299375
    222 O                    -0.694744
    223 C                    -1.041762
    224 H                     0.241364
    225 H                     0.278050
    226 H                     0.257339
    227 S                     1.135806
    228 C                    -0.998938
    229 H                     0.260970
    230 H                     0.245176
    231 H                     0.257000
    232 O                    -0.694200
    233 C                    -0.846817
    234 H                     0.231132
    235 H                     0.274739
    236 H                     0.263817
    237 S                     0.936872
    238 C                    -1.067947
    239 H                     0.288653
    240 H                     0.219824
    241 H                     0.261296
    242 O                    -0.572575
    243 C                    -0.795150
    244 H                     0.285784
    245 H                     0.222472
    246 H                     0.266781
    247 S                     0.497899
    248 C                    -0.718276
    249 H                     0.314668
    250 H                     0.229747
    251 H                     0.264495
    252 O                    -0.599901
    253 C                    -0.740676
    254 H                     0.255289
    255 H                     0.263918
    256 H                     0.228258
    257 S                     0.646192
    258 C                    -0.764731
    259 H                     0.239024
    260 H                     0.257978
    261 H                     0.272118
    262 O                    -0.685462
    263 C                    -0.843639
    264 H                     0.265228
    265 H                     0.243918
    266 H                     0.231007
    267 S                     0.836687
    268 C                    -0.777419
    269 H                     0.231274
    270 H                     0.249677
    271 H                     0.318031
    272 O                    -0.740201
    273 C                    -1.004093
    274 H                     0.243808
    275 H                     0.253808
    276 H                     0.271110
    277 S                     1.221206
    278 C                    -0.943111
    279 H                     0.229466
    280 H                     0.283592
    281 H                     0.264043
    282 O                    -0.719490
  ----------------------------------------
  Sum of atomic charges =     0.000000

 -----------------------------------------------------------------
                    Cartesian Multipole Moments
 -----------------------------------------------------------------
    Charge (ESU x 10^10)
                -0.0000
    Dipole Moment (Debye)
         X      13.9964      Y      38.4850      Z      -1.2991
       Tot      40.9718
    Quadrupole Moments (Debye-Ang)
        XX    -245.5551     XY    1484.5922     YY    1456.7272
        XZ     302.4690     YZ    1098.8282     ZZ    -959.8736
    Octopole Moments (Debye-Ang^2)
       XXX  -51452.6655    XXY   22967.6726    XYY   53725.4774
       YYY   30776.4607    XXZ   -8271.2918    XYZ   40482.9143
       YYZ   45801.9261    XZZ  -18188.8284    YZZ    4923.6369
       ZZZ  -68912.7456
    Hexadecapole Moments (Debye-Ang^3)
      XXXX ************   XXXY -656512.7028   XXYY  953984.9059
      XYYY 1307608.3740   YYYY -160001.0668   XXXZ ************
      XXYZ  645842.5504   XYYZ 1588585.2906   YYYZ 1229969.6410
      XXZZ -958170.2593   XYZZ  381834.0369   YYZZ  587142.9806
      XZZZ ************   YZZZ ************   ZZZZ ************
 -----------------------------------------------------------------
Archival summary:
[...]
    1   0.0255388  -0.0248477   0.0350021  -0.0025307   0.0104251  -0.0284468
    2   0.0323255   0.0088127  -0.0261138   0.0021713  -0.0199415   0.0125313
    3  -0.0016524  -0.0159056   0.0212364  -0.0070153  -0.0244957  -0.0102729
          121         122         123         124         125         126
    1   0.0199899  -0.1080887   0.0004932  -0.0146871  -0.0239939   0.0214044
    2   0.0238940  -0.0235591   0.0092323   0.0143679   0.0185237   0.0127951
    3   0.0031794  -0.0065313  -0.0004003  -0.0294229   0.0076544   0.0199257
          127         128         129         130         131         132
    1  -0.0013846   0.0073536   0.0386336   0.0097811   0.0110678  -0.0645604
    2  -0.0225280   0.0022993   0.0023810  -0.0266833   0.0189062  -0.0176931
    3   0.0462446  -0.0024394   0.0160573  -0.0106790  -0.0245092  -0.0859899
          133         134         135         136         137         138
    1   0.0029700  -0.0078261  -0.0269086   0.0236558  -0.0512332   0.0039786
    2   0.0070319  -0.0029182   0.0220169   0.0174588  -0.0174010   0.0025524
    3  -0.0010499  -0.0333627  -0.0039380   0.0166752   0.0093837   0.0067628
          139         140         141         142         143         144
    1   0.0281361  -0.0146357   0.0161768   0.0712472  -0.0048958  -0.0124388
    2   0.0157392   0.0089389  -0.0249168  -0.0496849   0.0084348   0.0319584
    3   0.0053257   0.0321463   0.0042699  -0.0644631   0.0059639  -0.0109713
          145         146         147         148         149         150
    1  -0.0205410   0.0134319   0.0222986   0.0026684  -0.0097433   0.0249962
    2  -0.0200689  -0.0076694  -0.0572224   0.0111992   0.0314472   0.0054908
    3   0.0012101   0.0316953   0.0095805  -0.0008931  -0.0143413   0.0281736
          151         152         153         154         155         156
    1   0.0254156  -0.0681183   0.0000697   0.0061187  -0.0303735   0.0221022
    2  -0.0104162   0.0203014   0.0007032  -0.0207628   0.0115414   0.0192557
    3  -0.0131871  -0.0836910  -0.0085075  -0.0234836   0.0048536  -0.0125893
          157         158         159         160         161         162
    1   0.0214564   0.0040368  -0.0088183   0.0331021   0.0048856  -0.0881663
    2   0.0339489  -0.0075887  -0.0150505   0.0034656  -0.0221131  -0.0635904
    3   0.0351014  -0.0032083  -0.0232928  -0.0097699   0.0203947   0.0190211
          163         164         165         166         167         168
    1  -0.0019084  -0.0139430  -0.0236559   0.0138054  -0.0275142   0.0060387
    2   0.0028639   0.0279101  -0.0211335   0.0006772  -0.0319702  -0.0046055
    3   0.0056264  -0.0066331   0.0050768   0.0271289  -0.0387792   0.0041003
          169         170         171         172         173         174
    1  -0.0072968   0.0223717   0.0048975   0.0609775   0.0015427  -0.0085839
    2  -0.0289246  -0.0148778   0.0084311   0.0873179  -0.0071909   0.0194485
    3   0.0157766  -0.0175394   0.0326710  -0.0264501  -0.0055205  -0.0246078
          175         176         177         178         179         180
    1   0.0317655  -0.0150950   0.0532222  -0.0018670   0.0307414  -0.0096713
    2  -0.0201395  -0.0265120   0.0334561  -0.0093098  -0.0177642   0.0194564
    3  -0.0056261   0.0101710  -0.0063209   0.0065854  -0.0092586   0.0255304
          181         182         183         184         185         186
    1  -0.0195694  -0.0969180   0.0071815  -0.0129604  -0.0055268   0.0408211
    2  -0.0228417   0.0489377   0.0068175   0.0300860  -0.0092526   0.0041715
    3   0.0053861   0.0005697  -0.0013605   0.0036725   0.0254368   0.0038631
          187         188         189         190         191         192
    1   0.0221160  -0.0009697  -0.0258934   0.0308776  -0.0113313  -0.1022428
    2  -0.0535507   0.0093722   0.0223228   0.0056980  -0.0158696   0.0202958
    3  -0.0036021  -0.0069835   0.0060779  -0.0086637  -0.0240694   0.0337915
          193         194         195         196         197         198
    1  -0.0049436   0.0049687  -0.0259147  -0.0371247  -0.0045371   0.0022936
    2  -0.0005905   0.0064321  -0.0238858   0.0049157  -0.0289012   0.0087968
    3  -0.0039861  -0.0305676  -0.0076124   0.0154852   0.0475541  -0.0035084
          199         200         201         202         203         204
    1   0.0107763  -0.0280839   0.0238594   0.0621280  -0.0099085  -0.0004502
    2   0.0115957   0.0092617   0.0050647  -0.0285810   0.0001880   0.0144606
    3  -0.0256927   0.0166115   0.0156131  -0.0856220  -0.0002860  -0.0297689
          205         206         207         208         209         210
    1  -0.0292286  -0.0124768   0.0454215  -0.0029715   0.0228616  -0.0190928
    2  -0.0199864   0.0266472   0.0365146  -0.0046874  -0.0232447  -0.0320186
    3   0.0022459   0.0104052  -0.0187046   0.0004907   0.0021740   0.0088107
          211         212         213         214         215         216
    1  -0.0002220  -0.0193627   0.0054424   0.0107980  -0.0259329   0.0259436
    2  -0.0036859  -0.0122818   0.0050865   0.0231037   0.0088005  -0.0175996
    3  -0.0341831   0.1084331   0.0102282  -0.0148191   0.0289443   0.0049968
          217         218         219         220         221         222
    1   0.0248856  -0.0059557  -0.0248459  -0.0240700   0.0089384  -0.0569738
    2  -0.0072219   0.0104349  -0.0105257   0.0104338   0.0321043  -0.0751528
    3  -0.0471732   0.0019750  -0.0147533   0.0298974  -0.0089738   0.0559296
          223         224         225         226         227         228
    1   0.0045249  -0.0029280  -0.0091575   0.0293993  -0.0561366   0.0032309
    2   0.0038932  -0.0217551   0.0308307  -0.0032806   0.0032550   0.0035742
    3  -0.0076863  -0.0205974  -0.0141731   0.0078544  -0.0098808   0.0045926
          229         230         231         232         233         234
    1   0.0324477  -0.0182234  -0.0083884   0.0546430  -0.0054363   0.0001891
    2  -0.0063478   0.0280288   0.0064766  -0.0888325   0.0041810   0.0086244
    3   0.0031447  -0.0101688   0.0321098   0.0352103  -0.0002940   0.0281288
          235         236         237         238         239         240
    1   0.0096791  -0.0314871   0.0569241   0.0007755  -0.0274982  -0.0003298
    2   0.0322147  -0.0099790   0.0227521  -0.0012954  -0.0119827   0.0266374
    3  -0.0132573  -0.0005212  -0.0084415  -0.0102075   0.0001151  -0.0181279
          241         242         243         244         245         246
    1   0.0207667  -0.0158783  -0.0035442  -0.0284707   0.0009798   0.0237257
    2  -0.0080581  -0.0994144   0.0070148   0.0018197   0.0252250  -0.0014449
    3  -0.0292495   0.0416264  -0.0071265  -0.0159052   0.0227714  -0.0211938
          247         248         249         250         251         252
    1  -0.0362400   0.0016745   0.0145377   0.0157829   0.0050384  -0.0164263
    2  -0.0035288  -0.0000606  -0.0016826   0.0225984  -0.0256535  -0.0695546
    3   0.0470909  -0.0011843  -0.0239148   0.0232412   0.0153427  -0.0912905
          253         254         255         256         257         258
    1   0.0051212   0.0104587   0.0233158  -0.0206759  -0.0265552  -0.0014942
    2   0.0043010  -0.0087673   0.0032359   0.0261968   0.0112629  -0.0056942
    3   0.0033126   0.0285798  -0.0217593   0.0067368  -0.0492612   0.0106117
          259         260         261         262         263         264
    1  -0.0234196  -0.0194190   0.0120685   0.0806797  -0.0083128  -0.0088308
    2   0.0211283  -0.0303354  -0.0053562  -0.0751936  -0.0021167   0.0010238
    3  -0.0013879   0.0043060   0.0301155   0.0082082   0.0019194   0.0290330
          265         266         267         268         269         270
    1  -0.0281483   0.0063641   0.0205340   0.0058680   0.0059676   0.0336647
    2   0.0184959  -0.0340662  -0.0133151  -0.0001899  -0.0308759   0.0055370
    3  -0.0085028  -0.0056023  -0.0492053   0.0124831  -0.0065215   0.0077007
          271         272         273         274         275         276
    1  -0.0127737  -0.0255567   0.0019817   0.0117577   0.0327067  -0.0263757
    2   0.0080415   0.0997195   0.0046000   0.0125446  -0.0052267   0.0187686
    3   0.0311292   0.0365858  -0.0039976   0.0247575  -0.0092773  -0.0107742
          277         278         279         280         281         282
    1  -0.0420884  -0.0029054  -0.0191476  -0.0181471   0.0245693   0.0834912
    2  -0.0111694   0.0002269   0.0262960  -0.0216913   0.0043407  -0.0686551
    3  -0.0392510   0.0102800   0.0022240   0.0101621   0.0208987   0.0215525
  --- DONE ESP SUMMARY ---
Archival summary:
1\1\n0070.mhg0\SP\ProcedureUnspecified\6-31+G*\262652h22\ymao\FriMar1212:16:572021FriMar1212:16:572021\0\\#,ProcedureUnspecified,6-31+G*,\\0,1\S\O,1,1.49731\C,1,1.80686,2,106.671\H,3,1.09285,1,112.898,2,34.0794,0\H,3,1.09308,1,103.986,2,-80.7802,0\H,3,1.09337,1,107.37,2,162.941,0\C,1,1.80709,2,114.1,3,101.054,0\H,7,1.09216,1,107.883,2,66.6159,0\H,7,1.09278,1,111.88,2,-56.5085,0\H,7,1.0934,1,103.718,2,-172.525,0\H,6,2.20927,3,127.363,1,164.503,0\C,11,1.09354,6,159.751,3,-62.634,0\H,12,1.09289,11,104.968,6,56.5922,0\H,12,1.09309,11,106.411,6,174.788,0\S,12,1.8067,11,108.699,6,-61.1086,0\O,15,1.49789,12,104.029,11,45.1668,0\C,15,1.80718,12,94.3292,11,-60.0457,0\H,17,1.09298,15,113.596,12,55.761,0\H,17,1.09323,15,103.82,12,179.352,0\H,17,1.09325,15,108.342,12,-66.3121,0\H,20,2.01089,17,139.969,15,-176.775,0\C,21,1.09344,20,149.966,17,3.41206,0\H,22,1.0931,21,104.993,20,-163.449,0\H,22,1.09371,21,111.084,20,70.2975,0\S,22,1.8066,21,102.127,20,-57.7089,0\O,25,1.49669,22,100.561,21,-90.9713,0\C,25,1.80719,22,95.7503,21,170.376,0\H,27,1.09269,25,104.969,22,-171.536,0\H,27,1.09276,25,101.857,22,-59.4424,0\H,27,1.09349,25,115.283,22,67.1256,0\H,13,2.0594,12,148.338,11,125.08,0\C,31,1.09346,13,135.818,12,22.759,0\H,32,1.0924,31,104.618,13,-163.356,0\H,32,1.09271,31,112.066,13,-44.1739,0\S,32,1.80675,31,110.319,13,89.5271,0\O,35,1.49699,32,108.035,31,48.2963,0\C,35,1.80681,32,95.9659,31,-56.6888,0\H,37,1.09288,35,109.342,32,-66.0632,0\H,37,1.09302,35,110.454,32,60.9682,0\H,37,1.09347,35,110.665,32,177.221,0\Gh,16,2.17747,15,156.949,12,-60.6836,0\Gh,41,1.01307,16,133.525,15,-120.721,0\Gh,42,1.37905,41,113.243,16,39.4413,0\Gh,43,1.10491,42,111.005,41,4.2111,0\Gh,43,1.21854,42,124.49,41,-178.713,0\Gh,42,1.46221,41,118.449,16,-126.27,0\Gh,46,1.09692,42,106.078,41,126.752,0\Gh,46,1.53648,42,106.48,41,6.88076,0\Gh,48,1.09682,46,108.626,42,-51.165,0\Gh,48,1.09735,46,110.721,42,60.908,0\Gh,48,1.53729,46,113.349,42,-175.31,0\Gh,51,1.09669,48,103.656,46,-64.3408,0\Gh,51,1.0977,48,109.325,46,-178.403,0\Gh,51,1.537,48,111.81,46,53.2931,0\Gh,54,1.09656,51,104.547,48,66.3676,0\Gh,54,1.09692,51,104.489,48,-179.935,0\Gh,46,1.5374,42,109.918,41,-110.253,0\Gh,57,1.09736,46,111.737,42,54.7841,0\Gh,57,1.09752,46,111.523,42,-62.36,0\Gh,57,1.53674,46,110.381,42,174.968,0\Gh,60,1.0973,57,107.873,46,167.926,0\Gh,60,1.09732,57,107.847,46,51.4077,0\H,50,2.02407,48,122.759,46,85.9625,0\C,63,1.09299,50,162.75,48,144.975,0\H,64,1.09274,63,105.957,50,105.377,0\H,64,1.09389,63,103.477,50,-140.374,0\S,64,1.80707,63,111.979,50,-15.962,0\O,67,1.49622,64,108.277,63,-50.182,0\C,67,1.8068,64,92.21,63,51.0063,0\H,69,1.09288,67,114.26,64,-175.281,0\H,69,1.09337,67,108.874,64,60.2566,0\H,69,1.09351,67,98.8595,64,-53.8355,0\H,55,2.06478,54,148.713,51,175.982,0\C,73,1.093,55,118.116,54,35.6072,0\H,74,1.09259,73,100.052,55,-69.7214,0\H,74,1.09301,73,112.235,55,52.155,0\S,74,1.80772,73,110.664,55,179.203,0\O,77,1.49629,74,101.607,73,69.013,0\C,77,1.80677,74,93.9528,73,172.27,0\H,79,1.09229,77,98.373,74,158.541,0\H,79,1.09265,77,109.364,74,-90.523,0\H,79,1.09359,77,113.066,74,38.9014,0\H,62,2.18441,60,130.539,57,77.4636,0\C,83,1.09233,62,115.419,60,-106.009,0\H,84,1.09247,83,107.559,62,160.57,0\H,84,1.09313,83,103.224,62,43.6017,0\S,84,1.80705,83,111.23,62,-73.4041,0\O,87,1.49722,84,106.243,83,61.0778,0\C,87,1.80796,84,92.5946,83,163.733,0\H,89,1.0931,87,103.487,84,174.622,0\H,89,1.09312,87,113.714,84,-66.4896,0\H,89,1.09323,87,112.09,84,62.252,0\H,86,2.13605,84,123.746,83,116.301,0\C,93,1.09329,86,160.765,84,19.0231,0\H,94,1.09223,93,102.214,86,60.4786,0\H,94,1.09348,93,111.339,86,169.637,0\S,94,1.80695,93,111.324,86,-56.2985,0\O,97,1.49671,94,108.784,93,48.9135,0\C,97,1.80774,94,87.4654,93,-58.3041,0\H,99,1.09261,97,108.616,94,-59.1719,0\H,99,1.09288,97,114.506,94,-178.222,0\H,99,1.09349,97,108.752,94,55.8456,0\H,102,2.19992,99,132.287,97,130.303,0\C,103,1.0928,102,132.325,99,-40.5161,0\H,104,1.09284,103,105.011,102,-90.377,0\H,104,1.09299,103,112.712,102,33.5176,0\S,104,1.80743,103,109.157,102,162.233,0\O,107,1.49697,104,103.45,103,153.163,0\C,107,1.80701,104,97.8741,103,-100.116,0\H,109,1.09291,107,107.568,104,53.8046,0\H,109,1.09307,107,115.722,104,178.815,0\H,109,1.09372,107,105.18,104,-64.2155,0\H,19,2.22735,17,118.609,15,79.86,0\C,113,1.09321,19,124.333,17,-6.8098,0\H,114,1.09193,113,113.523,19,5.04374,0\H,114,1.09266,113,109.003,19,126.658,0\S,114,1.80708,113,109.644,19,-117.448,0\O,117,1.49753,114,107.074,113,-71.0705,0\C,117,1.80705,114,93.5717,113,36.2623,0\H,119,1.09269,117,109.345,114,-59.2942,0\H,119,1.09271,117,106.107,114,70.948,0\H,119,1.09383,117,104.65,114,-171.805,0\H,56,2.25192,54,148.434,51,-176.945,0\C,123,1.09216,56,135.731,54,85.5633,0\H,124,1.09271,123,107.006,56,-24.2496,0\H,124,1.0937,123,103.292,56,92.5489,0\S,124,1.80744,123,112.87,56,-142.96,0\O,127,1.49753,124,99.4111,123,-160.945,0\C,127,1.80687,124,95.2335,123,-61.859,0\H,129,1.09273,127,101.319,124,-31.548,0\H,129,1.09303,127,109.69,124,-156.794,0\H,129,1.09308,127,102.521,124,78.734,0\H,132,2.19471,129,146.215,127,-79.0265,0\C,133,1.09279,132,136.657,129,-65.4413,0\H,134,1.09271,133,109.105,132,-67.8027,0\H,134,1.09277,133,115.9,132,171.27,0\S,134,1.807,133,104.179,132,50.4337,0\O,137,1.49714,134,105.489,133,-68.3391,0\C,137,1.80654,134,95.9915,133,-170.848,0\H,139,1.09336,137,108.983,134,176.772,0\H,139,1.09343,137,112.763,134,-63.2278,0\H,139,1.09353,137,107.87,134,58.7423,0\H,65,2.27762,64,130.492,63,-168.742,0\C,143,1.09227,65,126.141,64,-14.3979,0\H,144,1.0931,143,107.662,65,36.6554,0\H,144,1.09321,143,115.061,65,157.35,0\S,144,1.80729,143,109.608,65,-76.9168,0\O,147,1.49677,144,104.79,143,48.8581,0\C,147,1.80673,144,96.6062,143,162.782,0\H,149,1.09255,147,104.79,144,172.363,0\H,149,1.09262,147,101.279,144,-64.5124,0\H,149,1.09348,147,104.755,144,51.0284,0\O,71,2.29313,69,162.146,67,-58.4272,0\S,153,1.49663,71,147.225,69,-57.2969,0\C,154,1.80715,153,100.321,71,11.1523,0\H,155,1.09227,154,112.085,153,58.1922,0\H,155,1.09277,154,104.336,153,178.706,0\H,155,1.09353,154,110.078,153,-65.0976,0\C,154,1.80776,153,104.831,71,114.175,0\H,159,1.09217,154,109.181,153,-155.929,0\H,159,1.09326,154,111.629,153,75.9459,0\H,159,1.0934,154,102.446,153,-50.3122,0\H,100,2.29664,99,146.507,97,-179.135,0\C,163,1.09264,100,113.679,99,45.117,0\H,164,1.09299,163,104.925,100,148.128,0\H,164,1.09414,163,107.094,100,31.7272,0\S,164,1.80685,163,104.983,100,-87.9435,0\O,167,1.49768,164,105.616,163,29.4794,0\C,167,1.80696,164,91.8153,163,-72.8915,0\H,169,1.09279,167,103.048,164,-49.3099,0\H,169,1.09287,167,108.44,164,64.8756,0\H,169,1.0929,167,102.49,164,-174.93,0\O,29,2.30658,27,167.602,25,21.7528,0\S,173,1.49727,29,153.615,27,-49.7674,0\C,174,1.80612,173,102.236,29,-124.253,0\H,175,1.09296,174,100.616,173,-171.846,0\H,175,1.09343,174,113.931,173,68.5254,0\H,175,1.09358,174,107.189,173,-58.2447,0\C,174,1.80655,173,102.989,29,134.229,0\H,179,1.09314,174,112.122,173,-84.223,0\H,179,1.09316,174,114.701,173,148.699,0\H,179,1.09316,174,106.915,173,34.286,0\H,181,2.29445,179,85.7801,174,71.2708,0\C,183,1.09272,181,117.499,179,-149.102,0\H,184,1.09303,183,97.6588,181,-140.952,0\H,184,1.09339,183,110.693,181,-18.9162,0\S,184,1.80695,183,108.369,181,103.84,0\O,187,1.49681,184,98.0488,183,59.1368,0\C,187,1.80669,184,100.562,183,164.521,0\H,189,1.093,187,113.254,184,83.6173,0\H,189,1.09328,187,107.079,184,-46.3499,0\H,189,1.09346,187,106.376,184,-154.543,0\H,163,2.33001,100,76.8918,99,-120.792,0\C,193,1.09232,163,129.056,100,-107.395,0\H,194,1.09275,193,112.907,163,152.338,0\H,194,1.09339,193,113.338,163,23.8133,0\S,194,1.80789,193,113.376,163,-92.9913,0\O,197,1.49683,194,110.172,193,-79.1751,0\C,197,1.80662,194,93.2117,193,170.701,0\H,199,1.0926,197,111.865,194,171.021,0\H,199,1.09277,197,115.005,194,50.1177,0\H,199,1.09284,197,105.51,194,-74.908,0\O,176,2.33858,175,146.178,174,-113.855,0\S,203,1.4974,176,136.656,175,-26.3189,0\C,204,1.80647,203,110.232,176,-110.874,0\H,205,1.09303,204,104.835,203,147.306,0\H,205,1.0932,204,105.67,203,35.8235,0\H,205,1.09341,204,112.295,203,-82.2247,0\C,204,1.80663,203,99.9602,176,-2.52468,0\H,209,1.09261,204,114.622,203,-169.853,0\H,209,1.09284,204,107.269,203,-54.2443,0\H,209,1.09338,204,108.074,203,59.8845,0\H,81,2.35299,79,138.704,77,-17.1327,0\C,213,1.09312,81,122.33,79,163.143,0\H,214,1.09198,213,109.883,81,-123.137,0\H,214,1.09366,213,107.876,81,117.419,0\S,214,1.80688,213,110.254,81,-3.99858,0\O,217,1.49618,214,98.5907,213,59.351,0\C,217,1.80763,214,97.5112,213,160.353,0\H,219,1.09256,217,113.422,214,-167.319,0\H,219,1.09333,217,111.073,214,68.7573,0\H,219,1.09341,217,107.838,214,-51.9749,0\O,100,2.41957,99,140.32,97,-47.9617,0\S,223,1.49678,100,143.805,99,-115.868,0\C,224,1.80646,223,99.2531,100,-179.709,0\H,225,1.09204,224,104.867,223,25.8556,0\H,225,1.09338,224,111.668,223,161.201,0\H,225,1.09351,224,107.46,223,-79.6522,0\C,224,1.80702,223,101.169,100,78.8677,0\H,229,1.09262,224,110.007,223,-47.0889,0\H,229,1.09312,224,106.39,223,-166.47,0\H,229,1.09355,224,105.373,223,75.961,0\H,125,2.46595,124,145.441,123,-168.628,0\C,233,1.09361,125,132.496,124,-112.443,0\H,234,1.09247,233,107.536,125,-144.298,0\H,234,1.09357,233,104.668,125,-17.0003,0\S,234,1.80648,233,114.612,125,91.4063,0\O,237,1.49694,234,99.626,233,-150.49,0\C,237,1.80704,234,90.828,233,-45.3656,0\H,239,1.09245,237,106.966,234,-39.0969,0\H,239,1.0932,237,101.446,234,79.1783,0\H,239,1.0935,237,111.264,234,-156.331,0\H,140,2.54215,139,142.385,137,23.0738,0\C,243,1.09402,140,110.408,139,-48.8444,0\H,244,1.09285,243,111.578,140,-23.8843,0\H,244,1.09313,243,110.912,140,-148.196,0\S,244,1.80666,243,106,140,92.436,0\O,247,1.49664,244,106.849,243,167.063,0\C,247,1.8069,244,91.2969,243,56.1033,0\H,249,1.09248,247,105.821,244,55.664,0\H,249,1.09273,247,106.371,244,167.063,0\H,249,1.09327,247,109.534,244,-64.0023,0\H,5,2.55845,3,119.447,1,80.7435,0\C,253,1.09362,5,119.534,3,130.367,0\H,254,1.09263,253,100.624,5,117.24,0\H,254,1.09317,253,115.028,5,-127.148,0\S,254,1.80691,253,112.224,5,-1.81997,0\O,257,1.49712,254,108.465,253,-68.24,0\C,257,1.8069,254,96.5748,253,-178.927,0\H,259,1.09269,257,111.649,254,44.2288,0\H,259,1.09295,257,113.263,254,167.898,0\H,259,1.09363,257,101.237,254,-79.4494,0\H,253,2.33699,5,89.0745,3,31.0611,0\C,263,1.0932,253,134.165,5,-177.015,0\H,264,1.09261,263,113.922,253,-44.7918,0\H,264,1.0934,263,107.25,253,-160.832,0\S,264,1.80676,263,109.445,253,75.3858,0\O,267,1.49754,264,104.677,263,169.247,0\C,267,1.80704,264,96.5618,263,-92.7254,0\H,269,1.09244,267,108.501,264,-48.1263,0\H,269,1.09306,267,105.05,264,-166.656,0\H,269,1.09342,267,109.738,264,72.8805,0\O,256,2.40554,254,141.957,253,-111.068,0\S,273,1.49735,256,152.213,254,-44.4549,0\C,274,1.80642,273,107.538,256,103.516,0\H,275,1.09301,274,105.456,273,-73.2432,0\H,275,1.09305,274,113.24,273,164.723,0\H,275,1.09326,274,112.938,273,41.6667,0\C,274,1.8071,273,103.318,256,-162.792,0\H,279,1.09255,274,111.329,273,174.541,0\H,279,1.09258,274,107.782,273,62.8748,0\H,279,1.09312,274,109.835,273,-59.299,0\\\@

 Total job time:  77.11s(wall), 246.06s(cpu) 
 Fri Mar 12 12:16:57 2021

        *************************************************************
        *                                                           *
        *  Thank you very much for using Q-Chem.  Have a nice day.  *
        *                                                           *
        *************************************************************


