                  Welcome to Q-Chem
     A Quantum Leap Into The Future Of Chemistry


 Q-Chem 5.2 (devel), Q-Chem, Inc., Pleasanton, CA (2019)

 Yihan Shao,  Zhengting Gan,  E. Epifanovsky,  A. T. B. Gilbert,  M. Wormit,  
 J. Kussmann,  A. W. Lange,  A. Behn,  Jia Deng,  Xintian Feng,  D. Ghosh,  
 M. Goldey,  P. R. Horn,  L. D. Jacobson,  I. Kaliman,  T. Kus,  A. Landau,  
 Jie Liu,  E. I. Proynov,  R. M. Richard,  R. P. Steele,  E. J. Sundstrom,  
 H. L. Woodcock III,  P. M. Zimmerman,  D. Zuev,  B. Alam,  B. Albrecht,  
 E. Alguire,  S. A. Baeppler,  D. Barton,  Z. Benda,  Y. A. Bernard,  
 E. J. Berquist,  K. B. Bravaya,  H. Burton,  K. Carter-Fenk,  D. Casanova,  
 Chun-Min Chang,  Yunqing Chen,  A. Chien,  K. D. Closser,  M. P. Coons,  
 S. Coriani,  S. Dasgupta,  A. L. Dempwolff,  M. Diedenhofen,  Hainam Do,  
 R. G. Edgar,  Po-Tung Fang,  S. Faraji,  S. Fatehi,  Qingguo Feng,  
 J. Fosso-Tande,  J. Gayvert,  Qinghui Ge,  A. Ghysels,  G. Gidofalvi,  
 J. Gomes,  J. Gonthier,  A. Gunina,  D. Hait,  M. W. D. Hanson-Heine,  
 P. H. P. Harbach,  A. W. Hauser,  M. F. Herbst,  J. E. Herr,  
 E. G. Hohenstein,  Z. C. Holden,  Kerwin Hui,  B. C. Huynh,  T.-C. Jagau,  
 Hyunjun Ji,  B. Kaduk,  K. Khistyaev,  Jaehoon Kim,  P. Klunzinger,  K. Koh,  
 D. Kosenkov,  L. Koulias,  T. Kowalczyk,  C. M. Krauter,  A. Kunitsa,  
 Ka Un Lao,  A. Laurent,  K. V. Lawler,  Joonho Lee,  D. Lefrancois,  
 S. Lehtola,  D. S. Levine,  Yi-Pei Li,  You-Sheng Lin,  Fenglai Liu,  
 Kuan-Yu Liu,  E. Livshits,  M. Loipersberger,  A. Luenser,  P. Manohar,  
 E. Mansoor,  S. F. Manzer,  Shan-Ping Mao,  Yuezhi Mao,  N. Mardirossian,  
 A. V. Marenich,  T. Markovich,  L. A. Martinez-Martinez,  S. A. Maurer,  
 N. J. Mayhall,  S. C. McKenzie,  J.-M. Mewes,  P. Morgante,  A. F. Morrison,  
 J. W. Mullinax,  K. Nanda,  T. S. Nguyen-Beck,  R. Olivares-Amaya,  
 J. A. Parkhill,  S. K. Paul,  F. Pavosevic,  Zheng Pei,  T. M. Perrine,  
 F. Plasser,  P. Pokhilko,  S. Prager,  A. Prociuk,  E. Ramos,  B. Rana,  
 D. R. Rehn,  F. Rob,  M. Scheurer,  M. Schneider,  N. Sergueev,  
 S. M. Sharada,  S. Sharma,  D. W. Small,  T. Stauch,  C. J. Stein,  
 T. Stein,  Yu-Chuan Su,  S. P. Veccham,  Zhen Tao,  A. J. W. Thom,  
 A. Tkatchenko,  T. Tsuchimochi,  N. M. Tubman,  L. Vogt,  M. L. Vidal,  
 O. Vydrov,  M. A. Watson,  J. Wenzel,  M. de Wergifosse,  T. A. Wesolowski,  
 A. White,  J. Witte,  A. Yamada,  Jun Yang,  K. Yao,  S. Yeganeh,  
 S. R. Yost,  Zhi-Qiang You,  A. Zech,  Igor Ying Zhang,  Xing Zhang,  
 Yan Zhao,  Ying Zhu,  B. R. Brooks,  G. K. L. Chan,  C. J. Cramer,  
 M. S. Gordon,  W. J. Hehre,  A. Klamt,  M. W. Schmidt,  C. D. Sherrill,  
 D. G. Truhlar,  A. Aspuru-Guzik,  R. Baer,  A. T. Bell,  N. A. Besley,  
 Jeng-Da Chai,  A. E. DePrince, III,  R. A. DiStasio Jr.,  A. Dreuw,  
 B. D. Dunietz,  T. R. Furlani,  Chao-Ping Hsu,  Yousung Jung,  Jing Kong,  
 D. S. Lambrecht,  WanZhen Liang,  C. Ochsenfeld,  V. A. Rassolov,  
 L. V. Slipchenko,  J. E. Subotnik,  T. Van Voorhis,  J. M. Herbert,  
 A. I. Krylov,  P. M. W. Gill,  M. Head-Gordon

 Contributors to earlier versions of Q-Chem not listed above: 
 R. D. Adamson,  B. Austin,  J. Baker,  G. J. O. Beran,  K. Brandhorst,  
 S. T. Brown,  E. F. C. Byrd,  A. K. Chakraborty,  C.-L. Cheng,  
 Siu Hung Chien,  D. M. Chipman,  D. L. Crittenden,  H. Dachsel,  
 R. J. Doerksen,  A. D. Dutoi,  L. Fusti-Molnar,  W. A. Goddard III,  
 A. Golubeva-Zadorozhnaya,  S. R. Gwaltney,  G. Hawkins,  A. Heyden,  
 S. Hirata,  G. Kedziora,  F. J. Keil,  C. Kelley,  Jihan Kim,  R. A. King,  
 R. Z. Khaliullin,  P. P. Korambath,  W. Kurlancheek,  A. M. Lee,  M. S. Lee,  
 S. V. Levchenko,  Ching Yeh Lin,  D. Liotard,  R. C. Lochan,  I. Lotan,  
 P. E. Maslen,  N. Nair,  D. P. O'Neill,  D. Neuhauser,  E. Neuscamman,  
 C. M. Oana,  R. Olson,  B. Peters,  R. Peverati,  P. A. Pieniazek,  
 Y. M. Rhee,  J. Ritchie,  M. A. Rohrdanz,  E. Rosta,  N. J. Russ,  
 H. F. Schaefer III,  N. E. Schultz,  N. Shenvi,  A. C. Simmonett,  A. Sodt,  
 D. Stuck,  K. S. Thanthiriwatte,  V. Vanovschi,  Tao Wang,  A. Warshel,  
 C. F. Williams,  Q. Wu,  X. Xu,  W. Zhang

 Please cite Q-Chem as follows:
 Y. Shao et al., Mol. Phys. 113, 184-215 (2015)
 DOI: 10.1080/00268976.2014.952696

 Q-Chem 5.2.2 for Intel X86 EM64T Linux

 Parts of Q-Chem use Armadillo 9.800.1 (Horizon Scraper).
 http://arma.sourceforge.net/

 Q-Chem begins on Thu Mar 11 13:37:29 2021  

Host: n0068.mhg0
0

     Scratch files written to /local/scratch/users/ymao/r7.00_frame_0055_almo_B3LYP_dp.in20210311133728//

Checking the input file for inconsistencies... 	...done.

--------------------------------------------------------------
User input:
--------------------------------------------------------------
$molecule
0 1
--
0 1
C    23.11300   21.30000   25.65400  
C    23.64400   22.06700   26.87600  
C    25.18100   22.08300   26.82900  
C    25.75200   22.59300   25.49500  
C    25.27000   21.73100   24.31700  
C    23.73300   21.69100   24.30200  
H    25.48600   22.81900   27.58300  
H    23.21400   23.07100   26.97600  
H    23.15100   20.21400   25.80100  
H    22.03700   21.50400   25.60500  
H    25.39300   23.60800   25.28600  
H    26.84800   22.58100   25.54100  
H    25.68900   22.14500   23.39200  
H    25.62400   20.69700   24.40600  
H    23.33200   22.67300   24.02100  
H    23.47100   20.97000   23.51800  
H    25.53300   21.09500   27.14800  
N    23.30300   21.37200   28.11600  
H    23.96100   20.67100   28.43500  
C    22.23100   21.72200   28.91000  
H    22.32700   21.15500   29.85400  
O    21.38300   22.56500   28.68000  
--
0 1
C    25.09100   26.42100   26.16200  
H    25.46200   27.43100   26.35300  
H    25.97100   25.77700   26.08800  
H    24.73400   26.25900   25.14100  
S    23.92200   25.75700   27.36900  
C    22.88500   27.23600   27.41400  
H    23.38200   28.07500   27.90800  
H    22.60500   27.51100   26.39400  
H    21.98000   27.00400   27.98000  
O    24.79300   25.89800   28.57800  
C    26.20800   19.26800   20.00200  
H    26.38800   18.69700   20.91700  
H    26.87200   18.92600   19.20400  
H    26.34800   20.30700   20.31400  
S    24.47700   18.89100   19.64700  
C    24.36100   19.85700   18.12400  
H    23.52600   20.54000   18.30000  
H    25.20100   20.54100   17.98200  
H    24.09400   19.23100   17.26800  
O    23.75300   19.74600   20.63900  
C    31.19000   24.23500   30.75700  
H    32.00300   24.94600   30.59100  
H    31.50700   23.19000   30.70500  
H    30.66800   24.38700   29.80900  
S    30.20800   24.67600   32.20800  
C    29.30900   23.11200   32.09400  
H    29.19700   22.84500   31.04000  
H    29.92800   22.41900   32.67000  
H    28.36100   23.22900   32.62500  
O    29.29200   25.78600   31.79300  
C    31.47100   22.39000   27.80600  
H    32.00500   21.45800   28.00900  
H    31.58500   22.82300   26.80800  
H    31.83500   23.10300   28.55000  
S    29.73200   22.02900   28.14100  
C    29.31000   20.95600   26.75000  
H    29.91700   20.05000   26.81200  
H    28.26300   20.64500   26.79900  
H    29.44200   21.48400   25.80200  
O    28.95000   23.27900   27.88100  
C    23.49500   20.34300   32.31200  
H    22.83400   20.01200   31.50700  
H    24.39400   20.83500   31.93400  
H    23.87700   19.56200   32.97400  
S    22.40100   21.40300   33.28500  
C    21.38000   20.00000   33.78800  
H    22.02500   19.40400   34.43900  
H    20.57800   20.45400   34.37700  
H    21.01100   19.48200   32.89900  
O    21.63100   22.01400   32.15600  
C    31.41100   17.69100   27.00800  
H    32.44200   17.34300   27.11500  
H    31.41600   18.46200   26.23300  
H    30.95600   18.03200   27.94100  
S    30.46100   16.30000   26.35400  
C    30.21600   16.88000   24.66100  
H    29.41800   17.62800   24.65600  
H    31.14800   17.28500   24.25800  
H    29.85400   16.01200   24.10400  
O    29.15200   16.46600   27.06200  
C    27.58200   18.92900   28.72100  
H    27.41200   17.93800   29.14900  
H    27.16600   19.05100   27.71900  
H    28.66000   19.11000   28.70800  
S    26.66600   20.21100   29.60600  
C    27.18300   19.73900   31.27200  
H    26.78100   20.54600   31.89000  
H    26.81400   18.76800   31.61400  
H    28.27100   19.76100   31.38200  
O    25.25900   19.73600   29.42300  
C    24.13900   23.22300   20.95100  
H    23.07900   23.09100   20.71900  
H    24.62700   22.25400   21.08600  
H    24.37800   23.82600   21.83100  
S    24.81700   24.04600   19.49200  
C    23.69600   25.45200   19.67000  
H    22.64900   25.14000   19.64100  
H    24.00700   25.99200   20.56700  
H    23.87000   26.22300   18.91500  
O    24.22500   23.31200   18.33000  
C    27.39700   29.97200   29.44800  
H    26.91700   30.89200   29.10500  
H    26.73600   29.58400   30.22700  
H    28.39200   30.09800   29.88200  
S    27.38400   28.69800   28.16700  
C    27.89400   27.34900   29.25700  
H    26.95100   26.95900   29.64800  
H    28.32800   26.55400   28.64500  
H    28.48900   27.62200   30.13200  
O    28.68700   28.93400   27.47000  
C    26.23400   18.06200   34.52300  
H    25.94900   18.11600   33.46900  
H    27.30400   18.26500   34.62200  
H    25.92200   17.07600   34.87500  
S    25.42600   19.40500   35.42200  
C    26.05100   18.78400   37.00000  
H    25.51600   17.84200   37.14000  
H    27.12700   18.61700   36.90700  
H    25.78400   19.45600   37.81900  
O    23.99400   18.97200   35.36900  
C    20.55000   21.38200   18.79500  
H    21.21200   22.02000   18.20500  
H    21.11300   21.00300   19.65300  
H    20.05400   20.55600   18.28000  
S    19.22300   22.37200   19.51900  
C    20.24300   23.30600   20.68200  
H    20.66600   22.60000   21.40100  
H    20.95400   23.87100   20.07300  
H    19.56200   23.97900   21.20900  
O    18.47400   21.43700   20.41700  
C    27.69500   26.86500   21.65800  
H    27.74500   26.18800   20.80200  
H    27.90100   27.81300   21.15400  
H    28.45400   26.60400   22.40000  
S    26.04100   26.99700   22.37500  
C    26.45000   28.19400   23.66600  
H    27.08900   29.00600   23.31000  
H    25.52800   28.67700   24.00000  
H    26.84600   27.61000   24.50000  
O    25.93700   25.66500   23.04900  
C    28.42200   25.96200   25.80900  
H    28.49900   27.03200   26.01800  
H    27.90300   25.78800   24.86300  
H    28.01100   25.37000   26.63100  
S    30.09000   25.27900   25.68500  
C    30.84400   26.06100   27.12900  
H    31.90100   25.80400   27.02200  
H    30.69300   27.14300   27.10100  
H    30.42500   25.58400   28.01900  
O    30.56400   26.03400   24.48100  
C    23.28400   16.55100   32.90500  
H    23.69800   16.94100   33.83800  
H    24.00400   16.47600   32.08600  
H    22.43900   17.19100   32.63700  
S    22.47100   14.94500   33.06800  
C    23.94300   13.94500   33.37900  
H    24.60800   14.44200   34.09000  
H    23.56900   13.00500   33.79400  
H    24.33100   13.85600   32.36100  
O    22.28300   14.69600   31.60300  
C    20.19700   20.29900   23.01100  
H    19.60000   19.71200   22.30900  
H    19.64900   21.24200   23.08500  
H    21.22100   20.43800   22.65600  
S    20.26800   19.46100   24.61000  
C    20.60600   17.90500   23.75700  
H    19.64800   17.56500   23.35700  
H    21.36100   18.18400   23.01700  
H    20.94100   17.20300   24.52500  
O    18.83300   19.47100   25.03800  
C    16.90800   23.55500   31.48600  
H    15.90600   23.94500   31.28900  
H    17.63100   24.37400   31.47800  
H    17.19900   22.87300   30.68400  
S    16.95300   22.76800   33.11200  
C    18.50200   21.93700   32.69500  
H    19.29900   22.68400   32.65600  
H    18.74400   21.21300   33.47800  
H    18.36800   21.45400   31.72400  
O    15.94300   21.67200   32.97400  
C    29.45100   20.93100   21.95000  
H    30.32600   20.30400   21.76000  
H    28.74900   20.55800   22.70000  
H    28.99900   21.19700   20.99100  
S    29.96800   22.51500   22.64800  
C    28.43000   23.37500   22.24700  
H    28.49100   23.52000   21.16600  
H    27.66300   22.61000   22.38900  
H    28.28700   24.28400   22.83700  
O    31.01300   22.90500   21.64800  
C    19.60800   26.01800   29.86100  
H    20.11700   25.25200   29.27000  
H    18.62800   25.70400   30.22900  
H    19.39600   26.91100   29.26700  
S    20.72800   26.61100   31.14800  
C    21.39200   25.02500   31.70500  
H    21.84000   24.47600   30.87300  
H    22.05400   25.32400   32.52200  
H    20.59000   24.43000   32.15000  
O    19.78800   27.06400   32.22200  
C    26.48900   15.96200   24.34200  
H    26.60700   15.52700   23.34600  
H    27.45200   15.89200   24.85300  
H    25.71600   15.41800   24.89200  
S    26.05600   17.70700   24.16300  
C    24.61500   17.31000   23.14700  
H    23.88200   16.75800   23.74000  
H    24.08100   18.22600   22.88000  
H    24.92400   16.79000   22.23700  
O    27.09100   18.33400   23.28200  
C    17.80600   19.39900   29.43000  
H    17.20400   19.45900   30.34000  
H    17.44300   19.92000   28.54000  
H    17.73300   18.31000   29.36800  
S    19.50000   19.89000   29.82500  
C    20.01600   19.60200   28.11800  
H    21.10700   19.66900   28.13000  
H    19.80700   18.57900   27.79500  
H    19.54600   20.34300   27.46600  
O    20.02700   18.73900   30.62500  
C    17.87300   25.14900   26.15500  
H    16.83600   24.82800   26.28500  
H    17.98300   26.10800   26.66800  
H    18.30500   25.15900   25.15100  
S    18.78400   23.78700   26.91500  
C    18.26500   22.54700   25.70800  
H    18.61300   21.53700   25.93900  
H    17.18900   22.60700   25.52300  
H    18.72400   22.93700   24.79600  
O    17.96800   23.39300   28.10700  
C    20.84100   27.51400   24.30200  
H    20.42000   27.92500   23.38000  
H    20.06100   27.55300   25.06600  
H    21.58600   28.18900   24.73200  
S    21.25400   25.77100   24.06400  
C    22.29300   26.13400   22.63100  
H    23.03600   26.77600   23.11000  
H    22.77200   25.20800   22.30100  
H    21.73100   26.64600   21.84600  
O    20.06700   25.29700   23.28400  
C    26.72600   23.90000   30.26300  
H    27.28400   23.09500   29.77900  
H    26.31100   24.39600   29.38200  
H    27.40400   24.46400   30.90900  
S    25.36500   23.40300   31.34300  
C    24.96700   25.07500   31.90300  
H    25.91700   25.56900   32.11900  
H    24.52500   25.68900   31.11400  
H    24.27200   25.00700   32.74400  
O    26.08600   22.79500   32.50500  
C    23.92900   17.23500   27.25000  
H    24.47900   17.45500   28.16800  
H    24.46800   16.52100   26.62000  
H    23.80000   18.17800   26.71300  
S    22.32100   16.55100   27.71000  
C    23.07400   15.20900   28.65700  
H    22.31700   14.55600   29.10000  
H    23.64100   14.63200   27.92100  
H    23.69600   15.68100   29.42200  
O    21.99300   15.85500   26.42600  
C    29.20700   22.55700   17.86500  
H    30.03100   23.18400   18.21300  
H    29.04900   21.74500   18.58000  
H    29.56900   22.12100   16.93000  
S    27.69700   23.53800   17.71500  
C    28.37800   24.64500   16.46000  
H    27.54700   24.85300   15.78000  
H    28.59200   25.57500   16.99200  
H    29.13700   24.10000   15.89300  
O    27.76400   24.30200   19.00100  
$end

$rem
JOBTYPE  SP
METHOD  B3LYP
BASIS  6-31+G(D)
SYMMETRY  FALSE
SYM_IGNORE  TRUE
MEM_TOTAL  16000
MEM_STATIC  8000
MAX_SUB_FILE_NUM  16000
BASIS_LIN_DEP_THRESH  6
THRESH  14
SCF_CONVERGENCE  8
GEN_SCFMAN  TRUE
SCF_GUESS  FRAGMO
FD_MAT_VEC_PROD  FALSE
XC_GRID  000075000302
NL_GRID  1
MAX_SCF_CYCLES  200
FRGM_METHOD  STOLL
SCFMI_MODE  1
$end

$development
almo_efield  1
$end

$rem_frgm
SCF_CONVERGENCE  4
$end

--------------------------------------------------------------
 ----------------------------------------------------------------
             Standard Nuclear Orientation (Angstroms)
    I     Atom           X                Y                Z
 ----------------------------------------------------------------
    1      C      23.1130000000    21.3000000000    25.6540000000
    2      C      23.6440000000    22.0670000000    26.8760000000
    3      C      25.1810000000    22.0830000000    26.8290000000
    4      C      25.7520000000    22.5930000000    25.4950000000
    5      C      25.2700000000    21.7310000000    24.3170000000
    6      C      23.7330000000    21.6910000000    24.3020000000
    7      H      25.4860000000    22.8190000000    27.5830000000
    8      H      23.2140000000    23.0710000000    26.9760000000
    9      H      23.1510000000    20.2140000000    25.8010000000
   10      H      22.0370000000    21.5040000000    25.6050000000
   11      H      25.3930000000    23.6080000000    25.2860000000
   12      H      26.8480000000    22.5810000000    25.5410000000
   13      H      25.6890000000    22.1450000000    23.3920000000
   14      H      25.6240000000    20.6970000000    24.4060000000
   15      H      23.3320000000    22.6730000000    24.0210000000
   16      H      23.4710000000    20.9700000000    23.5180000000
   17      H      25.5330000000    21.0950000000    27.1480000000
   18      N      23.3030000000    21.3720000000    28.1160000000
   19      H      23.9610000000    20.6710000000    28.4350000000
   20      C      22.2310000000    21.7220000000    28.9100000000
   21      H      22.3270000000    21.1550000000    29.8540000000
   22      O      21.3830000000    22.5650000000    28.6800000000
   23      C      25.0910000000    26.4210000000    26.1620000000
   24      H      25.4620000000    27.4310000000    26.3530000000
   25      H      25.9710000000    25.7770000000    26.0880000000
   26      H      24.7340000000    26.2590000000    25.1410000000
   27      S      23.9220000000    25.7570000000    27.3690000000
   28      C      22.8850000000    27.2360000000    27.4140000000
   29      H      23.3820000000    28.0750000000    27.9080000000
   30      H      22.6050000000    27.5110000000    26.3940000000
   31      H      21.9800000000    27.0040000000    27.9800000000
   32      O      24.7930000000    25.8980000000    28.5780000000
   33      C      26.2080000000    19.2680000000    20.0020000000
   34      H      26.3880000000    18.6970000000    20.9170000000
   35      H      26.8720000000    18.9260000000    19.2040000000
   36      H      26.3480000000    20.3070000000    20.3140000000
   37      S      24.4770000000    18.8910000000    19.6470000000
   38      C      24.3610000000    19.8570000000    18.1240000000
   39      H      23.5260000000    20.5400000000    18.3000000000
   40      H      25.2010000000    20.5410000000    17.9820000000
   41      H      24.0940000000    19.2310000000    17.2680000000
   42      O      23.7530000000    19.7460000000    20.6390000000
   43      C      31.1900000000    24.2350000000    30.7570000000
   44      H      32.0030000000    24.9460000000    30.5910000000
   45      H      31.5070000000    23.1900000000    30.7050000000
   46      H      30.6680000000    24.3870000000    29.8090000000
   47      S      30.2080000000    24.6760000000    32.2080000000
   48      C      29.3090000000    23.1120000000    32.0940000000
   49      H      29.1970000000    22.8450000000    31.0400000000
   50      H      29.9280000000    22.4190000000    32.6700000000
   51      H      28.3610000000    23.2290000000    32.6250000000
   52      O      29.2920000000    25.7860000000    31.7930000000
   53      C      31.4710000000    22.3900000000    27.8060000000
   54      H      32.0050000000    21.4580000000    28.0090000000
   55      H      31.5850000000    22.8230000000    26.8080000000
   56      H      31.8350000000    23.1030000000    28.5500000000
   57      S      29.7320000000    22.0290000000    28.1410000000
   58      C      29.3100000000    20.9560000000    26.7500000000
   59      H      29.9170000000    20.0500000000    26.8120000000
   60      H      28.2630000000    20.6450000000    26.7990000000
   61      H      29.4420000000    21.4840000000    25.8020000000
   62      O      28.9500000000    23.2790000000    27.8810000000
   63      C      23.4950000000    20.3430000000    32.3120000000
   64      H      22.8340000000    20.0120000000    31.5070000000
   65      H      24.3940000000    20.8350000000    31.9340000000
   66      H      23.8770000000    19.5620000000    32.9740000000
   67      S      22.4010000000    21.4030000000    33.2850000000
   68      C      21.3800000000    20.0000000000    33.7880000000
   69      H      22.0250000000    19.4040000000    34.4390000000
   70      H      20.5780000000    20.4540000000    34.3770000000
   71      H      21.0110000000    19.4820000000    32.8990000000
   72      O      21.6310000000    22.0140000000    32.1560000000
   73      C      31.4110000000    17.6910000000    27.0080000000
   74      H      32.4420000000    17.3430000000    27.1150000000
   75      H      31.4160000000    18.4620000000    26.2330000000
   76      H      30.9560000000    18.0320000000    27.9410000000
   77      S      30.4610000000    16.3000000000    26.3540000000
   78      C      30.2160000000    16.8800000000    24.6610000000
   79      H      29.4180000000    17.6280000000    24.6560000000
   80      H      31.1480000000    17.2850000000    24.2580000000
   81      H      29.8540000000    16.0120000000    24.1040000000
   82      O      29.1520000000    16.4660000000    27.0620000000
   83      C      27.5820000000    18.9290000000    28.7210000000
   84      H      27.4120000000    17.9380000000    29.1490000000
   85      H      27.1660000000    19.0510000000    27.7190000000
   86      H      28.6600000000    19.1100000000    28.7080000000
   87      S      26.6660000000    20.2110000000    29.6060000000
   88      C      27.1830000000    19.7390000000    31.2720000000
   89      H      26.7810000000    20.5460000000    31.8900000000
   90      H      26.8140000000    18.7680000000    31.6140000000
   91      H      28.2710000000    19.7610000000    31.3820000000
   92      O      25.2590000000    19.7360000000    29.4230000000
   93      C      24.1390000000    23.2230000000    20.9510000000
   94      H      23.0790000000    23.0910000000    20.7190000000
   95      H      24.6270000000    22.2540000000    21.0860000000
   96      H      24.3780000000    23.8260000000    21.8310000000
   97      S      24.8170000000    24.0460000000    19.4920000000
   98      C      23.6960000000    25.4520000000    19.6700000000
   99      H      22.6490000000    25.1400000000    19.6410000000
  100      H      24.0070000000    25.9920000000    20.5670000000
  101      H      23.8700000000    26.2230000000    18.9150000000
  102      O      24.2250000000    23.3120000000    18.3300000000
  103      C      27.3970000000    29.9720000000    29.4480000000
  104      H      26.9170000000    30.8920000000    29.1050000000
  105      H      26.7360000000    29.5840000000    30.2270000000
  106      H      28.3920000000    30.0980000000    29.8820000000
  107      S      27.3840000000    28.6980000000    28.1670000000
  108      C      27.8940000000    27.3490000000    29.2570000000
  109      H      26.9510000000    26.9590000000    29.6480000000
  110      H      28.3280000000    26.5540000000    28.6450000000
  111      H      28.4890000000    27.6220000000    30.1320000000
  112      O      28.6870000000    28.9340000000    27.4700000000
  113      C      26.2340000000    18.0620000000    34.5230000000
  114      H      25.9490000000    18.1160000000    33.4690000000
  115      H      27.3040000000    18.2650000000    34.6220000000
  116      H      25.9220000000    17.0760000000    34.8750000000
  117      S      25.4260000000    19.4050000000    35.4220000000
  118      C      26.0510000000    18.7840000000    37.0000000000
  119      H      25.5160000000    17.8420000000    37.1400000000
  120      H      27.1270000000    18.6170000000    36.9070000000
  121      H      25.7840000000    19.4560000000    37.8190000000
  122      O      23.9940000000    18.9720000000    35.3690000000
  123      C      20.5500000000    21.3820000000    18.7950000000
  124      H      21.2120000000    22.0200000000    18.2050000000
  125      H      21.1130000000    21.0030000000    19.6530000000
  126      H      20.0540000000    20.5560000000    18.2800000000
  127      S      19.2230000000    22.3720000000    19.5190000000
  128      C      20.2430000000    23.3060000000    20.6820000000
  129      H      20.6660000000    22.6000000000    21.4010000000
  130      H      20.9540000000    23.8710000000    20.0730000000
  131      H      19.5620000000    23.9790000000    21.2090000000
  132      O      18.4740000000    21.4370000000    20.4170000000
  133      C      27.6950000000    26.8650000000    21.6580000000
  134      H      27.7450000000    26.1880000000    20.8020000000
  135      H      27.9010000000    27.8130000000    21.1540000000
  136      H      28.4540000000    26.6040000000    22.4000000000
  137      S      26.0410000000    26.9970000000    22.3750000000
  138      C      26.4500000000    28.1940000000    23.6660000000
  139      H      27.0890000000    29.0060000000    23.3100000000
  140      H      25.5280000000    28.6770000000    24.0000000000
  141      H      26.8460000000    27.6100000000    24.5000000000
  142      O      25.9370000000    25.6650000000    23.0490000000
  143      C      28.4220000000    25.9620000000    25.8090000000
  144      H      28.4990000000    27.0320000000    26.0180000000
  145      H      27.9030000000    25.7880000000    24.8630000000
  146      H      28.0110000000    25.3700000000    26.6310000000
  147      S      30.0900000000    25.2790000000    25.6850000000
  148      C      30.8440000000    26.0610000000    27.1290000000
  149      H      31.9010000000    25.8040000000    27.0220000000
  150      H      30.6930000000    27.1430000000    27.1010000000
  151      H      30.4250000000    25.5840000000    28.0190000000
  152      O      30.5640000000    26.0340000000    24.4810000000
  153      C      23.2840000000    16.5510000000    32.9050000000
  154      H      23.6980000000    16.9410000000    33.8380000000
  155      H      24.0040000000    16.4760000000    32.0860000000
  156      H      22.4390000000    17.1910000000    32.6370000000
  157      S      22.4710000000    14.9450000000    33.0680000000
  158      C      23.9430000000    13.9450000000    33.3790000000
  159      H      24.6080000000    14.4420000000    34.0900000000
  160      H      23.5690000000    13.0050000000    33.7940000000
  161      H      24.3310000000    13.8560000000    32.3610000000
  162      O      22.2830000000    14.6960000000    31.6030000000
  163      C      20.1970000000    20.2990000000    23.0110000000
  164      H      19.6000000000    19.7120000000    22.3090000000
  165      H      19.6490000000    21.2420000000    23.0850000000
  166      H      21.2210000000    20.4380000000    22.6560000000
  167      S      20.2680000000    19.4610000000    24.6100000000
  168      C      20.6060000000    17.9050000000    23.7570000000
  169      H      19.6480000000    17.5650000000    23.3570000000
  170      H      21.3610000000    18.1840000000    23.0170000000
  171      H      20.9410000000    17.2030000000    24.5250000000
  172      O      18.8330000000    19.4710000000    25.0380000000
  173      C      16.9080000000    23.5550000000    31.4860000000
  174      H      15.9060000000    23.9450000000    31.2890000000
  175      H      17.6310000000    24.3740000000    31.4780000000
  176      H      17.1990000000    22.8730000000    30.6840000000
  177      S      16.9530000000    22.7680000000    33.1120000000
  178      C      18.5020000000    21.9370000000    32.6950000000
  179      H      19.2990000000    22.6840000000    32.6560000000
  180      H      18.7440000000    21.2130000000    33.4780000000
  181      H      18.3680000000    21.4540000000    31.7240000000
  182      O      15.9430000000    21.6720000000    32.9740000000
  183      C      29.4510000000    20.9310000000    21.9500000000
  184      H      30.3260000000    20.3040000000    21.7600000000
  185      H      28.7490000000    20.5580000000    22.7000000000
  186      H      28.9990000000    21.1970000000    20.9910000000
  187      S      29.9680000000    22.5150000000    22.6480000000
  188      C      28.4300000000    23.3750000000    22.2470000000
  189      H      28.4910000000    23.5200000000    21.1660000000
  190      H      27.6630000000    22.6100000000    22.3890000000
  191      H      28.2870000000    24.2840000000    22.8370000000
  192      O      31.0130000000    22.9050000000    21.6480000000
  193      C      19.6080000000    26.0180000000    29.8610000000
  194      H      20.1170000000    25.2520000000    29.2700000000
  195      H      18.6280000000    25.7040000000    30.2290000000
  196      H      19.3960000000    26.9110000000    29.2670000000
  197      S      20.7280000000    26.6110000000    31.1480000000
  198      C      21.3920000000    25.0250000000    31.7050000000
  199      H      21.8400000000    24.4760000000    30.8730000000
  200      H      22.0540000000    25.3240000000    32.5220000000
  201      H      20.5900000000    24.4300000000    32.1500000000
  202      O      19.7880000000    27.0640000000    32.2220000000
  203      C      26.4890000000    15.9620000000    24.3420000000
  204      H      26.6070000000    15.5270000000    23.3460000000
  205      H      27.4520000000    15.8920000000    24.8530000000
  206      H      25.7160000000    15.4180000000    24.8920000000
  207      S      26.0560000000    17.7070000000    24.1630000000
  208      C      24.6150000000    17.3100000000    23.1470000000
  209      H      23.8820000000    16.7580000000    23.7400000000
  210      H      24.0810000000    18.2260000000    22.8800000000
  211      H      24.9240000000    16.7900000000    22.2370000000
  212      O      27.0910000000    18.3340000000    23.2820000000
  213      C      17.8060000000    19.3990000000    29.4300000000
  214      H      17.2040000000    19.4590000000    30.3400000000
  215      H      17.4430000000    19.9200000000    28.5400000000
  216      H      17.7330000000    18.3100000000    29.3680000000
  217      S      19.5000000000    19.8900000000    29.8250000000
  218      C      20.0160000000    19.6020000000    28.1180000000
  219      H      21.1070000000    19.6690000000    28.1300000000
  220      H      19.8070000000    18.5790000000    27.7950000000
  221      H      19.5460000000    20.3430000000    27.4660000000
  222      O      20.0270000000    18.7390000000    30.6250000000
  223      C      17.8730000000    25.1490000000    26.1550000000
  224      H      16.8360000000    24.8280000000    26.2850000000
  225      H      17.9830000000    26.1080000000    26.6680000000
  226      H      18.3050000000    25.1590000000    25.1510000000
  227      S      18.7840000000    23.7870000000    26.9150000000
  228      C      18.2650000000    22.5470000000    25.7080000000
  229      H      18.6130000000    21.5370000000    25.9390000000
  230      H      17.1890000000    22.6070000000    25.5230000000
  231      H      18.7240000000    22.9370000000    24.7960000000
  232      O      17.9680000000    23.3930000000    28.1070000000
  233      C      20.8410000000    27.5140000000    24.3020000000
  234      H      20.4200000000    27.9250000000    23.3800000000
  235      H      20.0610000000    27.5530000000    25.0660000000
  236      H      21.5860000000    28.1890000000    24.7320000000
  237      S      21.2540000000    25.7710000000    24.0640000000
  238      C      22.2930000000    26.1340000000    22.6310000000
  239      H      23.0360000000    26.7760000000    23.1100000000
  240      H      22.7720000000    25.2080000000    22.3010000000
  241      H      21.7310000000    26.6460000000    21.8460000000
  242      O      20.0670000000    25.2970000000    23.2840000000
  243      C      26.7260000000    23.9000000000    30.2630000000
  244      H      27.2840000000    23.0950000000    29.7790000000
  245      H      26.3110000000    24.3960000000    29.3820000000
  246      H      27.4040000000    24.4640000000    30.9090000000
  247      S      25.3650000000    23.4030000000    31.3430000000
  248      C      24.9670000000    25.0750000000    31.9030000000
  249      H      25.9170000000    25.5690000000    32.1190000000
  250      H      24.5250000000    25.6890000000    31.1140000000
  251      H      24.2720000000    25.0070000000    32.7440000000
  252      O      26.0860000000    22.7950000000    32.5050000000
  253      C      23.9290000000    17.2350000000    27.2500000000
  254      H      24.4790000000    17.4550000000    28.1680000000
  255      H      24.4680000000    16.5210000000    26.6200000000
  256      H      23.8000000000    18.1780000000    26.7130000000
  257      S      22.3210000000    16.5510000000    27.7100000000
  258      C      23.0740000000    15.2090000000    28.6570000000
  259      H      22.3170000000    14.5560000000    29.1000000000
  260      H      23.6410000000    14.6320000000    27.9210000000
  261      H      23.6960000000    15.6810000000    29.4220000000
  262      O      21.9930000000    15.8550000000    26.4260000000
  263      C      29.2070000000    22.5570000000    17.8650000000
  264      H      30.0310000000    23.1840000000    18.2130000000
  265      H      29.0490000000    21.7450000000    18.5800000000
  266      H      29.5690000000    22.1210000000    16.9300000000
  267      S      27.6970000000    23.5380000000    17.7150000000
  268      C      28.3780000000    24.6450000000    16.4600000000
  269      H      27.5470000000    24.8530000000    15.7800000000
  270      H      28.5920000000    25.5750000000    16.9920000000
  271      H      29.1370000000    24.1000000000    15.8930000000
  272      O      27.7640000000    24.3020000000    19.0010000000
 ----------------------------------------------------------------
 Nuclear Repulsion Energy =       43122.69251206 hartrees
 There are      560 alpha and      560 beta electrons
 Requested basis set is 6-31+G(d)
 There are 896 shells and 2497 basis functions

 Total QAlloc Memory Limit  16000 MB
 Mega-Array Size      7821 MB
 MEM_STATIC part      8000 MB
 A cutoff of  1.0D-14 yielded 161856 shell pairs
 There are   1398897 function pairs
 Smallest overlap matrix eigenvalue = 3.47E-07
 Linear dependence detected in AO basis
 Tighter screening thresholds may be required for diffuse basis sets
 Use S2THRESH > 14 and THRESH = 14 in case of SCF convergence issues
 Number of orthogonalized atomic orbitals = 2495
 Maximum deviation from orthogonality = 1.655E-10

 Scale SEOQF with 1.000000e-03/1.000000e-03/1.000000e-03

 Standard Electronic Orientation quadrupole field applied
 Nucleus-field energy     =    -0.0000002430 hartrees
Attempting to make child job directory: /local/scratch/users/ymao/r7.00_frame_0055_almo_B3LYP_dp.in20210311133728//Frg1/
Attempting to make child job directory: /local/scratch/users/ymao/r7.00_frame_0055_almo_B3LYP_dp.in20210311133728//Frg2/
Creating input file /local/scratch/users/ymao/r7.00_frame_0055_almo_B3LYP_dp.in20210311133728/Frg1.input
using default PutDataFrgm: nothing
calling putenv with: QCSCRATCH=/local/scratch/users/ymao/r7.00_frame_0055_almo_B3LYP_dp.in20210311133728/ 
Spawning Job For Fragment 0
Done Job For Fragment 0
calling putenv with: QCSCRATCH=/local/scratch/users/ymao 
calling putenv with: QCTHREADS=8 
Creating input file /local/scratch/users/ymao/r7.00_frame_0055_almo_B3LYP_dp.in20210311133728/Frg2.input
using default PutDataFrgm: nothing
calling putenv with: QCSCRATCH=/local/scratch/users/ymao/r7.00_frame_0055_almo_B3LYP_dp.in20210311133728/ 
Spawning Job For Fragment 1
Done Job For Fragment 1
calling putenv with: QCSCRATCH=/local/scratch/users/ymao 
calling putenv with: QCTHREADS=8 
 Time for running child jobs:  CPU 0.70 s  wall 17487.81 s

 -----------------------------------------------------------------------
  General SCF calculation program by
  Eric Jon Sundstrom, Paul Horn, Yuezhi Mao, Dmitri Zuev, Alec White,
  David Stuck, Shaama M.S., Shane Yost, Joonho Lee, David Small,
  Daniel Levine, Susi Lehtola, Hugh Burton, Evgeny Epifanovsky,
  Bang C. Huynh
 -----------------------------------------------------------------------
Performing Restricted Closed Shell SCFMI
Doing General SCFMI
 Exchange:     0.2000 Hartree-Fock + 0.0800 Slater + 0.7200 B88
 Correlation:  0.1900 VWN1RPA + 0.8100 LYP
 Using Euler-Maclaurin-Lebedev (75,302) quadrature formula
performing fock build before subrot guess so that all methods have access
Printing subrot_rss_gen Method Specification:
Occupied Subspace Method is 0
Virtual Subspace Method is 0
Energy prior to optimization (guess energy) = -14234.317831131091
Begin Timing: Total SCF Calculation
begin iterations for algorithm: DIIS         
the SCF tolerance is set to 1.00e-08
    1  -14234.3178311311      5.23e-05     00000 
    2  -14234.3108435284      9.10e-05     00000 
    3  -14234.3288847025      1.56e-05     00000 
    4  -14234.3293623029      7.76e-06     00000 
    5  -14234.3295006966      4.05e-06     00000 
    6  -14234.3295329676      2.63e-06     00000 
    7  -14234.3295483551      1.51e-06     00000 
    8  -14234.3295542951      8.01e-07     00000 
    9  -14234.3295554906      5.81e-07     00000 
   10  -14234.3295560219      4.08e-07     00000 
   11  -14234.3295563444      2.48e-07     00000 
   12  -14234.3295564737      1.56e-07     00000 
   13  -14234.3295565249      9.85e-08     00000 
   14  -14234.3295565409      7.36e-08     00000 
   15  -14234.3295565511      4.32e-08     00000 
   16  -14234.3295565553      2.04e-08     00000 
   17  -14234.3295565563      1.20e-08     00000 
   18  -14234.3295565566      8.79e-09     00000 Convergence criterion met
write pseudocanon occs and virts to disk
write pseudocanon orbital energies to disk
Timing for Total SCF: 47347.00s (wall), 375222.67s (cpu)
SCFMI Energy  -14234.3295565566
<S^2>            0.00000
 Total energy in the final basis set =   -14234.3295565566
    ==================================================
        The end of Object-Oriented SCFman: SCFMI      
    ==================================================
 
 --------------------------------------------------------------
 
                    Orbital Energies (a.u.)
 --------------------------------------------------------------
 
 Alpha MOs
 -- Occupied --
-89.0399 -89.0294 -89.0276 -89.0254 -89.0234 -89.0221 -89.0213 -89.0172
-89.0170 -89.0135 -89.0096 -89.0040 -88.9975 -88.9922 -88.9912 -88.9899
-88.9896 -88.9845 -88.9834 -88.9749 -88.9701 -88.9693 -88.9687 -88.9557
-88.9501 -19.1525 -19.1449 -19.1430 -19.1420 -19.1398 -19.1358 -19.1354
-19.1315 -19.1284 -19.1275 -19.1244 -19.1173 -19.1108 -19.1091 -19.1083
-19.1023 -19.1005 -19.1002 -19.0999 -19.0945 -19.0941 -19.0846 -19.0802
-19.0796 -19.0782 -19.0624 -14.3394 -10.2640 -10.2588 -10.2562 -10.2534
-10.2480 -10.2425 -10.2398 -10.2392 -10.2387 -10.2385 -10.2378 -10.2365
-10.2363 -10.2353 -10.2332 -10.2315 -10.2262 -10.2256 -10.2254 -10.2231
-10.2229 -10.2217 -10.2217 -10.2213 -10.2198 -10.2186 -10.2173 -10.2159
-10.2127 -10.2120 -10.2072 -10.2071 -10.2065 -10.2062 -10.2055 -10.2046
-10.2042 -10.2020 -10.1960 -10.1933 -10.1921 -10.1918 -10.1907 -10.1899
-10.1882 -10.1876 -10.1873 -10.1863 -10.1833 -10.1817 -10.1813 -10.1805
-10.1755 -10.1707 -10.1667 -10.1632 -10.1628  -8.0853  -8.0764  -8.0734
 -8.0711  -8.0695  -8.0682  -8.0665  -8.0628  -8.0626  -8.0599  -8.0560
 -8.0501  -8.0436  -8.0391  -8.0372  -8.0357  -8.0353  -8.0312  -8.0294
 -8.0214  -8.0159  -8.0157  -8.0147  -8.0013  -7.9965  -6.0498  -6.0486
 -6.0425  -6.0406  -6.0396  -6.0376  -6.0365  -6.0354  -6.0343  -6.0339
 -6.0334  -6.0325  -6.0324  -6.0312  -6.0312  -6.0308  -6.0296  -6.0285
 -6.0273  -6.0270  -6.0269  -6.0258  -6.0257  -6.0257  -6.0242  -6.0241
 -6.0230  -6.0203  -6.0203  -6.0201  -6.0191  -6.0173  -6.0144  -6.0135
 -6.0131  -6.0080  -6.0078  -6.0065  -6.0030  -6.0022  -6.0016  -6.0009
 -6.0003  -6.0000  -5.9999  -5.9989  -5.9982  -5.9967  -5.9955  -5.9948
 -5.9944  -5.9937  -5.9930  -5.9927  -5.9923  -5.9886  -5.9870  -5.9858
 -5.9843  -5.9804  -5.9800  -5.9790  -5.9790  -5.9790  -5.9789  -5.9776
 -5.9734  -5.9731  -5.9724  -5.9657  -5.9643  -5.9608  -5.9594  -5.9587
 -5.9543  -1.0618  -1.0545  -1.0544  -1.0508  -1.0474  -1.0467  -1.0461
 -1.0426  -1.0401  -1.0400  -1.0354  -1.0262  -1.0246  -1.0209  -1.0188
 -1.0165  -1.0120  -1.0109  -1.0090  -1.0080  -1.0025  -0.9949  -0.9924
 -0.9910  -0.9840  -0.9724  -0.9127  -0.8402  -0.8354  -0.8280  -0.8269
 -0.8247  -0.8239  -0.8232  -0.8210  -0.8190  -0.8158  -0.8138  -0.8054
 -0.8047  -0.8006  -0.7986  -0.7929  -0.7911  -0.7906  -0.7874  -0.7858
 -0.7828  -0.7772  -0.7729  -0.7698  -0.7683  -0.7664  -0.7588  -0.7522
 -0.7516  -0.7511  -0.7493  -0.7482  -0.7472  -0.7428  -0.7426  -0.7412
 -0.7409  -0.7377  -0.7343  -0.7282  -0.7269  -0.7266  -0.7244  -0.7216
 -0.7199  -0.7116  -0.7070  -0.7007  -0.6993  -0.6962  -0.6918  -0.6801
 -0.6711  -0.6507  -0.6438  -0.6413  -0.6384  -0.6378  -0.6355  -0.6348
 -0.6319  -0.6305  -0.6285  -0.6275  -0.6236  -0.6211  -0.6138  -0.6136
 -0.6055  -0.6022  -0.6013  -0.6005  -0.5973  -0.5962  -0.5876  -0.5811
 -0.5809  -0.5790  -0.5766  -0.5708  -0.5630  -0.5622  -0.5211  -0.5148
 -0.5122  -0.5118  -0.5091  -0.5054  -0.5044  -0.5035  -0.5030  -0.5019
 -0.5009  -0.4982  -0.4976  -0.4970  -0.4954  -0.4950  -0.4946  -0.4941
 -0.4932  -0.4917  -0.4874  -0.4872  -0.4870  -0.4848  -0.4842  -0.4828
 -0.4822  -0.4818  -0.4817  -0.4809  -0.4804  -0.4797  -0.4787  -0.4784
 -0.4772  -0.4758  -0.4756  -0.4749  -0.4744  -0.4732  -0.4724  -0.4691
 -0.4690  -0.4687  -0.4680  -0.4675  -0.4670  -0.4661  -0.4653  -0.4638
 -0.4635  -0.4617  -0.4593  -0.4587  -0.4581  -0.4579  -0.4565  -0.4555
 -0.4548  -0.4543  -0.4539  -0.4536  -0.4531  -0.4525  -0.4516  -0.4508
 -0.4506  -0.4503  -0.4498  -0.4489  -0.4471  -0.4467  -0.4449  -0.4448
 -0.4441  -0.4432  -0.4430  -0.4423  -0.4411  -0.4406  -0.4403  -0.4393
 -0.4390  -0.4387  -0.4383  -0.4378  -0.4367  -0.4360  -0.4355  -0.4346
 -0.4339  -0.4325  -0.4323  -0.4313  -0.4311  -0.4309  -0.4306  -0.4299
 -0.4297  -0.4270  -0.4268  -0.4239  -0.4235  -0.4227  -0.4216  -0.4206
 -0.4199  -0.4194  -0.4185  -0.4172  -0.4151  -0.4150  -0.4122  -0.4110
 -0.4109  -0.4102  -0.4098  -0.4095  -0.4091  -0.4081  -0.4068  -0.4054
 -0.4043  -0.4038  -0.4034  -0.4022  -0.4016  -0.4009  -0.4001  -0.3993
 -0.3990  -0.3987  -0.3977  -0.3972  -0.3962  -0.3960  -0.3949  -0.3943
 -0.3937  -0.3926  -0.3925  -0.3920  -0.3910  -0.3907  -0.3881  -0.3878
 -0.3872  -0.3869  -0.3865  -0.3851  -0.3841  -0.3834  -0.3831  -0.3820
 -0.3794  -0.3791  -0.3783  -0.3747  -0.3740  -0.3738  -0.3716  -0.3704
 -0.3697  -0.3685  -0.3666  -0.3660  -0.3648  -0.3635  -0.3626  -0.3609
 -0.3602  -0.3562  -0.3551  -0.3540  -0.3539  -0.3506  -0.3501  -0.3497
 -0.3460  -0.3412  -0.3411  -0.3393  -0.3359  -0.3310  -0.3298  -0.3295
 -0.3185  -0.3172  -0.3160  -0.3137  -0.3073  -0.3047  -0.3033  -0.3021
 -0.3012  -0.2955  -0.2947  -0.2903  -0.2901  -0.2878  -0.2846  -0.2781
 -0.2778  -0.2718  -0.2701  -0.2678  -0.2672  -0.2669  -0.2668  -0.2658
 -0.2648  -0.2632  -0.2609  -0.2605  -0.2605  -0.2603  -0.2602  -0.2586
 -0.2534  -0.2523  -0.2510  -0.2452  -0.2445  -0.2425  -0.2401  -0.2390
 -0.2380  -0.2355  -0.2339  -0.2337  -0.2331  -0.2296  -0.2261  -0.2257
 -0.2247  -0.2198  -0.2192  -0.2142  -0.2083  -0.2070  -0.2024  -0.1926
 -- Virtual --
 -0.0497  -0.0355  -0.0340  -0.0335  -0.0311  -0.0280  -0.0272  -0.0250
 -0.0232  -0.0215  -0.0208  -0.0191  -0.0185  -0.0184  -0.0160  -0.0141
 -0.0131  -0.0125  -0.0120  -0.0096  -0.0087  -0.0073  -0.0066  -0.0055
 -0.0048  -0.0042  -0.0030  -0.0025  -0.0020  -0.0013   0.0003   0.0023
  0.0029   0.0038   0.0044   0.0049   0.0065   0.0080   0.0090   0.0093
  0.0112   0.0114   0.0121   0.0126   0.0130   0.0136   0.0150   0.0159
  0.0164   0.0168   0.0173   0.0188   0.0195   0.0208   0.0212   0.0228
  0.0233   0.0240   0.0242   0.0248   0.0264   0.0274   0.0277   0.0283
  0.0294   0.0299   0.0305   0.0306   0.0315   0.0318   0.0326   0.0333
  0.0338   0.0341   0.0359   0.0361   0.0369   0.0374   0.0380   0.0389
  0.0393   0.0401   0.0420   0.0430   0.0437   0.0439   0.0449   0.0454
  0.0465   0.0471   0.0478   0.0481   0.0490   0.0498   0.0502   0.0509
  0.0515   0.0518   0.0520   0.0531   0.0544   0.0553   0.0560   0.0565
  0.0569   0.0577   0.0590   0.0597   0.0599   0.0608   0.0610   0.0615
  0.0621   0.0633   0.0639   0.0646   0.0652   0.0658   0.0660   0.0670
  0.0678   0.0683   0.0692   0.0705   0.0712   0.0720   0.0722   0.0735
  0.0737   0.0741   0.0751   0.0758   0.0766   0.0770   0.0781   0.0791
  0.0798   0.0803   0.0807   0.0813   0.0818   0.0827   0.0829   0.0837
  0.0838   0.0848   0.0855   0.0856   0.0868   0.0871   0.0882   0.0889
  0.0893   0.0900   0.0907   0.0916   0.0927   0.0930   0.0933   0.0941
  0.0950   0.0960   0.0965   0.0969   0.0982   0.0985   0.0988   0.0995
  0.0998   0.1002   0.1015   0.1022   0.1035   0.1040   0.1044   0.1048
  0.1056   0.1066   0.1073   0.1076   0.1087   0.1093   0.1107   0.1110
  0.1121   0.1125   0.1131   0.1132   0.1136   0.1144   0.1156   0.1158
  0.1160   0.1174   0.1180   0.1187   0.1192   0.1197   0.1204   0.1209
  0.1214   0.1216   0.1227   0.1242   0.1244   0.1250   0.1251   0.1263
  0.1273   0.1283   0.1286   0.1297   0.1304   0.1310   0.1317   0.1320
  0.1334   0.1340   0.1349   0.1350   0.1352   0.1355   0.1363   0.1383
  0.1387   0.1392   0.1395   0.1402   0.1404   0.1410   0.1418   0.1425
  0.1431   0.1438   0.1445   0.1452   0.1461   0.1468   0.1476   0.1481
  0.1485   0.1490   0.1498   0.1503   0.1507   0.1512   0.1516   0.1524
  0.1525   0.1537   0.1545   0.1545   0.1562   0.1571   0.1573   0.1585
  0.1591   0.1598   0.1604   0.1613   0.1616   0.1622   0.1628   0.1637
  0.1648   0.1651   0.1657   0.1667   0.1672   0.1679   0.1685   0.1690
  0.1696   0.1701   0.1708   0.1712   0.1717   0.1721   0.1724   0.1738
  0.1740   0.1752   0.1758   0.1758   0.1770   0.1773   0.1779   0.1797
  0.1797   0.1801   0.1812   0.1817   0.1820   0.1824   0.1830   0.1835
  0.1846   0.1847   0.1852   0.1859   0.1870   0.1875   0.1890   0.1896
  0.1899   0.1901   0.1911   0.1913   0.1919   0.1924   0.1931   0.1937
  0.1946   0.1955   0.1960   0.1972   0.1975   0.1984   0.1989   0.1991
  0.2000   0.2005   0.2014   0.2016   0.2020   0.2023   0.2038   0.2044
  0.2048   0.2058   0.2064   0.2072   0.2079   0.2084   0.2090   0.2095
  0.2105   0.2107   0.2119   0.2122   0.2130   0.2139   0.2142   0.2145
  0.2153   0.2157   0.2165   0.2168   0.2175   0.2193   0.2195   0.2198
  0.2218   0.2229   0.2231   0.2236   0.2242   0.2246   0.2255   0.2263
  0.2265   0.2279   0.2293   0.2310   0.2313   0.2315   0.2320   0.2323
  0.2329   0.2337   0.2342   0.2350   0.2360   0.2362   0.2368   0.2373
  0.2379   0.2380   0.2385   0.2392   0.2408   0.2413   0.2422   0.2428
  0.2435   0.2440   0.2443   0.2462   0.2464   0.2476   0.2478   0.2483
  0.2498   0.2500   0.2509   0.2514   0.2519   0.2526   0.2529   0.2538
  0.2548   0.2553   0.2561   0.2570   0.2579   0.2588   0.2597   0.2603
  0.2609   0.2615   0.2625   0.2632   0.2637   0.2643   0.2675   0.2677
  0.2680   0.2684   0.2697   0.2700   0.2709   0.2717   0.2724   0.2730
  0.2741   0.2749   0.2762   0.2774   0.2783   0.2792   0.2802   0.2811
  0.2818   0.2823   0.2838   0.2842   0.2853   0.2859   0.2869   0.2873
  0.2878   0.2888   0.2893   0.2905   0.2915   0.2919   0.2931   0.2938
  0.2947   0.2949   0.2954   0.2964   0.2971   0.2979   0.2992   0.2997
  0.3009   0.3012   0.3025   0.3032   0.3039   0.3046   0.3052   0.3059
  0.3070   0.3083   0.3085   0.3107   0.3107   0.3111   0.3120   0.3132
  0.3144   0.3153   0.3161   0.3172   0.3176   0.3191   0.3201   0.3208
  0.3214   0.3222   0.3233   0.3245   0.3251   0.3260   0.3268   0.3277
  0.3285   0.3295   0.3301   0.3305   0.3324   0.3334   0.3336   0.3342
  0.3348   0.3349   0.3367   0.3375   0.3379   0.3389   0.3413   0.3415
  0.3429   0.3439   0.3444   0.3447   0.3461   0.3469   0.3486   0.3489
  0.3500   0.3510   0.3520   0.3525   0.3540   0.3544   0.3548   0.3563
  0.3573   0.3584   0.3595   0.3602   0.3613   0.3615   0.3631   0.3639
  0.3643   0.3653   0.3660   0.3664   0.3682   0.3688   0.3696   0.3713
  0.3717   0.3735   0.3739   0.3751   0.3757   0.3761   0.3775   0.3787
  0.3788   0.3800   0.3812   0.3817   0.3828   0.3842   0.3846   0.3862
  0.3863   0.3868   0.3879   0.3889   0.3899   0.3905   0.3921   0.3927
  0.3940   0.3950   0.3960   0.3976   0.3978   0.3985   0.3995   0.4001
  0.4007   0.4021   0.4031   0.4042   0.4050   0.4060   0.4066   0.4072
  0.4082   0.4094   0.4104   0.4123   0.4133   0.4141   0.4145   0.4158
  0.4165   0.4168   0.4170   0.4191   0.4207   0.4214   0.4217   0.4224
  0.4232   0.4244   0.4263   0.4284   0.4289   0.4298   0.4307   0.4319
  0.4321   0.4330   0.4345   0.4359   0.4371   0.4376   0.4386   0.4393
  0.4402   0.4412   0.4433   0.4449   0.4465   0.4468   0.4485   0.4493
  0.4502   0.4522   0.4533   0.4542   0.4549   0.4556   0.4567   0.4571
  0.4600   0.4603   0.4631   0.4642   0.4644   0.4667   0.4675   0.4689
  0.4698   0.4718   0.4726   0.4733   0.4747   0.4786   0.4794   0.4798
  0.4803   0.4819   0.4843   0.4852   0.4868   0.4877   0.4891   0.4911
  0.4919   0.4933   0.4953   0.4972   0.5000   0.5012   0.5032   0.5048
  0.5066   0.5083   0.5100   0.5110   0.5116   0.5143   0.5152   0.5172
  0.5182   0.5205   0.5219   0.5232   0.5244   0.5252   0.5262   0.5284
  0.5294   0.5314   0.5340   0.5345   0.5356   0.5372   0.5390   0.5414
  0.5440   0.5452   0.5465   0.5486   0.5495   0.5511   0.5523   0.5538
  0.5565   0.5567   0.5584   0.5604   0.5626   0.5636   0.5667   0.5688
  0.5702   0.5724   0.5738   0.5751   0.5760   0.5773   0.5783   0.5807
  0.5816   0.5844   0.5865   0.5877   0.5895   0.5918   0.5920   0.5926
  0.5958   0.5981   0.5983   0.6001   0.6014   0.6025   0.6040   0.6045
  0.6048   0.6078   0.6092   0.6101   0.6116   0.6122   0.6157   0.6164
  0.6191   0.6201   0.6220   0.6233   0.6252   0.6266   0.6270   0.6274
  0.6290   0.6304   0.6322   0.6332   0.6339   0.6344   0.6354   0.6369
  0.6395   0.6397   0.6412   0.6432   0.6450   0.6455   0.6470   0.6476
  0.6492   0.6495   0.6511   0.6525   0.6533   0.6545   0.6561   0.6572
  0.6594   0.6605   0.6610   0.6616   0.6631   0.6639   0.6656   0.6668
  0.6680   0.6691   0.6702   0.6717   0.6725   0.6742   0.6746   0.6778
  0.6788   0.6793   0.6806   0.6814   0.6824   0.6838   0.6845   0.6853
  0.6864   0.6867   0.6875   0.6889   0.6895   0.6899   0.6915   0.6932
  0.6943   0.6959   0.6980   0.6989   0.6996   0.7014   0.7033   0.7040
  0.7053   0.7063   0.7079   0.7086   0.7109   0.7117   0.7129   0.7136
  0.7152   0.7157   0.7181   0.7187   0.7195   0.7218   0.7228   0.7255
  0.7268   0.7288   0.7302   0.7311   0.7333   0.7351   0.7369   0.7386
  0.7407   0.7417   0.7433   0.7441   0.7452   0.7465   0.7482   0.7511
  0.7525   0.7537   0.7558   0.7566   0.7577   0.7601   0.7610   0.7629
  0.7653   0.7661   0.7674   0.7685   0.7703   0.7712   0.7733   0.7759
  0.7770   0.7778   0.7802   0.7808   0.7819   0.7830   0.7857   0.7862
  0.7881   0.7897   0.7916   0.7938   0.7959   0.7964   0.8000   0.8006
  0.8024   0.8046   0.8062   0.8070   0.8086   0.8115   0.8127   0.8144
  0.8149   0.8167   0.8180   0.8188   0.8207   0.8215   0.8248   0.8256
  0.8275   0.8280   0.8296   0.8306   0.8317   0.8338   0.8350   0.8361
  0.8367   0.8383   0.8398   0.8408   0.8431   0.8443   0.8455   0.8470
  0.8474   0.8492   0.8509   0.8526   0.8546   0.8557   0.8574   0.8576
  0.8606   0.8610   0.8623   0.8635   0.8659   0.8667   0.8674   0.8687
  0.8697   0.8708   0.8727   0.8747   0.8761   0.8774   0.8777   0.8798
  0.8804   0.8809   0.8823   0.8836   0.8853   0.8873   0.8880   0.8892
  0.8924   0.8929   0.8948   0.8957   0.8971   0.8976   0.8978   0.9013
  0.9015   0.9030   0.9034   0.9060   0.9066   0.9074   0.9102   0.9110
  0.9121   0.9132   0.9140   0.9153   0.9183   0.9191   0.9194   0.9217
  0.9241   0.9249   0.9251   0.9263   0.9279   0.9303   0.9319   0.9323
  0.9338   0.9349   0.9367   0.9378   0.9383   0.9402   0.9411   0.9422
  0.9427   0.9455   0.9457   0.9471   0.9482   0.9498   0.9506   0.9513
  0.9527   0.9529   0.9540   0.9550   0.9559   0.9575   0.9582   0.9604
  0.9614   0.9626   0.9638   0.9646   0.9657   0.9669   0.9679   0.9689
  0.9704   0.9707   0.9713   0.9735   0.9739   0.9757   0.9762   0.9778
  0.9799   0.9810   0.9818   0.9836   0.9845   0.9866   0.9880   0.9882
  0.9890   0.9893   0.9912   0.9924   0.9929   0.9933   0.9948   0.9964
  0.9977   1.0001   1.0006   1.0012   1.0026   1.0036   1.0046   1.0058
  1.0068   1.0079   1.0091   1.0099   1.0113   1.0125   1.0133   1.0138
  1.0150   1.0168   1.0178   1.0183   1.0193   1.0217   1.0225   1.0235
  1.0258   1.0265   1.0284   1.0297   1.0307   1.0315   1.0335   1.0356
  1.0368   1.0372   1.0386   1.0394   1.0415   1.0429   1.0438   1.0453
  1.0471   1.0493   1.0499   1.0515   1.0523   1.0533   1.0544   1.0561
  1.0574   1.0580   1.0601   1.0620   1.0638   1.0643   1.0653   1.0656
  1.0685   1.0700   1.0711   1.0724   1.0735   1.0756   1.0759   1.0773
  1.0777   1.0789   1.0806   1.0825   1.0827   1.0845   1.0869   1.0883
  1.0897   1.0911   1.0915   1.0929   1.0944   1.0956   1.0960   1.0972
  1.0996   1.1009   1.1018   1.1044   1.1060   1.1079   1.1088   1.1104
  1.1117   1.1129   1.1141   1.1147   1.1176   1.1185   1.1188   1.1206
  1.1224   1.1254   1.1272   1.1291   1.1296   1.1298   1.1322   1.1331
  1.1347   1.1357   1.1370   1.1387   1.1405   1.1422   1.1437   1.1458
  1.1461   1.1471   1.1495   1.1515   1.1522   1.1537   1.1549   1.1567
  1.1574   1.1607   1.1610   1.1622   1.1629   1.1639   1.1649   1.1686
  1.1690   1.1715   1.1731   1.1733   1.1750   1.1761   1.1778   1.1796
  1.1819   1.1838   1.1860   1.1874   1.1879   1.1898   1.1923   1.1944
  1.1946   1.1961   1.1976   1.1997   1.2018   1.2041   1.2053   1.2069
  1.2078   1.2087   1.2104   1.2124   1.2141   1.2158   1.2173   1.2184
  1.2213   1.2238   1.2243   1.2254   1.2282   1.2305   1.2319   1.2343
  1.2361   1.2397   1.2421   1.2438   1.2446   1.2472   1.2483   1.2493
  1.2523   1.2534   1.2572   1.2602   1.2618   1.2644   1.2654   1.2670
  1.2703   1.2731   1.2737   1.2775   1.2813   1.2830   1.2854   1.2864
  1.2907   1.2923   1.2950   1.2966   1.2977   1.2995   1.3046   1.3051
  1.3059   1.3116   1.3134   1.3155   1.3183   1.3227   1.3235   1.3257
  1.3279   1.3301   1.3318   1.3332   1.3368   1.3387   1.3404   1.3418
  1.3458   1.3481   1.3495   1.3510   1.3526   1.3543   1.3550   1.3567
  1.3602   1.3606   1.3616   1.3642   1.3651   1.3664   1.3677   1.3690
  1.3726   1.3734   1.3750   1.3755   1.3780   1.3807   1.3816   1.3839
  1.3860   1.3879   1.3899   1.3910   1.3920   1.3939   1.3958   1.3962
  1.3996   1.4012   1.4026   1.4037   1.4056   1.4077   1.4085   1.4092
  1.4113   1.4140   1.4159   1.4164   1.4173   1.4203   1.4240   1.4246
  1.4268   1.4278   1.4288   1.4307   1.4331   1.4341   1.4373   1.4384
  1.4408   1.4422   1.4438   1.4443   1.4462   1.4471   1.4480   1.4510
  1.4531   1.4531   1.4568   1.4584   1.4608   1.4612   1.4649   1.4661
  1.4677   1.4693   1.4713   1.4734   1.4749   1.4780   1.4781   1.4800
  1.4815   1.4823   1.4861   1.4874   1.4878   1.4891   1.4926   1.4941
  1.4946   1.4977   1.4981   1.5012   1.5029   1.5055   1.5070   1.5084
  1.5096   1.5150   1.5155   1.5181   1.5200   1.5206   1.5236   1.5282
  1.5291   1.5300   1.5338   1.5368   1.5383   1.5395   1.5445   1.5466
  1.5481   1.5524   1.5531   1.5545   1.5580   1.5616   1.5622   1.5675
  1.5687   1.5717   1.5749   1.5763   1.5838   1.5852   1.5889   1.5938
  1.5947   1.6019   1.6027   1.6085   1.6106   1.6132   1.6189   1.6196
  1.6258   1.6287   1.6300   1.6360   1.6379   1.6415   1.6458   1.6461
  1.6477   1.6509   1.6537   1.6559   1.6598   1.6601   1.6626   1.6642
  1.6671   1.6686   1.6696   1.6699   1.6712   1.6731   1.6754   1.6794
  1.6798   1.6814   1.6845   1.6865   1.6880   1.6883   1.6921   1.6935
  1.6939   1.6946   1.6978   1.7005   1.7019   1.7043   1.7059   1.7066
  1.7076   1.7088   1.7096   1.7104   1.7130   1.7138   1.7148   1.7159
  1.7167   1.7176   1.7189   1.7201   1.7237   1.7238   1.7247   1.7275
  1.7286   1.7313   1.7336   1.7348   1.7353   1.7364   1.7379   1.7396
  1.7426   1.7446   1.7458   1.7477   1.7494   1.7506   1.7523   1.7547
  1.7560   1.7576   1.7598   1.7607   1.7623   1.7630   1.7646   1.7682
  1.7691   1.7705   1.7725   1.7734   1.7743   1.7755   1.7768   1.7789
  1.7808   1.7830   1.7838   1.7857   1.7896   1.7905   1.7936   1.7949
  1.7981   1.7994   1.8005   1.8016   1.8038   1.8057   1.8073   1.8092
  1.8135   1.8143   1.8182   1.8234   1.8251   1.8261   1.8268   1.8300
  1.8316   1.8350   1.8366   1.8384   1.8408   1.8434   1.8469   1.8504
  1.8531   1.8542   1.8568   1.8591   1.8609   1.8623   1.8653   1.8664
  1.8677   1.8699   1.8715   1.8726   1.8770   1.8787   1.8800   1.8810
  1.8828   1.8839   1.8866   1.8880   1.8888   1.8902   1.8911   1.8936
  1.8954   1.8987   1.8992   1.9008   1.9046   1.9058   1.9070   1.9079
  1.9089   1.9104   1.9115   1.9125   1.9163   1.9172   1.9205   1.9214
  1.9232   1.9234   1.9258   1.9261   1.9266   1.9291   1.9309   1.9343
  1.9357   1.9363   1.9371   1.9389   1.9409   1.9413   1.9430   1.9445
  1.9484   1.9487   1.9514   1.9546   1.9569   1.9581   1.9608   1.9627
  1.9661   1.9696   1.9708   1.9742   1.9782   1.9790   1.9821   1.9846
  1.9946   1.9994   2.0066   2.0086   2.0164   2.0180   2.0204   2.0317
  2.0387   2.0419   2.0436   2.0447   2.0471   2.0477   2.0510   2.0538
  2.0543   2.0551   2.0564   2.0611   2.0652   2.0676   2.0694   2.0704
  2.0741   2.0761   2.0774   2.0787   2.0805   2.0816   2.0822   2.0839
  2.0840   2.0865   2.0886   2.0889   2.0904   2.0906   2.0919   2.0937
  2.0985   2.0989   2.0995   2.1013   2.1035   2.1059   2.1115   2.1120
  2.1182   2.1187   2.1210   2.1229   2.1250   2.1281   2.1322   2.1336
  2.1391   2.1402   2.1429   2.1475   2.1503   2.1524   2.1569   2.1587
  2.1605   2.1652   2.1653   2.1669   2.1693   2.1720   2.1757   2.1784
  2.1788   2.1829   2.1871   2.1893   2.1905   2.1938   2.1969   2.2033
  2.2070   2.2124   2.2126   2.2150   2.2157   2.2208   2.2214   2.2228
  2.2251   2.2267   2.2273   2.2294   2.2304   2.2325   2.2336   2.2346
  2.2355   2.2363   2.2373   2.2390   2.2399   2.2406   2.2422   2.2432
  2.2436   2.2457   2.2469   2.2474   2.2487   2.2498   2.2514   2.2526
  2.2546   2.2552   2.2560   2.2564   2.2577   2.2590   2.2595   2.2604
  2.2614   2.2620   2.2626   2.2628   2.2650   2.2665   2.2692   2.2694
  2.2699   2.2712   2.2734   2.2738   2.2748   2.2761   2.2772   2.2775
  2.2785   2.2792   2.2804   2.2822   2.2830   2.2850   2.2860   2.2868
  2.2875   2.2879   2.2899   2.2903   2.2913   2.2924   2.2936   2.2943
  2.2959   2.2965   2.2973   2.2977   2.2978   2.2988   2.3001   2.3022
  2.3029   2.3044   2.3052   2.3058   2.3067   2.3089   2.3091   2.3101
  2.3108   2.3126   2.3142   2.3159   2.3169   2.3179   2.3187   2.3194
  2.3212   2.3218   2.3231   2.3246   2.3252   2.3261   2.3279   2.3294
  2.3304   2.3326   2.3331   2.3344   2.3377   2.3380   2.3429   2.3433
  2.3439   2.3450   2.3486   2.3505   2.3521   2.3541   2.3551   2.3574
  2.3580   2.3623   2.3631   2.3654   2.3687   2.3722   2.3728   2.3746
  2.3761   2.3804   2.3848   2.3861   2.3910   2.3921   2.3949   2.3978
  2.4038   2.4082   2.4117   2.4162   2.4215   2.4258   2.4296   2.4372
  2.4665   2.4759   2.5087   2.5178   2.5410   2.6269   2.7199   2.7237
  2.7578   2.7822   2.8103   2.8254   2.8276   2.8307   2.8313   2.8348
  2.8370   2.8378   2.8447   2.8464   2.8474   2.8505   2.8530   2.8549
  2.8603   2.8636   2.8674   2.8717   2.8733   2.8773   2.8786   2.8815
  2.8881   2.8895   2.8909   2.8957   2.9066   2.9122   2.9173   2.9669
  3.1181   3.2966   3.9337   3.9494   3.9622   3.9643   3.9659   3.9682
  3.9699   3.9702   3.9741   3.9783   3.9808   3.9871   3.9892   3.9967
  3.9994   4.0047   4.0061   4.0084   4.0147   4.0155   4.0228   4.0283
  4.0330   4.0550   4.0612   4.2053   4.2213   4.2232   4.2252   4.2268
  4.2323   4.2365   4.2477   4.2495   4.2548   4.2575   4.2611   4.2654
  4.2695   4.2719   4.2747   4.2804   4.2828   4.2858   4.2869   4.2901
  4.2926   4.2978   4.3022   4.3032   4.3071   4.3085   4.3099   4.3148
  4.3183   4.3219   4.3227   4.3259   4.3272   4.3298   4.3338   4.3356
  4.3391   4.3400   4.3426   4.3461   4.3500   4.3519   4.3569   4.3600
  4.3629   4.3656   4.3698   4.3709   4.3729   4.3771   4.3801   4.3877
  4.3910   4.3947   4.3978   4.4023   4.4125   4.4211   4.4253   4.4283
  4.4385   4.4472   4.4545   4.4592   4.4599   4.4667   4.4777   4.4969
  4.5012   4.5091   4.5244   4.5321   4.5415   4.5542   4.5638   4.5848
  4.6245   4.6549   4.6771   4.7113   4.7560   4.8005   4.9777
 --------------------------------------------------------------
 
          Ground-State Mulliken Net Atomic Charges

     Atom                 Charge (a.u.)
  ----------------------------------------
      1 C                    -0.202968
      2 C                    -0.452926
      3 C                    -0.409170
      4 C                    -0.451501
      5 C                    -0.252754
      6 C                    -0.598388
      7 H                     0.227678
      8 H                     0.224935
      9 H                     0.200683
     10 H                     0.222006
     11 H                     0.201466
     12 H                     0.198859
     13 H                     0.181456
     14 H                     0.198529
     15 H                     0.192559
     16 H                     0.220087
     17 H                     0.177876
     18 N                    -0.373836
     19 H                     0.485469
     20 C                     0.325414
     21 H                     0.173314
     22 O                    -0.488788
     23 C                    -0.944177
     24 H                     0.270391
     25 H                     0.293436
     26 H                     0.265019
     27 S                     0.819907
     28 C                    -0.812265
     29 H                     0.277138
     30 H                     0.204573
     31 H                     0.273554
     32 O                    -0.717418
     33 C                    -0.841426
     34 H                     0.291407
     35 H                     0.231756
     36 H                     0.260099
     37 S                     1.038123
     38 C                    -0.967413
     39 H                     0.300136
     40 H                     0.273187
     41 H                     0.235052
     42 O                    -0.761339
     43 C                    -0.945213
     44 H                     0.261800
     45 H                     0.237511
     46 H                     0.281487
     47 S                     0.957365
     48 C                    -0.921622
     49 H                     0.264135
     50 H                     0.238012
     51 H                     0.331251
     52 O                    -0.671725
     53 C                    -0.744982
     54 H                     0.238347
     55 H                     0.292206
     56 H                     0.261761
     57 S                     0.446597
     58 C                    -0.848117
     59 H                     0.233971
     60 H                     0.286291
     61 H                     0.289342
     62 O                    -0.537110
     63 C                    -0.762432
     64 H                     0.275916
     65 H                     0.242852
     66 H                     0.210358
     67 S                     1.037420
     68 C                    -0.981390
     69 H                     0.292447
     70 H                     0.225804
     71 H                     0.311296
     72 O                    -0.720839
     73 C                    -0.907314
     74 H                     0.246886
     75 H                     0.241353
     76 H                     0.260618
     77 S                     1.000433
     78 C                    -0.876961
     79 H                     0.302093
     80 H                     0.240810
     81 H                     0.259957
     82 O                    -0.744352
     83 C                    -0.713605
     84 H                     0.279326
     85 H                     0.255292
     86 H                     0.238111
     87 S                     0.369752
     88 C                    -0.788927
     89 H                     0.345404
     90 H                     0.247368
     91 H                     0.239736
     92 O                    -0.635007
     93 C                    -0.950469
     94 H                     0.244663
     95 H                     0.291662
     96 H                     0.281706
     97 S                     0.839286
     98 C                    -0.917180
     99 H                     0.244481
    100 H                     0.241525
    101 H                     0.252756
    102 O                    -0.678829
    103 C                    -1.061246
    104 H                     0.242604
    105 H                     0.244244
    106 H                     0.274357
    107 S                     1.281668
    108 C                    -0.950049
    109 H                     0.277719
    110 H                     0.267406
    111 H                     0.285268
    112 O                    -0.695425
    113 C                    -0.967547
    114 H                     0.253968
    115 H                     0.226070
    116 H                     0.260071
    117 S                     1.129264
    118 C                    -0.862126
    119 H                     0.261583
    120 H                     0.224677
    121 H                     0.257538
    122 O                    -0.761003
    123 C                    -0.791301
    124 H                     0.254838
    125 H                     0.271028
    126 H                     0.250506
    127 S                     0.774696
    128 C                    -0.817647
    129 H                     0.261392
    130 H                     0.198351
    131 H                     0.300088
    132 O                    -0.702246
    133 C                    -0.851371
    134 H                     0.323535
    135 H                     0.232273
    136 H                     0.304284
    137 S                     0.660132
    138 C                    -0.674693
    139 H                     0.262896
    140 H                     0.248444
    141 H                     0.269700
    142 O                    -0.692739
    143 C                    -1.117075
    144 H                     0.305429
    145 H                     0.268464
    146 H                     0.263764
    147 S                     1.092925
    148 C                    -1.082778
    149 H                     0.244538
    150 H                     0.308817
    151 H                     0.239627
    152 O                    -0.694565
    153 C                    -0.809430
    154 H                     0.244285
    155 H                     0.238982
    156 H                     0.289528
    157 S                     0.834923
    158 C                    -0.775387
    159 H                     0.214645
    160 H                     0.239887
    161 H                     0.265196
    162 O                    -0.746725
    163 C                    -0.973941
    164 H                     0.289868
    165 H                     0.263709
    166 H                     0.233887
    167 S                     1.073808
    168 C                    -0.947844
    169 H                     0.272796
    170 H                     0.232877
    171 H                     0.306242
    172 O                    -0.713802
    173 C                    -0.808818
    174 H                     0.237449
    175 H                     0.218447
    176 H                     0.285088
    177 S                     0.965170
    178 C                    -0.877325
    179 H                     0.249179
    180 H                     0.222345
    181 H                     0.232862
    182 O                    -0.732953
    183 C                    -0.798703
    184 H                     0.250638
    185 H                     0.255647
    186 H                     0.237182
    187 S                     0.861219
    188 C                    -0.830714
    189 H                     0.319842
    190 H                     0.235081
    191 H                     0.257991
    192 O                    -0.685251
    193 C                    -0.877358
    194 H                     0.264606
    195 H                     0.283817
    196 H                     0.226914
    197 S                     0.677165
    198 C                    -0.773096
    199 H                     0.285939
    200 H                     0.221048
    201 H                     0.277114
    202 O                    -0.713731
    203 C                    -0.838808
    204 H                     0.247809
    205 H                     0.262386
    206 H                     0.252396
    207 S                     0.931812
    208 C                    -1.024482
    209 H                     0.276115
    210 H                     0.298285
    211 H                     0.245695
    212 O                    -0.679754
    213 C                    -0.991523
    214 H                     0.261041
    215 H                     0.248289
    216 H                     0.262596
    217 S                     1.030250
    218 C                    -0.933786
    219 H                     0.237880
    220 H                     0.276392
    221 H                     0.243125
    222 O                    -0.708901
    223 C                    -0.856212
    224 H                     0.256505
    225 H                     0.233303
    226 H                     0.260496
    227 S                     1.130272
    228 C                    -0.986214
    229 H                     0.285625
    230 H                     0.257448
    231 H                     0.225115
    232 O                    -0.725870
    233 C                    -0.955342
    234 H                     0.265150
    235 H                     0.267020
    236 H                     0.229521
    237 S                     1.164709
    238 C                    -0.989411
    239 H                     0.204417
    240 H                     0.277347
    241 H                     0.275021
    242 O                    -0.719033
    243 C                    -1.011621
    244 H                     0.261783
    245 H                     0.312751
    246 H                     0.268840
    247 S                     1.192639
    248 C                    -1.158948
    249 H                     0.257850
    250 H                     0.295206
    251 H                     0.253946
    252 O                    -0.683097
    253 C                    -0.930890
    254 H                     0.249992
    255 H                     0.230507
    256 H                     0.248156
    257 S                     1.126863
    258 C                    -0.910518
    259 H                     0.293421
    260 H                     0.237245
    261 H                     0.220379
    262 O                    -0.721815
    263 C                    -0.951678
    264 H                     0.294614
    265 H                     0.235362
    266 H                     0.228483
    267 S                     1.255885
    268 C                    -0.959079
    269 H                     0.250526
    270 H                     0.281232
    271 H                     0.235700
    272 O                    -0.784116
  ----------------------------------------
  Sum of atomic charges =     0.000000

 -----------------------------------------------------------------
                    Cartesian Multipole Moments
 -----------------------------------------------------------------
    Charge (ESU x 10^10)
                -0.0000
    Dipole Moment (Debye)
         X      32.4071      Y      -2.1575      Z      -9.6754
       Tot      33.8893
    Quadrupole Moments (Debye-Ang)
        XX     555.3295     XY     533.3763     YY    -937.0467
        XZ     751.2941     YZ    -337.7218     ZZ   -1322.7176
    Octopole Moments (Debye-Ang^2)
       XXX  -15905.3667    XXY    4329.1724    XYY  -12651.2087
       YYY  -58667.5566    XXZ   14736.2697    XYZ   10193.2358
       YYZ  -33022.8595    XZZ   -1447.9765    YZZ  -34885.1038
       ZZZ  -86143.6838
    Hexadecapole Moments (Debye-Ang^3)
      XXXX ************   XXXY -645459.4870   XXYY -601175.9795
      XYYY ************   YYYY ************   XXXZ -354469.2157
      XXYZ   81023.5101   XYYZ -465995.7152   YYYZ ************
      XXZZ  -68647.2076   XYZZ -259754.9248   YYZZ ************
      XZZZ ************   YZZZ ************   ZZZZ ************
 -----------------------------------------------------------------
Archival summary:
[...]
    2   0.0153328   0.0053495  -0.0086084   0.0136344   0.0134675  -0.0528736
    3   0.0075289   0.0009736  -0.0000891   0.0322767  -0.0327946  -0.0866865
          103         104         105         106         107         108
    1   0.0003476  -0.0046856  -0.0188166   0.0312080  -0.0426436  -0.0008397
    2   0.0042024   0.0297951  -0.0069239   0.0055177  -0.0094806  -0.0094926
    3   0.0068302  -0.0127172   0.0315395   0.0034945  -0.0204649   0.0085561
          109         110         111         112         113         114
    1  -0.0258249   0.0147379   0.0259462   0.0966936   0.0019047  -0.0085462
    2  -0.0231611  -0.0186654   0.0070718   0.0176001  -0.0039413   0.0038831
    3   0.0133193  -0.0125981   0.0188716  -0.0506072  -0.0051083  -0.0290813
          115         116         117         118         119         120
    1   0.0349181  -0.0074618   0.0199070  -0.0007185  -0.0151672   0.0323622
    2  -0.0056722  -0.0260460   0.0498336  -0.0045425  -0.0282815  -0.0044551
    3  -0.0037953   0.0156868  -0.0155939   0.0068253   0.0088565   0.0072683
          121         122         123         124         125         126
    1  -0.0047035  -0.1052335   0.0062436   0.0208182   0.0196035  -0.0079711
    2   0.0197470  -0.0293866  -0.0047227   0.0131870  -0.0200771  -0.0238215
    3   0.0236847  -0.0046605   0.0017488  -0.0248157   0.0201699  -0.0194085
          127         128         129         130         131         132
    1  -0.0238533   0.0003648   0.0152030   0.0250901  -0.0129548  -0.0584354
    2   0.0341015   0.0029813  -0.0172364   0.0188084   0.0214980  -0.0677601
    3  -0.0371153   0.0060290   0.0196021  -0.0092705   0.0201436   0.0652324
          133         134         135         136         137         138
    1   0.0119770  -0.0051753   0.0170958   0.0234485  -0.0342174   0.0036895
    2  -0.0024094  -0.0327526   0.0328836  -0.0046169   0.0198233   0.0034868
    3  -0.0060962  -0.0185327  -0.0085783   0.0213151  -0.0389795   0.0084773
          139         140         141         142         143         144
    1   0.0268286  -0.0269686   0.0191706  -0.0068158  -0.0052595   0.0057217
    2   0.0189002   0.0126296  -0.0086535  -0.0996795   0.0030262   0.0314907
    3  -0.0065748   0.0117883   0.0207283   0.0470671   0.0031417   0.0085739
          145         146         147         148         149         150
    1  -0.0127383  -0.0248983  -0.0009243   0.0007945   0.0332200  -0.0058843
    2  -0.0123529  -0.0137937  -0.0557810   0.0068124  -0.0003929   0.0319056
    3  -0.0247893   0.0236241   0.0020511   0.0045219   0.0011441   0.0010522
          151         152         153         154         155         156
    1  -0.0122556   0.0349813   0.0011649   0.0110069   0.0170573  -0.0168386
    2  -0.0087287   0.0535150   0.0090553   0.0158828   0.0002064   0.0255142
    3   0.0274234  -0.0894284  -0.0001620   0.0272942  -0.0263940  -0.0161525
          157         158         159         160         161         162
    1  -0.0360853   0.0033420   0.0243890  -0.0018382   0.0164926  -0.0155924
    2   0.0000659  -0.0022037   0.0106296  -0.0318686  -0.0094300  -0.0168377
    3   0.0368063  -0.0029895   0.0192190   0.0074422  -0.0266857  -0.1080246
          163         164         165         166         167         168
    1  -0.0037881  -0.0171665  -0.0133404   0.0307487   0.0437696   0.0003424
    2   0.0037551  -0.0148477   0.0264491   0.0069928   0.0153086  -0.0100014
    3  -0.0082929  -0.0227975   0.0035827  -0.0184781   0.0272490   0.0017165
          169         170         171         172         173         174
    1  -0.0256403   0.0223066   0.0155143  -0.1052240  -0.0006751  -0.0297595
    2  -0.0108470  -0.0083576  -0.0292419   0.0000388   0.0019159   0.0100286
    3  -0.0163996  -0.0266747   0.0175672   0.0311216  -0.0083246  -0.0047742
          175         176         177         178         179         180
    1   0.0167117   0.0014835   0.0047629   0.0075993   0.0313204   0.0044784
    2   0.0276109  -0.0203848   0.0322972  -0.0037996   0.0115186  -0.0239162
    3   0.0001016  -0.0228969   0.0388114  -0.0021267  -0.0051237   0.0185077
          181         182         183         184         185         186
    1   0.0003687  -0.0759526  -0.0030483   0.0240986  -0.0257709  -0.0156320
    2  -0.0166987  -0.0808012  -0.0032856  -0.0168482  -0.0316464  -0.0002649
    3  -0.0205505  -0.0079613  -0.0007938  -0.0005492   0.0107220  -0.0273477
          187         188         189         190         191         192
    1   0.0095977  -0.0053669  -0.0017693  -0.0359789  -0.0081809   0.0786705
    2  -0.0038488   0.0048610   0.0188186  -0.0119105   0.0224155   0.0289405
    3   0.0537168  -0.0070841  -0.0328730   0.0102910   0.0124056  -0.0712010
          193         194         195         196         197         198
    1  -0.0075740   0.0023705  -0.0230317  -0.0088847   0.0395264  -0.0003877
    2  -0.0008879  -0.0207054  -0.0131488   0.0263924   0.0307255  -0.0086060
    3  -0.0017253  -0.0173745   0.0181648  -0.0224167  -0.0198204   0.0068681
          199         200         201         202         203         204
    1   0.0212178   0.0247688  -0.0188676  -0.0694228   0.0042827   0.0034890
    2  -0.0223989  -0.0023802  -0.0194331   0.0362092  -0.0081876  -0.0135808
    3  -0.0098437   0.0240290   0.0131070   0.0802462   0.0007798  -0.0289022
          205         206         207         208         209         210
    1   0.0230265  -0.0201703  -0.0199631  -0.0094154  -0.0205411  -0.0099281
    2  -0.0032045  -0.0166685   0.0223827   0.0013350  -0.0232266   0.0303249
    3   0.0222976   0.0173416   0.0543325  -0.0050534   0.0163695  -0.0142129
          211         212         213         214         215         216
    1   0.0057351   0.0751220  -0.0081590  -0.0250216  -0.0202944   0.0128994
    2  -0.0167946   0.0489485  -0.0065924   0.0230226   0.0125479  -0.0361925
    3  -0.0254463  -0.0613584   0.0009930   0.0253391  -0.0200093  -0.0183180
          217         218         219         220         221         222
    1   0.0056157   0.0043074   0.0393925  -0.0131699  -0.0091104   0.0404547
    2   0.0537099  -0.0064765   0.0066828  -0.0309070   0.0123050  -0.0840115
    3   0.0150148  -0.0061608  -0.0028957  -0.0069036  -0.0223616   0.0597139
          223         224         225         226         227         228
    1  -0.0066707  -0.0348753   0.0058134  -0.0040631   0.0488726  -0.0034446
    2   0.0017047  -0.0039030   0.0264974   0.0125624   0.0075917  -0.0073179
    3  -0.0051257  -0.0072520   0.0164875  -0.0413919  -0.0034466  -0.0096590
          229         230         231         232         233         234
    1   0.0019161  -0.0339008   0.0139392  -0.0644392  -0.0051816  -0.0126601
    2  -0.0305373  -0.0060529  -0.0033235  -0.0298165   0.0089242   0.0084799
    3   0.0008364   0.0014485  -0.0407286   0.0869163  -0.0001356  -0.0269571
          235         236         237         238         239         240
    1  -0.0301256   0.0296055   0.0262047   0.0072667   0.0366315   0.0114614
    2   0.0001462   0.0190424  -0.0230514  -0.0001623   0.0217166  -0.0218031
    3   0.0166756   0.0032844   0.0335455  -0.0041692  -0.0056039  -0.0105216
          241         242         243         244         245         246
    1  -0.0195867  -0.0856570   0.0072115   0.0110185  -0.0124282   0.0202289
    2   0.0103053  -0.0355527   0.0043699  -0.0307109   0.0294405   0.0250888
    3  -0.0191070  -0.0599610  -0.0080601  -0.0073424  -0.0200244   0.0060908
          247         248         249         250         251         252
    1  -0.0438466   0.0001304   0.0270281  -0.0148050  -0.0122408   0.0496555
    2  -0.0267993   0.0096636   0.0127405   0.0107735  -0.0021054  -0.0454647
    3  -0.0328571   0.0013865   0.0193867  -0.0287830   0.0267003   0.0844410
          253         254         255         256         257         258
    1   0.0073491   0.0228413   0.0100598  -0.0029137  -0.0290538   0.0021291
    2   0.0053010   0.0177173  -0.0210111   0.0309017   0.0335929  -0.0067655
    3   0.0028393   0.0249381  -0.0137242  -0.0137192   0.0296022   0.0052675
          259         260         261         262         263         264
    1  -0.0197374   0.0175583   0.0165834  -0.0248390   0.0095661   0.0188948
    2  -0.0123188  -0.0169491   0.0021736  -0.0517329  -0.0030062   0.0217670
    3   0.0200659  -0.0196039   0.0297521  -0.0927588   0.0022746   0.0203639
          265         266         267         268         269         270
    1  -0.0020991   0.0059927  -0.0439767  -0.0001436  -0.0222911   0.0196699
    2  -0.0208910  -0.0175225  -0.0307796   0.0056507   0.0101897   0.0243376
    3   0.0217309  -0.0295004  -0.0183207  -0.0036557  -0.0235734   0.0135947
          271         272
    1   0.0300526   0.0023275
    2  -0.0015246   0.0544598
    3  -0.0154792   0.0943548
  --- DONE ESP SUMMARY ---
Archival summary:
1\1\n0068.mhg0\SP\ProcedureUnspecified\6-31+G*\252550h22\ymao\FriMar1209:20:372021FriMar1209:20:372021\0\\#,ProcedureUnspecified,6-31+G*,\\0,1\S\O,1,1.49625\C,1,1.80711,2,107.389\H,3,1.09306,1,102.896,2,-83.2702,0\H,3,1.0936,1,115.068,2,37.3084,0\H,3,1.09377,1,111.842,2,162.094,0\C,1,1.80715,2,101.042,3,100.982,0\H,7,1.09176,1,100.198,2,60.9541,0\H,7,1.09278,1,111.881,2,-59.8351,0\H,7,1.09317,1,112.843,2,178.187,0\Gh,2,1.88021,1,123.75,3,144.478,0\Gh,11,1.01298,2,163.343,1,-64.4983,0\Gh,12,1.37917,11,119.948,2,-61.6346,0\Gh,13,1.10537,12,107.096,11,2.95856,0\Gh,13,1.21764,12,127.464,11,177.935,0\Gh,12,1.46182,11,116.399,2,111.758,0\Gh,16,1.09678,12,105.451,11,-149.123,0\Gh,16,1.53738,12,110.884,11,88.0089,0\Gh,18,1.09626,16,106.362,12,76.9126,0\Gh,18,1.09656,16,112.06,12,-34.8772,0\Gh,16,1.5378,12,105.309,11,-29.7871,0\Gh,21,1.09627,16,107.617,12,42.264,0\Gh,21,1.09692,16,105.3,12,-73.2009,0\Gh,18,1.53792,16,115.638,12,-163.205,0\Gh,24,1.09688,18,111.404,16,167.883,0\Gh,24,1.09731,18,107.778,16,-73.1523,0\Gh,24,1.53759,18,113.642,16,49.2122,0\Gh,27,1.09654,24,107.396,18,69.8705,0\Gh,27,1.09662,24,112.552,18,-171.98,0\Gh,27,1.53722,24,109.603,18,-51.3272,0\Gh,30,1.09672,27,105.682,24,-64.1343,0\Gh,30,1.09703,27,109.832,24,177.027,0\H,14,2.07266,13,170.136,12,11.2748,0\C,33,1.09294,14,124.635,13,76.1482,0\H,34,1.09231,33,112.289,14,-44.9689,0\H,34,1.09276,33,116.179,14,-164.651,0\S,34,1.80753,33,102.008,14,78.5051,0\O,37,1.49695,34,98.3198,33,-36.9855,0\C,37,1.80662,34,92.0921,33,67.1536,0\H,39,1.09307,37,109.412,34,-56.2581,0\H,39,1.09318,37,104.818,34,67.7634,0\H,39,1.09373,37,104.004,34,-176.985,0\H,8,2.14258,7,106.387,1,83.437,0\C,43,1.09331,8,136.152,7,41.8005,0\H,44,1.0923,43,107.079,8,30.8134,0\H,44,1.09312,43,106.972,8,151.638,0\S,44,1.80674,43,110.984,8,-87.5698,0\O,47,1.49721,44,103.895,43,-67.9062,0\C,47,1.80739,44,101.575,43,-179.616,0\H,49,1.09289,47,108.941,44,175.891,0\H,49,1.09316,47,105.385,44,-71.3215,0\H,49,1.09384,47,110.393,44,56.0425,0\H,50,2.14374,49,127.536,47,-18.6263,0\C,53,1.09284,50,99.5626,49,135.495,0\H,54,1.09272,53,97.6489,50,82.5553,0\H,54,1.09326,53,103.308,50,-33.8964,0\S,54,1.80671,53,113.773,50,-159.772,0\O,57,1.49779,54,106.904,53,-30.7172,0\C,57,1.80757,54,90.4856,53,78.9533,0\H,59,1.09287,57,107.948,54,-158.518,0\H,59,1.09305,57,108.853,54,-34.3703,0\H,59,1.09325,57,103.512,54,87.5646,0\H,5,2.1481,3,132.487,1,-135.207,0\C,63,1.09319,5,137.954,3,-60.3707,0\H,64,1.09245,63,106.307,5,-135.528,0\H,64,1.09358,63,109.463,5,-11.1187,0\S,64,1.80685,63,109.051,5,102.938,0\O,67,1.49697,64,101.255,63,68.9524,0\C,67,1.8073,64,91.3971,63,174.76,0\H,69,1.09233,67,103.819,64,-67.9768,0\H,69,1.09254,67,111.018,64,175.815,0\H,69,1.09285,67,108.584,64,50.4017,0\H,53,2.16702,50,84.6508,49,-76.6344,0\C,73,1.09325,53,150.515,50,-45.372,0\H,74,1.09284,73,113.571,53,-121.461,0\H,74,1.09304,73,110.348,53,4.3599,0\S,74,1.80698,73,107.566,53,115.92,0\O,77,1.4981,74,106.985,73,174.288,0\C,77,1.80668,74,99.6013,73,71.7029,0\H,79,1.09294,77,108.553,74,45.173,0\H,79,1.09296,77,108.591,74,165.69,0\H,79,1.09319,77,101.186,74,-75.5111,0\H,81,2.13745,79,104.248,77,-138.561,0\C,83,1.09244,81,139.871,79,153.619,0\H,84,1.09289,83,115.717,81,-96.6993,0\H,84,1.09313,83,107.98,81,145.601,0\S,84,1.80742,83,105.86,81,29.3724,0\O,87,1.49643,84,106.47,83,19.0433,0\C,87,1.80755,84,97.1594,83,-83.867,0\H,89,1.0925,87,113.449,84,-178.899,0\H,89,1.09305,87,112.555,84,54.5333,0\H,89,1.09323,87,106.976,84,-70.0349,0\H,82,2.14991,79,93.6874,77,-159.638,0\C,93,1.09298,82,149.14,79,-87.6852,0\H,94,1.0928,93,106.443,82,28.0198,0\H,94,1.09368,93,96.4497,82,145.697,0\S,94,1.80674,93,110.465,82,-99.0405,0\O,97,1.49673,94,97.3819,93,64.2768,0\C,97,1.80689,94,94.9998,93,168.812,0\H,99,1.09234,97,108.333,94,170.571,0\H,99,1.0929,97,109.254,94,52.0055,0\H,99,1.09315,97,112.244,94,-70.53,0\H,101,2.06405,99,163.872,97,145.212,0\C,103,1.09341,101,116.76,99,-79.247,0\H,104,1.09253,103,100.918,101,71.0876,0\H,104,1.09373,103,111.211,101,-175.085,0\S,104,1.807,103,119.442,101,-45.5074,0\O,107,1.49735,104,101.115,103,-171.742,0\C,107,1.80687,104,92.4128,103,-75.0391,0\H,109,1.09254,107,99.2881,104,61.1405,0\H,109,1.0928,107,111.599,104,-58.1397,0\H,109,1.09353,107,108.729,104,175.388,0\H,112,2.17027,109,158.237,107,-119.169,0\C,113,1.09322,112,111.333,109,-143.152,0\H,114,1.09309,113,116.709,112,-24.3218,0\H,114,1.09331,113,106.971,112,-148.763,0\S,114,1.80712,113,108.462,112,93.067,0\O,117,1.49648,114,104.78,113,-169.326,0\C,117,1.80698,114,92.4115,113,-65.9528,0\H,119,1.09221,117,106.795,114,68.9714,0\H,119,1.09288,117,111.69,114,-58.6087,0\H,119,1.09304,117,112.461,114,177.668,0\H,121,2.16102,119,156.03,117,40.197,0\C,123,1.09345,121,157.635,119,54.6878,0\H,124,1.09285,123,116.651,121,-52.3937,0\H,124,1.09289,123,110.827,121,72.7815,0\S,124,1.80702,123,106.001,121,-172.555,0\O,127,1.49721,124,102.659,123,169.312,0\C,127,1.80699,124,97.2687,123,61.6732,0\H,129,1.09242,127,109.965,124,-68.6437,0\H,129,1.09248,127,105.646,124,163.6,0\H,129,1.09397,127,104.685,124,47.4995,0\H,42,2.17895,39,122.656,37,87.1737,0\C,133,1.09354,42,135.423,39,-55.717,0\H,134,1.09274,133,111.762,42,94.5561,0\H,134,1.09304,133,108.461,42,-28.2415,0\S,134,1.80661,133,109.209,42,-146.439,0\O,137,1.49678,134,102.736,133,-68.2054,0\C,137,1.80701,134,90.8014,133,-171.376,0\H,139,1.09225,137,112.466,134,41.6475,0\H,139,1.0925,137,108.458,134,-76.0462,0\H,139,1.09312,137,109.9,134,163.98,0\H,141,2.07916,139,143.253,137,167.249,0\C,143,1.0929,141,144.691,139,-117.074,0\H,144,1.09321,143,113.467,141,64.8685,0\H,144,1.09327,143,104.108,141,-173.546,0\S,144,1.80622,143,114.232,141,-60.9889,0\O,147,1.49743,144,102.775,143,-24.6555,0\C,147,1.80736,144,99.1664,143,84.1447,0\H,149,1.09285,147,110.904,144,56.4243,0\H,149,1.09322,147,102.285,144,-177.769,0\H,149,1.09328,147,109.482,144,-64.774,0\H,151,2.25151,149,129.177,147,-120.237,0\C,153,1.09313,151,122.8,149,37.7594,0\H,154,1.09233,153,115.401,151,139.83,0\H,154,1.09311,153,109.462,151,23.0859,0\S,154,1.80765,153,108.711,151,-100.333,0\O,157,1.49658,154,103.964,153,-64.6364,0\C,157,1.80713,154,95.5423,153,-168.793,0\H,159,1.09254,157,116.536,154,175.79,0\H,159,1.09289,157,108.699,154,-72.4284,0\H,159,1.0932,157,104.822,154,55.2525,0\H,45,2.2592,44,159.584,43,120.994,0\C,163,1.0932,45,108.12,44,-177.42,0\H,164,1.09261,163,112.778,45,-17.6707,0\H,164,1.0934,163,106.83,45,-143.815,0\S,164,1.80696,163,106.782,45,102.389,0\O,167,1.49743,164,101.72,163,-102.466,0\C,167,1.80629,164,99.402,163,7.01646,0\H,169,1.09303,167,105.519,164,166.982,0\H,169,1.09319,167,110.417,164,44.719,0\H,169,1.09377,167,108.835,164,-78.0114,0\H,29,2.2625,27,141.71,24,-178.88,0\C,173,1.09256,29,144.492,27,-90.5218,0\H,174,1.09239,173,105.115,29,-122.64,0\H,174,1.09308,173,114.852,29,5.47066,0\S,174,1.80716,173,103.616,29,128.932,0\O,177,1.49804,174,108.764,173,137.923,0\C,177,1.80653,174,95.0468,173,35.7869,0\H,179,1.0929,177,102.587,174,-75.0294,0\H,179,1.09304,177,104.12,174,44.9326,0\H,179,1.09309,177,109.939,174,161.049,0\H,20,2.32341,18,158.459,16,-19.5649,0\C,183,1.09282,20,169.118,18,99.2367,0\H,184,1.09253,183,107.371,20,-90.2537,0\H,184,1.09417,183,109.774,20,148.325,0\S,184,1.80696,183,110.285,20,27.2791,0\O,187,1.49688,184,98.7796,183,83.8652,0\C,187,1.80687,184,92.5054,183,-174.316,0\H,189,1.09311,187,106.453,184,58.2605,0\H,189,1.09348,187,111.553,184,-179.769,0\H,189,1.09367,187,104.785,184,-62.6281,0\H,82,2.35766,79,108.652,77,93.8434,0\C,193,1.09313,82,142.195,79,82.4519,0\H,194,1.09278,193,114.444,82,-174.78,0\H,194,1.09281,193,106.461,82,68.7044,0\S,194,1.80776,193,108.49,82,-42.4668,0\O,197,1.49643,194,98.7937,193,-54.799,0\C,197,1.80671,194,95.5469,193,-158.175,0\H,199,1.09282,197,111.681,194,61.1707,0\H,199,1.09284,197,104.519,194,-55.3134,0\H,199,1.09291,197,111.587,194,-168.137,0\H,125,2.39046,124,131.744,123,174.59,0\C,203,1.09317,125,103.244,124,139.739,0\H,204,1.0926,203,103.476,125,-91.9167,0\H,204,1.09267,203,112.46,125,28.9218,0\S,204,1.80668,203,111.094,125,150.166,0\O,207,1.4975,204,102.251,203,50.3442,0\C,207,1.80637,204,89.3676,203,159.316,0\H,209,1.09241,207,106.076,204,-77.3074,0\H,209,1.09309,207,106.187,204,166.775,0\H,209,1.09337,207,103.238,204,45.0478,0\H,208,2.26463,207,102.292,204,-82.7788,0\C,213,1.09296,208,142.175,207,97.9345,0\H,214,1.09294,213,111.863,208,-53.1413,0\H,214,1.09344,213,113.565,208,65.0128,0\S,214,1.8066,213,113.678,208,-166.83,0\O,217,1.49732,214,101.227,213,-69.3976,0\C,217,1.80626,214,95.2529,213,-175.832,0\H,219,1.09304,217,101.189,214,-58.4167,0\H,219,1.09314,217,114.413,214,-179.671,0\H,219,1.0933,217,101.944,214,64.8843,0\H,213,2.15124,208,74.5694,207,-80.2324,0\C,223,1.0932,213,170.409,208,2.07808,0\H,224,1.09295,223,112.084,213,-21.2188,0\H,224,1.09312,223,113.21,213,96.7674,0\S,224,1.80639,223,109.434,213,-146.039,0\O,227,1.49751,224,106.365,223,172.537,0\C,227,1.80741,224,91.0255,223,67.875,0\H,229,1.09275,227,108.628,224,179.106,0\H,229,1.0932,227,110.218,224,77.7217,0\H,229,1.0933,227,111.078,224,-49.5826,0\H,186,2.40002,184,166.074,183,8.1278,0\C,233,1.0936,186,120.069,184,33.7634,0\H,234,1.09242,233,110.853,186,88.065,0\H,234,1.09324,233,109.667,186,-153.032,0\S,234,1.80681,233,111.153,186,-32.8633,0\O,237,1.49683,234,107.287,233,-174.176,0\C,237,1.8073,234,91.984,233,-64.4081,0\H,239,1.09254,237,109.925,234,65.2912,0\H,239,1.09269,237,110.318,234,-60.8235,0\H,239,1.09339,237,110.039,234,178.279,0\O,175,2.41398,174,156.021,173,74.2819,0\S,243,1.49732,175,128.204,174,-132.219,0\C,244,1.80672,243,105.491,175,-135.787,0\H,245,1.09257,244,104.9,243,-3.02988,0\H,245,1.09298,244,108.456,243,129.736,0\H,245,1.09372,244,105.189,243,-115.54,0\C,244,1.80692,243,99.6905,175,-38.512,0\H,249,1.09234,244,110.194,243,-44.6321,0\H,249,1.09333,244,114.974,243,-162.473,0\H,249,1.0934,244,109.677,243,75.4668,0\H,65,2.45759,64,99.9082,63,-43.2749,0\C,253,1.0927,65,136.283,64,92.5979,0\H,254,1.09306,253,114.5,65,-23.6898,0\H,254,1.09337,253,107.049,65,-147.743,0\S,254,1.80742,253,114.24,65,101.077,0\O,257,1.49786,254,96.6592,253,-170.947,0\C,257,1.80652,254,98.0981,253,-69.5113,0\H,259,1.09305,257,110.856,254,43.6721,0\H,259,1.09306,257,100.019,254,-78.4132,0\H,259,1.09348,257,105.218,254,163.283,0\H,238,2.49383,237,115.101,234,101.746,0\C,263,1.09347,238,156.344,237,125.086,0\H,264,1.09301,263,110.337,238,114.705,0\H,264,1.09383,263,103.666,238,-9.31965,0\S,264,1.8068,263,102.308,238,-126.064,0\O,267,1.49642,264,102.36,263,76.5278,0\C,267,1.80725,264,96.6348,263,-178.729,0\H,269,1.09253,267,113.255,264,-13.5186,0\H,269,1.09302,267,104.32,264,-124.223,0\H,269,1.09357,267,111.675,264,120.211,0\\\@

 Total job time:  58.73s(wall), 204.57s(cpu) 
 Fri Mar 12 09:20:37 2021

        *************************************************************
        *                                                           *
        *  Thank you very much for using Q-Chem.  Have a nice day.  *
        *                                                           *
        *************************************************************


