                  Welcome to Q-Chem
     A Quantum Leap Into The Future Of Chemistry


 Q-Chem 5.2 (devel), Q-Chem, Inc., Pleasanton, CA (2019)

 Yihan Shao,  Zhengting Gan,  E. Epifanovsky,  A. T. B. Gilbert,  M. Wormit,  
 J. Kussmann,  A. W. Lange,  A. Behn,  Jia Deng,  Xintian Feng,  D. Ghosh,  
 M. Goldey,  P. R. Horn,  L. D. Jacobson,  I. Kaliman,  T. Kus,  A. Landau,  
 Jie Liu,  E. I. Proynov,  R. M. Richard,  R. P. Steele,  E. J. Sundstrom,  
 H. L. Woodcock III,  P. M. Zimmerman,  D. Zuev,  B. Alam,  B. Albrecht,  
 E. Alguire,  S. A. Baeppler,  D. Barton,  Z. Benda,  Y. A. Bernard,  
 E. J. Berquist,  K. B. Bravaya,  H. Burton,  K. Carter-Fenk,  D. Casanova,  
 Chun-Min Chang,  Yunqing Chen,  A. Chien,  K. D. Closser,  M. P. Coons,  
 S. Coriani,  S. Dasgupta,  A. L. Dempwolff,  M. Diedenhofen,  Hainam Do,  
 R. G. Edgar,  Po-Tung Fang,  S. Faraji,  S. Fatehi,  Qingguo Feng,  
 J. Fosso-Tande,  J. Gayvert,  Qinghui Ge,  A. Ghysels,  G. Gidofalvi,  
 J. Gomes,  J. Gonthier,  A. Gunina,  D. Hait,  M. W. D. Hanson-Heine,  
 P. H. P. Harbach,  A. W. Hauser,  M. F. Herbst,  J. E. Herr,  
 E. G. Hohenstein,  Z. C. Holden,  Kerwin Hui,  B. C. Huynh,  T.-C. Jagau,  
 Hyunjun Ji,  B. Kaduk,  K. Khistyaev,  Jaehoon Kim,  P. Klunzinger,  K. Koh,  
 D. Kosenkov,  L. Koulias,  T. Kowalczyk,  C. M. Krauter,  A. Kunitsa,  
 Ka Un Lao,  A. Laurent,  K. V. Lawler,  Joonho Lee,  D. Lefrancois,  
 S. Lehtola,  D. S. Levine,  Yi-Pei Li,  You-Sheng Lin,  Fenglai Liu,  
 Kuan-Yu Liu,  E. Livshits,  M. Loipersberger,  A. Luenser,  P. Manohar,  
 E. Mansoor,  S. F. Manzer,  Shan-Ping Mao,  Yuezhi Mao,  N. Mardirossian,  
 A. V. Marenich,  T. Markovich,  L. A. Martinez-Martinez,  S. A. Maurer,  
 N. J. Mayhall,  S. C. McKenzie,  J.-M. Mewes,  P. Morgante,  A. F. Morrison,  
 J. W. Mullinax,  K. Nanda,  T. S. Nguyen-Beck,  R. Olivares-Amaya,  
 J. A. Parkhill,  S. K. Paul,  F. Pavosevic,  Zheng Pei,  T. M. Perrine,  
 F. Plasser,  P. Pokhilko,  S. Prager,  A. Prociuk,  E. Ramos,  B. Rana,  
 D. R. Rehn,  F. Rob,  M. Scheurer,  M. Schneider,  N. Sergueev,  
 S. M. Sharada,  S. Sharma,  D. W. Small,  T. Stauch,  C. J. Stein,  
 T. Stein,  Yu-Chuan Su,  S. P. Veccham,  Zhen Tao,  A. J. W. Thom,  
 A. Tkatchenko,  T. Tsuchimochi,  N. M. Tubman,  L. Vogt,  M. L. Vidal,  
 O. Vydrov,  M. A. Watson,  J. Wenzel,  M. de Wergifosse,  T. A. Wesolowski,  
 A. White,  J. Witte,  A. Yamada,  Jun Yang,  K. Yao,  S. Yeganeh,  
 S. R. Yost,  Zhi-Qiang You,  A. Zech,  Igor Ying Zhang,  Xing Zhang,  
 Yan Zhao,  Ying Zhu,  B. R. Brooks,  G. K. L. Chan,  C. J. Cramer,  
 M. S. Gordon,  W. J. Hehre,  A. Klamt,  M. W. Schmidt,  C. D. Sherrill,  
 D. G. Truhlar,  A. Aspuru-Guzik,  R. Baer,  A. T. Bell,  N. A. Besley,  
 Jeng-Da Chai,  A. E. DePrince, III,  R. A. DiStasio Jr.,  A. Dreuw,  
 B. D. Dunietz,  T. R. Furlani,  Chao-Ping Hsu,  Yousung Jung,  Jing Kong,  
 D. S. Lambrecht,  WanZhen Liang,  C. Ochsenfeld,  V. A. Rassolov,  
 L. V. Slipchenko,  J. E. Subotnik,  T. Van Voorhis,  J. M. Herbert,  
 A. I. Krylov,  P. M. W. Gill,  M. Head-Gordon

 Contributors to earlier versions of Q-Chem not listed above: 
 R. D. Adamson,  B. Austin,  J. Baker,  G. J. O. Beran,  K. Brandhorst,  
 S. T. Brown,  E. F. C. Byrd,  A. K. Chakraborty,  C.-L. Cheng,  
 Siu Hung Chien,  D. M. Chipman,  D. L. Crittenden,  H. Dachsel,  
 R. J. Doerksen,  A. D. Dutoi,  L. Fusti-Molnar,  W. A. Goddard III,  
 A. Golubeva-Zadorozhnaya,  S. R. Gwaltney,  G. Hawkins,  A. Heyden,  
 S. Hirata,  G. Kedziora,  F. J. Keil,  C. Kelley,  Jihan Kim,  R. A. King,  
 R. Z. Khaliullin,  P. P. Korambath,  W. Kurlancheek,  A. M. Lee,  M. S. Lee,  
 S. V. Levchenko,  Ching Yeh Lin,  D. Liotard,  R. C. Lochan,  I. Lotan,  
 P. E. Maslen,  N. Nair,  D. P. O'Neill,  D. Neuhauser,  E. Neuscamman,  
 C. M. Oana,  R. Olson,  B. Peters,  R. Peverati,  P. A. Pieniazek,  
 Y. M. Rhee,  J. Ritchie,  M. A. Rohrdanz,  E. Rosta,  N. J. Russ,  
 H. F. Schaefer III,  N. E. Schultz,  N. Shenvi,  A. C. Simmonett,  A. Sodt,  
 D. Stuck,  K. S. Thanthiriwatte,  V. Vanovschi,  Tao Wang,  A. Warshel,  
 C. F. Williams,  Q. Wu,  X. Xu,  W. Zhang

 Please cite Q-Chem as follows:
 Y. Shao et al., Mol. Phys. 113, 184-215 (2015)
 DOI: 10.1080/00268976.2014.952696

 Q-Chem 5.2.2 for Intel X86 EM64T Linux

 Parts of Q-Chem use Armadillo 9.800.1 (Horizon Scraper).
 http://arma.sourceforge.net/

 Q-Chem begins on Thu Mar 11 13:37:36 2021  

Host: n0075.mhg0
0

     Scratch files written to /local/scratch/users/ymao/r7.00_frame_0054_almo_B3LYP_dp.in20210311133732//

Checking the input file for inconsistencies... 	...done.

--------------------------------------------------------------
User input:
--------------------------------------------------------------
$molecule
0 1
--
0 1
C    24.29400   20.67200   25.12100  
C    24.17200   22.15200   25.52100  
C    25.52400   22.86000   25.70500  
C    26.57500   22.48100   24.64800  
C    26.65700   20.98400   24.30700  
C    25.26700   20.42800   23.95600  
H    25.30200   23.93100   25.78600  
H    23.72900   22.62600   24.63700  
H    24.68400   20.20600   26.03400  
H    23.30500   20.23500   24.93800  
H    26.55600   23.09000   23.73600  
H    27.55700   22.65100   25.10500  
H    27.39900   20.64800   23.57200  
H    27.03500   20.56300   25.24600  
H    24.88900   20.84200   23.01300  
H    25.46200   19.37500   23.71700  
H    25.91100   22.52000   26.67400  
N    23.38000   22.35900   26.73200  
H    23.79600   22.08900   27.61500  
C    22.03600   22.65600   26.80600  
H    21.67900   22.78900   27.84400  
O    21.40100   22.91800   25.79900  
--
0 1
C    22.43600   26.06900   25.91000  
H    23.20400   26.64800   25.39300  
H    22.89700   25.66500   26.81500  
H    21.96000   25.24700   25.36900  
S    21.16900   27.12700   26.64600  
C    21.08300   28.03100   25.08300  
H    20.44100   28.89600   25.26800  
H    22.09100   28.37100   24.83600  
H    20.72700   27.41600   24.25200  
O    21.96100   27.81200   27.71600  
C    26.24500   15.67400   19.34600  
H    25.76000   14.69500   19.32300  
H    26.93900   15.79200   18.51000  
H    26.85300   15.75500   20.25000  
S    25.02300   17.00600   19.32700  
C    26.09500   18.34700   19.89000  
H    26.70000   18.72000   19.05900  
H    25.43600   19.15700   20.21300  
H    26.70600   17.91400   20.68500  
O    24.08500   16.73400   20.46200  
C    27.87700   24.04500   29.80400  
H    28.49600   24.77600   29.27800  
H    28.32600   23.05200   29.88900  
H    26.90800   23.92400   29.31200  
S    27.64500   24.44900   31.55000  
C    26.60800   25.89500   31.23700  
H    25.67400   25.67500   31.76000  
H    27.10100   26.71200   31.77000  
H    26.48600   25.92500   30.15100  
O    28.87700   25.07400   32.12700  
C    29.50400   19.99100   28.82000  
H    28.62000   19.93900   29.46000  
H    30.03100   19.03900   28.92100  
H    30.12300   20.77900   29.25500  
S    29.24300   20.19500   27.04300  
C    28.56400   18.53700   26.81100  
H    28.28700   18.53900   25.75300  
H    29.28800   17.72300   26.90900  
H    27.67000   18.29300   27.39100  
O    30.59300   20.15000   26.39800  
C    32.38400   18.01400   28.57100  
H    31.90600   18.68000   27.84800  
H    32.26000   18.51700   29.53400  
H    33.46100   17.99000   28.38600  
S    31.71300   16.33900   28.66200  
C    32.21800   15.53400   27.12500  
H    31.79800   15.99700   26.22800  
H    33.30000   15.58800   26.98300  
H    31.96600   14.47200   27.07100  
O    30.22300   16.27500   28.79500  
C    25.06900   19.65100   28.99900  
H    23.99900   19.87000   28.94700  
H    25.44200   19.64800   27.97200  
H    25.21900   18.78800   29.65300  
S    25.82400   21.06000   29.84000  
C    25.08500   20.75700   31.46100  
H    24.93700   21.65500   32.06600  
H    24.07600   20.38000   31.27700  
H    25.87500   20.09900   31.83100  
O    25.00200   22.22800   29.39000  
C    24.21100   24.30500   19.71400  
H    23.32700   23.93500   19.18900  
H    23.99200   24.89500   20.60800  
H    24.91300   24.83300   19.06400  
S    25.00300   22.77400   20.25600  
C    26.07700   22.44300   18.84100  
H    25.53400   22.79400   17.96000  
H    26.96100   23.05900   19.02400  
H    26.12400   21.35700   18.72600  
O    24.02300   21.64600   20.16900  
C    25.04200   28.43400   28.52900  
H    25.35900   29.28500   29.13700  
H    24.18300   28.65100   27.88900  
H    24.78400   27.55300   29.12200  
S    26.44700   27.94300   27.50400  
C    25.85400   26.30100   27.03900  
H    24.95100   26.35800   26.42700  
H    26.71400   25.90700   26.49100  
H    25.68800   25.75800   27.97300  
O    27.46100   27.71200   28.58000  
C    22.61400   19.14600   21.63600  
H    22.39400   18.59600   20.71800  
H    22.38400   20.20000   21.46100  
H    23.67100   18.97700   21.85500  
S    21.51300   18.44000   22.88300  
C    22.50100   16.99700   23.33800  
H    22.73700   16.53500   22.37600  
H    23.42600   17.27800   23.84700  
H    21.91400   16.36900   24.01300  
O    20.29400   17.81200   22.28200  
C    25.03000   12.42900   25.15900  
H    26.01000   12.53800   24.68900  
H    25.18100   12.73200   26.19800  
H    24.63200   11.41200   25.10100  
S    23.77400   13.46900   24.38000  
C    22.27200   12.96500   25.24800  
H    21.56000   13.78700   25.13900  
H    21.92000   12.01700   24.83500  
H    22.58200   12.83400   26.28800  
O    23.59400   12.77100   23.06700  
C    26.67400   26.40000   22.18400  
H    26.75500   26.04600   21.15300  
H    27.27700   27.28800   22.38900  
H    26.94100   25.58700   22.86300  
S    24.93800   26.84900   22.41200  
C    25.19000   28.05200   23.73600  
H    25.47000   29.00800   23.28600  
H    24.24300   28.22700   24.25200  
H    25.91400   27.62500   24.43500  
O    24.43000   25.67500   23.19100  
C    17.47200   18.89800   22.89200  
H    16.55000   18.98200   23.47200  
H    17.36100   17.97100   22.32400  
H    18.43800   19.06200   23.37800  
S    17.31200   20.09600   21.54900  
C    17.00200   21.42300   22.73600  
H    16.29700   21.05600   23.48600  
H    17.96300   21.66900   23.19500  
H    16.83000   22.40500   22.28700  
O    15.98400   19.71900   20.97000  
C    30.27000   25.58500   26.98100  
H    31.21500   25.92800   26.55000  
H    29.72600   26.41800   27.43200  
H    30.56500   24.82800   27.71200  
S    29.25000   24.70800   25.77400  
C    30.42700   23.51900   25.09000  
H    30.93900   22.92200   25.84900  
H    29.86300   22.87400   24.41100  
H    31.17800   24.08700   24.53600  
O    28.98600   25.69000   24.67600  
C    19.36200   19.02300   26.01400  
H    19.17900   17.97300   25.77300  
H    19.74400   19.42200   25.07100  
H    20.20900   19.05200   26.70400  
S    18.04200   19.97600   26.79800  
C    17.44400   18.69200   27.92000  
H    17.24300   17.71400   27.47600  
H    18.26000   18.62800   28.64400  
H    16.58600   19.03900   28.50200  
O    16.98900   19.94100   25.73400  
C    27.14000   16.71700   30.19100  
H    27.06800   16.95200   31.25600  
H    28.06100   17.08100   29.72700  
H    26.27900   17.01300   29.58800  
S    27.21000   14.91700   30.04800  
C    27.10700   14.97700   28.24500  
H    26.11100   15.40200   28.10400  
H    27.87200   15.61300   27.79200  
H    27.22200   14.01700   27.73500  
O    25.86200   14.39600   30.43600  
C    29.46800   16.59100   18.90400  
H    29.16700   17.64200   18.90100  
H    29.31100   15.95100   18.03300  
H    28.94800   16.11500   19.73900  
S    31.22900   16.64600   19.31000  
C    30.99900   15.48600   20.67700  
H    30.67700   14.48700   20.37500  
H    31.99000   15.28500   21.09200  
H    30.34600   15.97500   21.40400  
O    31.37700   17.91400   20.09000  
C    33.27800   19.45600   25.08900  
H    34.29800   19.75800   25.34100  
H    32.59500   20.30700   25.02900  
H    32.80800   18.69100   25.71300  
S    33.21300   18.69200   23.45300  
C    31.51500   18.08800   23.57700  
H    31.35800   17.53600   24.50700  
H    30.97000   19.03200   23.66300  
H    31.18300   17.69100   22.61500  
O    33.92800   17.41000   23.74900  
C    28.63800   23.36600   21.73700  
H    28.84000   24.41100   21.48700  
H    27.64300   23.10900   21.36600  
H    28.76700   23.16400   22.80300  
S    29.92900   22.37600   20.94900  
C    29.05600   20.79600   20.87600  
H    28.78100   20.57800   21.91100  
H    28.12800   20.87900   20.30400  
H    29.71500   19.97600   20.57900  
O    30.89400   22.26400   22.08800  
C    19.60600   27.13600   30.10800  
H    19.09200   26.89200   29.17500  
H    19.03500   27.89000   30.65600  
H    20.61300   27.50100   29.88700  
S    19.59000   25.80400   31.32900  
C    17.80200   25.70900   31.57800  
H    17.40300   25.64000   30.56300  
H    17.52900   24.83600   32.17700  
H    17.51500   26.67500   32.00000  
O    19.97500   26.46200   32.61700  
C    25.66700   16.28100   23.76900  
H    26.12000   17.12200   24.30000  
H    25.09800   16.49700   22.86100  
H    24.97100   15.77400   24.44300  
S    27.01300   15.16600   23.31100  
C    27.78800   14.99700   24.93500  
H    28.73300   14.50200   24.69600  
H    27.96400   16.01600   25.28900  
H    27.11900   14.45000   25.60400  
O    27.97900   16.06000   22.59600  
C    21.74600   22.36400   30.44500  
H    22.75100   22.51900   30.04300  
H    21.03200   23.11300   30.09400  
H    21.72300   22.35500   31.53700  
S    21.21700   20.79200   29.72800  
C    19.56600   20.54800   30.42300  
H    18.89100   21.33600   30.08000  
H    19.06300   19.60700   30.18800  
H    19.67100   20.51000   31.51000  
O    21.97800   19.72400   30.45100  
C    17.33300   28.53900   22.36800  
H    17.96000   28.77200   21.50400  
H    16.40300   28.14300   21.95100  
H    17.12100   29.39200   23.01700  
S    18.14600   27.31400   23.41800  
C    18.19000   26.06300   22.11400  
H    17.26100   26.12900   21.54200  
H    19.06300   26.33000   21.51200  
H    18.44600   25.11200   22.58800  
O    17.05000   26.80900   24.30400  
C    17.15800   25.33400   27.57800  
H    16.44900   24.61400   27.99400  
H    17.34500   26.20500   28.21100  
H    16.83800   25.70000   26.59900  
S    18.70700   24.44400   27.30200  
C    18.05700   23.35700   26.01300  
H    17.73900   23.98000   25.17300  
H    18.83300   22.60600   25.84500  
H    17.22200   22.75200   26.37300  
O    18.74500   23.62300   28.55400  
C    20.63200   22.09400   22.72100  
H    20.24300   21.18100   22.26400  
H    21.64600   21.85100   23.05000  
H    20.07500   22.35400   23.62500  
S    20.82300   23.26300   21.35700  
C    21.45600   24.57300   22.42800  
H    22.47500   24.21600   22.59700  
H    21.38100   25.51700   21.88200  
H    20.89100   24.65600   23.36000  
O    19.42900   23.68100   21.00400  
C    35.66300   22.85200   25.50000  
H    35.95800   23.30700   26.44800  
H    35.88000   21.79100   25.35300  
H    36.07500   23.43800   24.67400  
S    33.89100   23.15600   25.31600  
C    34.07500   22.85400   23.54300  
H    34.44000   21.83500   23.38800  
H    33.06500   22.89400   23.12600  
H    34.74800   23.55600   23.04600  
O    33.85500   24.64800   25.43200  
C    22.97900   24.83300   32.39800  
H    21.91500   24.65600   32.57800  
H    23.23600   25.88100   32.57000  
H    23.16300   24.66100   31.33400  
S    23.85500   23.55900   33.33300  
C    23.28600   23.85900   35.02100  
H    23.55800   24.85500   35.38000  
H    22.20200   23.72800   34.97800  
H    23.74600   23.03800   35.57700  
O    25.27800   24.01700   33.40500  
C    22.78400   14.91300   28.49900  
H    22.55700   14.88900   29.56800  
H    21.91100   14.82200   27.84800  
H    23.33500   14.00300   28.24700  
S    23.65800   16.46200   28.18200  
C    22.25000   17.58700   28.05800  
H    21.58900   17.60100   28.92900  
H    22.68800   18.57400   27.89000  
H    21.66900   17.47100   27.14000  
O    24.04800   16.41600   26.73800  
C    29.76800   23.63200   17.63900  
H    30.65100   23.84600   18.24600  
H    29.29400   22.76000   18.09600  
H    29.99800   23.55100   16.57300  
S    28.56100   24.95200   17.89300  
C    29.50300   26.36200   17.26900  
H    29.75700   26.20100   16.21800  
H    28.84100   27.22500   17.36800  
H    30.42200   26.50000   17.84600  
O    28.49000   25.24000   19.36000  
$end

$rem
JOBTYPE  SP
METHOD  B3LYP
BASIS  6-31+G(D)
SYMMETRY  FALSE
SYM_IGNORE  TRUE
MEM_TOTAL  16000
MEM_STATIC  8000
MAX_SUB_FILE_NUM  16000
BASIS_LIN_DEP_THRESH  6
THRESH  14
SCF_CONVERGENCE  8
GEN_SCFMAN  TRUE
SCF_GUESS  FRAGMO
FD_MAT_VEC_PROD  FALSE
XC_GRID  000075000302
NL_GRID  1
MAX_SCF_CYCLES  200
FRGM_METHOD  STOLL
SCFMI_MODE  1
$end

$development
almo_efield  1
$end

$rem_frgm
SCF_CONVERGENCE  4
$end

--------------------------------------------------------------
 ----------------------------------------------------------------
             Standard Nuclear Orientation (Angstroms)
    I     Atom           X                Y                Z
 ----------------------------------------------------------------
    1      C      24.2940000000    20.6720000000    25.1210000000
    2      C      24.1720000000    22.1520000000    25.5210000000
    3      C      25.5240000000    22.8600000000    25.7050000000
    4      C      26.5750000000    22.4810000000    24.6480000000
    5      C      26.6570000000    20.9840000000    24.3070000000
    6      C      25.2670000000    20.4280000000    23.9560000000
    7      H      25.3020000000    23.9310000000    25.7860000000
    8      H      23.7290000000    22.6260000000    24.6370000000
    9      H      24.6840000000    20.2060000000    26.0340000000
   10      H      23.3050000000    20.2350000000    24.9380000000
   11      H      26.5560000000    23.0900000000    23.7360000000
   12      H      27.5570000000    22.6510000000    25.1050000000
   13      H      27.3990000000    20.6480000000    23.5720000000
   14      H      27.0350000000    20.5630000000    25.2460000000
   15      H      24.8890000000    20.8420000000    23.0130000000
   16      H      25.4620000000    19.3750000000    23.7170000000
   17      H      25.9110000000    22.5200000000    26.6740000000
   18      N      23.3800000000    22.3590000000    26.7320000000
   19      H      23.7960000000    22.0890000000    27.6150000000
   20      C      22.0360000000    22.6560000000    26.8060000000
   21      H      21.6790000000    22.7890000000    27.8440000000
   22      O      21.4010000000    22.9180000000    25.7990000000
   23      C      22.4360000000    26.0690000000    25.9100000000
   24      H      23.2040000000    26.6480000000    25.3930000000
   25      H      22.8970000000    25.6650000000    26.8150000000
   26      H      21.9600000000    25.2470000000    25.3690000000
   27      S      21.1690000000    27.1270000000    26.6460000000
   28      C      21.0830000000    28.0310000000    25.0830000000
   29      H      20.4410000000    28.8960000000    25.2680000000
   30      H      22.0910000000    28.3710000000    24.8360000000
   31      H      20.7270000000    27.4160000000    24.2520000000
   32      O      21.9610000000    27.8120000000    27.7160000000
   33      C      26.2450000000    15.6740000000    19.3460000000
   34      H      25.7600000000    14.6950000000    19.3230000000
   35      H      26.9390000000    15.7920000000    18.5100000000
   36      H      26.8530000000    15.7550000000    20.2500000000
   37      S      25.0230000000    17.0060000000    19.3270000000
   38      C      26.0950000000    18.3470000000    19.8900000000
   39      H      26.7000000000    18.7200000000    19.0590000000
   40      H      25.4360000000    19.1570000000    20.2130000000
   41      H      26.7060000000    17.9140000000    20.6850000000
   42      O      24.0850000000    16.7340000000    20.4620000000
   43      C      27.8770000000    24.0450000000    29.8040000000
   44      H      28.4960000000    24.7760000000    29.2780000000
   45      H      28.3260000000    23.0520000000    29.8890000000
   46      H      26.9080000000    23.9240000000    29.3120000000
   47      S      27.6450000000    24.4490000000    31.5500000000
   48      C      26.6080000000    25.8950000000    31.2370000000
   49      H      25.6740000000    25.6750000000    31.7600000000
   50      H      27.1010000000    26.7120000000    31.7700000000
   51      H      26.4860000000    25.9250000000    30.1510000000
   52      O      28.8770000000    25.0740000000    32.1270000000
   53      C      29.5040000000    19.9910000000    28.8200000000
   54      H      28.6200000000    19.9390000000    29.4600000000
   55      H      30.0310000000    19.0390000000    28.9210000000
   56      H      30.1230000000    20.7790000000    29.2550000000
   57      S      29.2430000000    20.1950000000    27.0430000000
   58      C      28.5640000000    18.5370000000    26.8110000000
   59      H      28.2870000000    18.5390000000    25.7530000000
   60      H      29.2880000000    17.7230000000    26.9090000000
   61      H      27.6700000000    18.2930000000    27.3910000000
   62      O      30.5930000000    20.1500000000    26.3980000000
   63      C      32.3840000000    18.0140000000    28.5710000000
   64      H      31.9060000000    18.6800000000    27.8480000000
   65      H      32.2600000000    18.5170000000    29.5340000000
   66      H      33.4610000000    17.9900000000    28.3860000000
   67      S      31.7130000000    16.3390000000    28.6620000000
   68      C      32.2180000000    15.5340000000    27.1250000000
   69      H      31.7980000000    15.9970000000    26.2280000000
   70      H      33.3000000000    15.5880000000    26.9830000000
   71      H      31.9660000000    14.4720000000    27.0710000000
   72      O      30.2230000000    16.2750000000    28.7950000000
   73      C      25.0690000000    19.6510000000    28.9990000000
   74      H      23.9990000000    19.8700000000    28.9470000000
   75      H      25.4420000000    19.6480000000    27.9720000000
   76      H      25.2190000000    18.7880000000    29.6530000000
   77      S      25.8240000000    21.0600000000    29.8400000000
   78      C      25.0850000000    20.7570000000    31.4610000000
   79      H      24.9370000000    21.6550000000    32.0660000000
   80      H      24.0760000000    20.3800000000    31.2770000000
   81      H      25.8750000000    20.0990000000    31.8310000000
   82      O      25.0020000000    22.2280000000    29.3900000000
   83      C      24.2110000000    24.3050000000    19.7140000000
   84      H      23.3270000000    23.9350000000    19.1890000000
   85      H      23.9920000000    24.8950000000    20.6080000000
   86      H      24.9130000000    24.8330000000    19.0640000000
   87      S      25.0030000000    22.7740000000    20.2560000000
   88      C      26.0770000000    22.4430000000    18.8410000000
   89      H      25.5340000000    22.7940000000    17.9600000000
   90      H      26.9610000000    23.0590000000    19.0240000000
   91      H      26.1240000000    21.3570000000    18.7260000000
   92      O      24.0230000000    21.6460000000    20.1690000000
   93      C      25.0420000000    28.4340000000    28.5290000000
   94      H      25.3590000000    29.2850000000    29.1370000000
   95      H      24.1830000000    28.6510000000    27.8890000000
   96      H      24.7840000000    27.5530000000    29.1220000000
   97      S      26.4470000000    27.9430000000    27.5040000000
   98      C      25.8540000000    26.3010000000    27.0390000000
   99      H      24.9510000000    26.3580000000    26.4270000000
  100      H      26.7140000000    25.9070000000    26.4910000000
  101      H      25.6880000000    25.7580000000    27.9730000000
  102      O      27.4610000000    27.7120000000    28.5800000000
  103      C      22.6140000000    19.1460000000    21.6360000000
  104      H      22.3940000000    18.5960000000    20.7180000000
  105      H      22.3840000000    20.2000000000    21.4610000000
  106      H      23.6710000000    18.9770000000    21.8550000000
  107      S      21.5130000000    18.4400000000    22.8830000000
  108      C      22.5010000000    16.9970000000    23.3380000000
  109      H      22.7370000000    16.5350000000    22.3760000000
  110      H      23.4260000000    17.2780000000    23.8470000000
  111      H      21.9140000000    16.3690000000    24.0130000000
  112      O      20.2940000000    17.8120000000    22.2820000000
  113      C      25.0300000000    12.4290000000    25.1590000000
  114      H      26.0100000000    12.5380000000    24.6890000000
  115      H      25.1810000000    12.7320000000    26.1980000000
  116      H      24.6320000000    11.4120000000    25.1010000000
  117      S      23.7740000000    13.4690000000    24.3800000000
  118      C      22.2720000000    12.9650000000    25.2480000000
  119      H      21.5600000000    13.7870000000    25.1390000000
  120      H      21.9200000000    12.0170000000    24.8350000000
  121      H      22.5820000000    12.8340000000    26.2880000000
  122      O      23.5940000000    12.7710000000    23.0670000000
  123      C      26.6740000000    26.4000000000    22.1840000000
  124      H      26.7550000000    26.0460000000    21.1530000000
  125      H      27.2770000000    27.2880000000    22.3890000000
  126      H      26.9410000000    25.5870000000    22.8630000000
  127      S      24.9380000000    26.8490000000    22.4120000000
  128      C      25.1900000000    28.0520000000    23.7360000000
  129      H      25.4700000000    29.0080000000    23.2860000000
  130      H      24.2430000000    28.2270000000    24.2520000000
  131      H      25.9140000000    27.6250000000    24.4350000000
  132      O      24.4300000000    25.6750000000    23.1910000000
  133      C      17.4720000000    18.8980000000    22.8920000000
  134      H      16.5500000000    18.9820000000    23.4720000000
  135      H      17.3610000000    17.9710000000    22.3240000000
  136      H      18.4380000000    19.0620000000    23.3780000000
  137      S      17.3120000000    20.0960000000    21.5490000000
  138      C      17.0020000000    21.4230000000    22.7360000000
  139      H      16.2970000000    21.0560000000    23.4860000000
  140      H      17.9630000000    21.6690000000    23.1950000000
  141      H      16.8300000000    22.4050000000    22.2870000000
  142      O      15.9840000000    19.7190000000    20.9700000000
  143      C      30.2700000000    25.5850000000    26.9810000000
  144      H      31.2150000000    25.9280000000    26.5500000000
  145      H      29.7260000000    26.4180000000    27.4320000000
  146      H      30.5650000000    24.8280000000    27.7120000000
  147      S      29.2500000000    24.7080000000    25.7740000000
  148      C      30.4270000000    23.5190000000    25.0900000000
  149      H      30.9390000000    22.9220000000    25.8490000000
  150      H      29.8630000000    22.8740000000    24.4110000000
  151      H      31.1780000000    24.0870000000    24.5360000000
  152      O      28.9860000000    25.6900000000    24.6760000000
  153      C      19.3620000000    19.0230000000    26.0140000000
  154      H      19.1790000000    17.9730000000    25.7730000000
  155      H      19.7440000000    19.4220000000    25.0710000000
  156      H      20.2090000000    19.0520000000    26.7040000000
  157      S      18.0420000000    19.9760000000    26.7980000000
  158      C      17.4440000000    18.6920000000    27.9200000000
  159      H      17.2430000000    17.7140000000    27.4760000000
  160      H      18.2600000000    18.6280000000    28.6440000000
  161      H      16.5860000000    19.0390000000    28.5020000000
  162      O      16.9890000000    19.9410000000    25.7340000000
  163      C      27.1400000000    16.7170000000    30.1910000000
  164      H      27.0680000000    16.9520000000    31.2560000000
  165      H      28.0610000000    17.0810000000    29.7270000000
  166      H      26.2790000000    17.0130000000    29.5880000000
  167      S      27.2100000000    14.9170000000    30.0480000000
  168      C      27.1070000000    14.9770000000    28.2450000000
  169      H      26.1110000000    15.4020000000    28.1040000000
  170      H      27.8720000000    15.6130000000    27.7920000000
  171      H      27.2220000000    14.0170000000    27.7350000000
  172      O      25.8620000000    14.3960000000    30.4360000000
  173      C      29.4680000000    16.5910000000    18.9040000000
  174      H      29.1670000000    17.6420000000    18.9010000000
  175      H      29.3110000000    15.9510000000    18.0330000000
  176      H      28.9480000000    16.1150000000    19.7390000000
  177      S      31.2290000000    16.6460000000    19.3100000000
  178      C      30.9990000000    15.4860000000    20.6770000000
  179      H      30.6770000000    14.4870000000    20.3750000000
  180      H      31.9900000000    15.2850000000    21.0920000000
  181      H      30.3460000000    15.9750000000    21.4040000000
  182      O      31.3770000000    17.9140000000    20.0900000000
  183      C      33.2780000000    19.4560000000    25.0890000000
  184      H      34.2980000000    19.7580000000    25.3410000000
  185      H      32.5950000000    20.3070000000    25.0290000000
  186      H      32.8080000000    18.6910000000    25.7130000000
  187      S      33.2130000000    18.6920000000    23.4530000000
  188      C      31.5150000000    18.0880000000    23.5770000000
  189      H      31.3580000000    17.5360000000    24.5070000000
  190      H      30.9700000000    19.0320000000    23.6630000000
  191      H      31.1830000000    17.6910000000    22.6150000000
  192      O      33.9280000000    17.4100000000    23.7490000000
  193      C      28.6380000000    23.3660000000    21.7370000000
  194      H      28.8400000000    24.4110000000    21.4870000000
  195      H      27.6430000000    23.1090000000    21.3660000000
  196      H      28.7670000000    23.1640000000    22.8030000000
  197      S      29.9290000000    22.3760000000    20.9490000000
  198      C      29.0560000000    20.7960000000    20.8760000000
  199      H      28.7810000000    20.5780000000    21.9110000000
  200      H      28.1280000000    20.8790000000    20.3040000000
  201      H      29.7150000000    19.9760000000    20.5790000000
  202      O      30.8940000000    22.2640000000    22.0880000000
  203      C      19.6060000000    27.1360000000    30.1080000000
  204      H      19.0920000000    26.8920000000    29.1750000000
  205      H      19.0350000000    27.8900000000    30.6560000000
  206      H      20.6130000000    27.5010000000    29.8870000000
  207      S      19.5900000000    25.8040000000    31.3290000000
  208      C      17.8020000000    25.7090000000    31.5780000000
  209      H      17.4030000000    25.6400000000    30.5630000000
  210      H      17.5290000000    24.8360000000    32.1770000000
  211      H      17.5150000000    26.6750000000    32.0000000000
  212      O      19.9750000000    26.4620000000    32.6170000000
  213      C      25.6670000000    16.2810000000    23.7690000000
  214      H      26.1200000000    17.1220000000    24.3000000000
  215      H      25.0980000000    16.4970000000    22.8610000000
  216      H      24.9710000000    15.7740000000    24.4430000000
  217      S      27.0130000000    15.1660000000    23.3110000000
  218      C      27.7880000000    14.9970000000    24.9350000000
  219      H      28.7330000000    14.5020000000    24.6960000000
  220      H      27.9640000000    16.0160000000    25.2890000000
  221      H      27.1190000000    14.4500000000    25.6040000000
  222      O      27.9790000000    16.0600000000    22.5960000000
  223      C      21.7460000000    22.3640000000    30.4450000000
  224      H      22.7510000000    22.5190000000    30.0430000000
  225      H      21.0320000000    23.1130000000    30.0940000000
  226      H      21.7230000000    22.3550000000    31.5370000000
  227      S      21.2170000000    20.7920000000    29.7280000000
  228      C      19.5660000000    20.5480000000    30.4230000000
  229      H      18.8910000000    21.3360000000    30.0800000000
  230      H      19.0630000000    19.6070000000    30.1880000000
  231      H      19.6710000000    20.5100000000    31.5100000000
  232      O      21.9780000000    19.7240000000    30.4510000000
  233      C      17.3330000000    28.5390000000    22.3680000000
  234      H      17.9600000000    28.7720000000    21.5040000000
  235      H      16.4030000000    28.1430000000    21.9510000000
  236      H      17.1210000000    29.3920000000    23.0170000000
  237      S      18.1460000000    27.3140000000    23.4180000000
  238      C      18.1900000000    26.0630000000    22.1140000000
  239      H      17.2610000000    26.1290000000    21.5420000000
  240      H      19.0630000000    26.3300000000    21.5120000000
  241      H      18.4460000000    25.1120000000    22.5880000000
  242      O      17.0500000000    26.8090000000    24.3040000000
  243      C      17.1580000000    25.3340000000    27.5780000000
  244      H      16.4490000000    24.6140000000    27.9940000000
  245      H      17.3450000000    26.2050000000    28.2110000000
  246      H      16.8380000000    25.7000000000    26.5990000000
  247      S      18.7070000000    24.4440000000    27.3020000000
  248      C      18.0570000000    23.3570000000    26.0130000000
  249      H      17.7390000000    23.9800000000    25.1730000000
  250      H      18.8330000000    22.6060000000    25.8450000000
  251      H      17.2220000000    22.7520000000    26.3730000000
  252      O      18.7450000000    23.6230000000    28.5540000000
  253      C      20.6320000000    22.0940000000    22.7210000000
  254      H      20.2430000000    21.1810000000    22.2640000000
  255      H      21.6460000000    21.8510000000    23.0500000000
  256      H      20.0750000000    22.3540000000    23.6250000000
  257      S      20.8230000000    23.2630000000    21.3570000000
  258      C      21.4560000000    24.5730000000    22.4280000000
  259      H      22.4750000000    24.2160000000    22.5970000000
  260      H      21.3810000000    25.5170000000    21.8820000000
  261      H      20.8910000000    24.6560000000    23.3600000000
  262      O      19.4290000000    23.6810000000    21.0040000000
  263      C      35.6630000000    22.8520000000    25.5000000000
  264      H      35.9580000000    23.3070000000    26.4480000000
  265      H      35.8800000000    21.7910000000    25.3530000000
  266      H      36.0750000000    23.4380000000    24.6740000000
  267      S      33.8910000000    23.1560000000    25.3160000000
  268      C      34.0750000000    22.8540000000    23.5430000000
  269      H      34.4400000000    21.8350000000    23.3880000000
  270      H      33.0650000000    22.8940000000    23.1260000000
  271      H      34.7480000000    23.5560000000    23.0460000000
  272      O      33.8550000000    24.6480000000    25.4320000000
  273      C      22.9790000000    24.8330000000    32.3980000000
  274      H      21.9150000000    24.6560000000    32.5780000000
  275      H      23.2360000000    25.8810000000    32.5700000000
  276      H      23.1630000000    24.6610000000    31.3340000000
  277      S      23.8550000000    23.5590000000    33.3330000000
  278      C      23.2860000000    23.8590000000    35.0210000000
  279      H      23.5580000000    24.8550000000    35.3800000000
  280      H      22.2020000000    23.7280000000    34.9780000000
  281      H      23.7460000000    23.0380000000    35.5770000000
  282      O      25.2780000000    24.0170000000    33.4050000000
  283      C      22.7840000000    14.9130000000    28.4990000000
  284      H      22.5570000000    14.8890000000    29.5680000000
  285      H      21.9110000000    14.8220000000    27.8480000000
  286      H      23.3350000000    14.0030000000    28.2470000000
  287      S      23.6580000000    16.4620000000    28.1820000000
  288      C      22.2500000000    17.5870000000    28.0580000000
  289      H      21.5890000000    17.6010000000    28.9290000000
  290      H      22.6880000000    18.5740000000    27.8900000000
  291      H      21.6690000000    17.4710000000    27.1400000000
  292      O      24.0480000000    16.4160000000    26.7380000000
  293      C      29.7680000000    23.6320000000    17.6390000000
  294      H      30.6510000000    23.8460000000    18.2460000000
  295      H      29.2940000000    22.7600000000    18.0960000000
  296      H      29.9980000000    23.5510000000    16.5730000000
  297      S      28.5610000000    24.9520000000    17.8930000000
  298      C      29.5030000000    26.3620000000    17.2690000000
  299      H      29.7570000000    26.2010000000    16.2180000000
  300      H      28.8410000000    27.2250000000    17.3680000000
  301      H      30.4220000000    26.5000000000    17.8460000000
  302      O      28.4900000000    25.2400000000    19.3600000000
 ----------------------------------------------------------------
 Nuclear Repulsion Energy =       51148.30638830 hartrees
 There are      623 alpha and      623 beta electrons
 Requested basis set is 6-31+G(d)
 There are 995 shells and 2773 basis functions

 Total QAlloc Memory Limit  16000 MB
 Mega-Array Size      7821 MB
 MEM_STATIC part      8000 MB
 A cutoff of  1.0D-14 yielded 187288 shell pairs
 There are   1619955 function pairs
 Smallest overlap matrix eigenvalue = 3.78E-07
 Linear dependence detected in AO basis
 Tighter screening thresholds may be required for diffuse basis sets
 Use S2THRESH > 14 and THRESH = 14 in case of SCF convergence issues
 Number of orthogonalized atomic orbitals = 2771
 Maximum deviation from orthogonality = 1.498E-10

 Scale SEOQF with 1.000000e-03/1.000000e-03/1.000000e-03

 Standard Electronic Orientation quadrupole field applied
 Nucleus-field energy     =    -0.0000001711 hartrees
Attempting to make child job directory: /local/scratch/users/ymao/r7.00_frame_0054_almo_B3LYP_dp.in20210311133732//Frg1/
Attempting to make child job directory: /local/scratch/users/ymao/r7.00_frame_0054_almo_B3LYP_dp.in20210311133732//Frg2/
Creating input file /local/scratch/users/ymao/r7.00_frame_0054_almo_B3LYP_dp.in20210311133732/Frg1.input
using default PutDataFrgm: nothing
calling putenv with: QCSCRATCH=/local/scratch/users/ymao/r7.00_frame_0054_almo_B3LYP_dp.in20210311133732/ 
Spawning Job For Fragment 0
Done Job For Fragment 0
calling putenv with: QCSCRATCH=/local/scratch/users/ymao 
calling putenv with: QCTHREADS=8 
Creating input file /local/scratch/users/ymao/r7.00_frame_0054_almo_B3LYP_dp.in20210311133732/Frg2.input
using default PutDataFrgm: nothing
calling putenv with: QCSCRATCH=/local/scratch/users/ymao/r7.00_frame_0054_almo_B3LYP_dp.in20210311133732/ 
Spawning Job For Fragment 1
Done Job For Fragment 1
calling putenv with: QCSCRATCH=/local/scratch/users/ymao 
calling putenv with: QCTHREADS=8 
 Time for running child jobs:  CPU 1.23 s  wall 25031.24 s

 -----------------------------------------------------------------------
  General SCF calculation program by
  Eric Jon Sundstrom, Paul Horn, Yuezhi Mao, Dmitri Zuev, Alec White,
  David Stuck, Shaama M.S., Shane Yost, Joonho Lee, David Small,
  Daniel Levine, Susi Lehtola, Hugh Burton, Evgeny Epifanovsky,
  Bang C. Huynh
 -----------------------------------------------------------------------
Performing Restricted Closed Shell SCFMI
Doing General SCFMI
 Exchange:     0.2000 Hartree-Fock + 0.0800 Slater + 0.7200 B88
 Correlation:  0.1900 VWN1RPA + 0.8100 LYP
 Using Euler-Maclaurin-Lebedev (75,302) quadrature formula
performing fock build before subrot guess so that all methods have access
Printing subrot_rss_gen Method Specification:
Occupied Subspace Method is 0
Virtual Subspace Method is 0
Energy prior to optimization (guess energy) = -15893.878965249300
Begin Timing: Total SCF Calculation
begin iterations for algorithm: DIIS         
the SCF tolerance is set to 1.00e-08
    1  -15893.8789652493      4.45e-05     00000 
    2  -15893.8746519431      7.36e-05     00000 
    3  -15893.8892350187      1.50e-05     00000 
    4  -15893.8898035866      6.66e-06     00000 
    5  -15893.8899467027      2.95e-06     00000 
    6  -15893.8899684761      1.98e-06     00000 
    7  -15893.8899783760      1.14e-06     00000 
    8  -15893.8899820322      5.77e-07     00000 
    9  -15893.8899827643      3.60e-07     00000 
   10  -15893.8899829963      2.41e-07     00000 
   11  -15893.8899831261      1.31e-07     00000 
   12  -15893.8899831719      7.26e-08     00000 
   13  -15893.8899831874      3.75e-08     00000 
   14  -15893.8899831911      2.41e-08     00000 
   15  -15893.8899831918      1.67e-08     00000 
   16  -15893.8899831925      7.43e-09     00000 Convergence criterion met
write pseudocanon occs and virts to disk
write pseudocanon orbital energies to disk
Timing for Total SCF: 54156.00s (wall), 427037.12s (cpu)
SCFMI Energy  -15893.8899831925
<S^2>            0.00000
 Total energy in the final basis set =   -15893.8899831925
    ==================================================
        The end of Object-Oriented SCFman: SCFMI      
    ==================================================
 
 --------------------------------------------------------------
 
                    Orbital Energies (a.u.)
 --------------------------------------------------------------
 
 Alpha MOs
 -- Occupied --
-89.0313 -89.0280 -89.0261 -89.0210 -89.0198 -89.0192 -89.0173 -89.0154
-89.0153 -89.0125 -89.0103 -89.0099 -89.0085 -89.0073 -89.0058 -89.0050
-89.0037 -89.0025 -89.0022 -88.9989 -88.9977 -88.9944 -88.9880 -88.9863
-88.9852 -88.9834 -88.9554 -88.9518 -19.1515 -19.1496 -19.1478 -19.1467
-19.1374 -19.1372 -19.1368 -19.1359 -19.1334 -19.1329 -19.1278 -19.1262
-19.1253 -19.1242 -19.1227 -19.1218 -19.1183 -19.1130 -19.1112 -19.1103
-19.1101 -19.1098 -19.1088 -19.1057 -19.1035 -19.1016 -19.0905 -19.0778
-19.0692 -14.3787 -10.3091 -10.2505 -10.2487 -10.2452 -10.2416 -10.2412
-10.2400 -10.2398 -10.2394 -10.2393 -10.2379 -10.2373 -10.2351 -10.2350
-10.2326 -10.2325 -10.2325 -10.2318 -10.2315 -10.2313 -10.2307 -10.2305
-10.2299 -10.2290 -10.2276 -10.2255 -10.2242 -10.2238 -10.2234 -10.2231
-10.2210 -10.2190 -10.2189 -10.2181 -10.2178 -10.2173 -10.2168 -10.2160
-10.2153 -10.2152 -10.2148 -10.2130 -10.2126 -10.2118 -10.2111 -10.2093
-10.2075 -10.2037 -10.2030 -10.2027 -10.2010 -10.2006 -10.2003 -10.2000
-10.1999 -10.1968 -10.1959 -10.1958 -10.1929 -10.1869 -10.1719 -10.1714
-10.1641  -8.0780  -8.0730  -8.0714  -8.0675  -8.0657  -8.0655  -8.0639
 -8.0622  -8.0603  -8.0587  -8.0571  -8.0560  -8.0544  -8.0542  -8.0524
 -8.0507  -8.0494  -8.0486  -8.0483  -8.0444  -8.0441  -8.0408  -8.0344
 -8.0325  -8.0312  -8.0293  -8.0017  -7.9980  -6.0423  -6.0411  -6.0374
 -6.0363  -6.0358  -6.0352  -6.0345  -6.0321  -6.0304  -6.0304  -6.0303
 -6.0302  -6.0290  -6.0289  -6.0287  -6.0283  -6.0271  -6.0265  -6.0251
 -6.0249  -6.0247  -6.0236  -6.0231  -6.0229  -6.0219  -6.0218  -6.0212
 -6.0210  -6.0203  -6.0199  -6.0197  -6.0188  -6.0188  -6.0184  -6.0178
 -6.0176  -6.0170  -6.0165  -6.0161  -6.0157  -6.0150  -6.0147  -6.0138
 -6.0138  -6.0136  -6.0129  -6.0128  -6.0126  -6.0118  -6.0118  -6.0115
 -6.0112  -6.0096  -6.0088  -6.0083  -6.0081  -6.0075  -6.0071  -6.0069
 -6.0060  -6.0057  -6.0050  -6.0037  -6.0019  -6.0015  -5.9986  -5.9986
 -5.9976  -5.9968  -5.9957  -5.9955  -5.9944  -5.9937  -5.9926  -5.9919
 -5.9901  -5.9884  -5.9867  -5.9661  -5.9649  -5.9623  -5.9609  -5.9589
 -5.9557  -1.0629  -1.0598  -1.0539  -1.0502  -1.0501  -1.0493  -1.0456
 -1.0451  -1.0417  -1.0417  -1.0415  -1.0369  -1.0336  -1.0334  -1.0313
 -1.0305  -1.0287  -1.0284  -1.0247  -1.0229  -1.0221  -1.0202  -1.0188
 -1.0132  -1.0123  -1.0092  -1.0068  -0.9831  -0.9768  -0.9400  -0.8414
 -0.8334  -0.8280  -0.8263  -0.8247  -0.8228  -0.8208  -0.8168  -0.8161
 -0.8150  -0.8148  -0.8134  -0.8127  -0.8119  -0.8113  -0.8081  -0.8073
 -0.8034  -0.8029  -0.8013  -0.8001  -0.7999  -0.7993  -0.7910  -0.7873
 -0.7863  -0.7840  -0.7694  -0.7634  -0.7632  -0.7593  -0.7586  -0.7580
 -0.7557  -0.7517  -0.7501  -0.7495  -0.7471  -0.7461  -0.7440  -0.7423
 -0.7413  -0.7407  -0.7349  -0.7343  -0.7340  -0.7334  -0.7324  -0.7318
 -0.7284  -0.7262  -0.7251  -0.7195  -0.7169  -0.7145  -0.7124  -0.7120
 -0.6930  -0.6776  -0.6535  -0.6445  -0.6417  -0.6396  -0.6381  -0.6353
 -0.6348  -0.6308  -0.6294  -0.6290  -0.6286  -0.6281  -0.6251  -0.6239
 -0.6215  -0.6201  -0.6200  -0.6180  -0.6165  -0.6123  -0.6116  -0.6098
 -0.6097  -0.6082  -0.6011  -0.5991  -0.5975  -0.5947  -0.5941  -0.5824
 -0.5703  -0.5639  -0.5431  -0.5161  -0.5101  -0.5078  -0.5059  -0.5054
 -0.5052  -0.5045  -0.5042  -0.5014  -0.5012  -0.5008  -0.4983  -0.4979
 -0.4970  -0.4959  -0.4954  -0.4946  -0.4943  -0.4934  -0.4930  -0.4913
 -0.4910  -0.4900  -0.4892  -0.4885  -0.4881  -0.4879  -0.4869  -0.4863
 -0.4859  -0.4850  -0.4847  -0.4833  -0.4827  -0.4819  -0.4814  -0.4809
 -0.4802  -0.4792  -0.4790  -0.4789  -0.4784  -0.4779  -0.4771  -0.4763
 -0.4762  -0.4757  -0.4743  -0.4740  -0.4733  -0.4731  -0.4727  -0.4722
 -0.4712  -0.4708  -0.4704  -0.4700  -0.4696  -0.4689  -0.4687  -0.4679
 -0.4674  -0.4671  -0.4660  -0.4657  -0.4652  -0.4643  -0.4641  -0.4630
 -0.4617  -0.4612  -0.4608  -0.4598  -0.4590  -0.4583  -0.4574  -0.4557
 -0.4554  -0.4548  -0.4544  -0.4537  -0.4534  -0.4521  -0.4508  -0.4499
 -0.4489  -0.4487  -0.4476  -0.4472  -0.4466  -0.4461  -0.4442  -0.4440
 -0.4427  -0.4426  -0.4415  -0.4408  -0.4406  -0.4398  -0.4390  -0.4387
 -0.4374  -0.4361  -0.4358  -0.4342  -0.4340  -0.4329  -0.4324  -0.4316
 -0.4310  -0.4306  -0.4299  -0.4295  -0.4290  -0.4285  -0.4282  -0.4278
 -0.4276  -0.4269  -0.4263  -0.4248  -0.4240  -0.4234  -0.4228  -0.4220
 -0.4217  -0.4210  -0.4201  -0.4196  -0.4183  -0.4178  -0.4164  -0.4157
 -0.4152  -0.4148  -0.4145  -0.4142  -0.4140  -0.4134  -0.4126  -0.4126
 -0.4115  -0.4096  -0.4090  -0.4089  -0.4086  -0.4074  -0.4059  -0.4058
 -0.4053  -0.4053  -0.4043  -0.4036  -0.4016  -0.4010  -0.3997  -0.3977
 -0.3976  -0.3973  -0.3968  -0.3954  -0.3948  -0.3942  -0.3924  -0.3920
 -0.3900  -0.3899  -0.3892  -0.3887  -0.3882  -0.3874  -0.3867  -0.3860
 -0.3846  -0.3838  -0.3832  -0.3830  -0.3820  -0.3815  -0.3809  -0.3783
 -0.3779  -0.3774  -0.3753  -0.3746  -0.3740  -0.3733  -0.3718  -0.3678
 -0.3672  -0.3664  -0.3640  -0.3631  -0.3625  -0.3625  -0.3613  -0.3588
 -0.3581  -0.3573  -0.3562  -0.3525  -0.3498  -0.3474  -0.3441  -0.3428
 -0.3389  -0.3275  -0.3214  -0.3183  -0.3161  -0.3128  -0.3124  -0.3095
 -0.3005  -0.2993  -0.2962  -0.2949  -0.2940  -0.2935  -0.2890  -0.2878
 -0.2862  -0.2849  -0.2835  -0.2829  -0.2808  -0.2801  -0.2738  -0.2732
 -0.2729  -0.2728  -0.2723  -0.2716  -0.2700  -0.2695  -0.2673  -0.2669
 -0.2655  -0.2648  -0.2642  -0.2632  -0.2608  -0.2575  -0.2575  -0.2573
 -0.2556  -0.2547  -0.2527  -0.2498  -0.2495  -0.2475  -0.2465  -0.2457
 -0.2444  -0.2431  -0.2406  -0.2402  -0.2390  -0.2385  -0.2363  -0.2355
 -0.2282  -0.2272  -0.2248  -0.2233  -0.2203  -0.1962  -0.1957
 -- Virtual --
 -0.0339  -0.0314  -0.0300  -0.0284  -0.0272  -0.0263  -0.0244  -0.0244
 -0.0217  -0.0214  -0.0200  -0.0191  -0.0186  -0.0180  -0.0162  -0.0154
 -0.0143  -0.0138  -0.0128  -0.0116  -0.0112  -0.0108  -0.0095  -0.0092
 -0.0085  -0.0071  -0.0061  -0.0056  -0.0051  -0.0047  -0.0039  -0.0029
 -0.0019  -0.0010  -0.0008   0.0002   0.0012   0.0015   0.0023   0.0040
  0.0043   0.0053   0.0060   0.0064   0.0070   0.0079   0.0080   0.0092
  0.0098   0.0104   0.0106   0.0113   0.0118   0.0126   0.0136   0.0149
  0.0153   0.0157   0.0162   0.0171   0.0182   0.0185   0.0199   0.0200
  0.0202   0.0213   0.0222   0.0223   0.0232   0.0234   0.0249   0.0251
  0.0258   0.0263   0.0270   0.0279   0.0289   0.0299   0.0301   0.0309
  0.0318   0.0321   0.0335   0.0339   0.0346   0.0355   0.0361   0.0366
  0.0373   0.0376   0.0379   0.0388   0.0398   0.0401   0.0411   0.0414
  0.0422   0.0425   0.0430   0.0438   0.0445   0.0448   0.0452   0.0462
  0.0465   0.0473   0.0481   0.0482   0.0490   0.0498   0.0505   0.0509
  0.0520   0.0521   0.0528   0.0531   0.0539   0.0542   0.0549   0.0558
  0.0558   0.0564   0.0568   0.0576   0.0577   0.0587   0.0591   0.0600
  0.0603   0.0610   0.0616   0.0623   0.0624   0.0635   0.0640   0.0644
  0.0651   0.0655   0.0663   0.0668   0.0679   0.0681   0.0683   0.0688
  0.0701   0.0704   0.0717   0.0721   0.0727   0.0733   0.0740   0.0743
  0.0755   0.0760   0.0777   0.0780   0.0788   0.0801   0.0807   0.0808
  0.0813   0.0815   0.0823   0.0832   0.0835   0.0846   0.0849   0.0853
  0.0860   0.0866   0.0869   0.0875   0.0879   0.0883   0.0890   0.0899
  0.0905   0.0910   0.0910   0.0924   0.0929   0.0934   0.0943   0.0945
  0.0947   0.0956   0.0962   0.0970   0.0975   0.0977   0.0980   0.0983
  0.0994   0.0999   0.1008   0.1017   0.1023   0.1025   0.1033   0.1038
  0.1042   0.1047   0.1059   0.1066   0.1071   0.1085   0.1087   0.1096
  0.1101   0.1105   0.1112   0.1113   0.1118   0.1131   0.1135   0.1137
  0.1141   0.1146   0.1149   0.1157   0.1162   0.1165   0.1171   0.1184
  0.1191   0.1197   0.1204   0.1212   0.1220   0.1224   0.1228   0.1234
  0.1237   0.1242   0.1252   0.1256   0.1265   0.1270   0.1275   0.1277
  0.1286   0.1288   0.1295   0.1296   0.1304   0.1315   0.1322   0.1327
  0.1330   0.1331   0.1341   0.1347   0.1352   0.1355   0.1359   0.1362
  0.1376   0.1383   0.1387   0.1392   0.1395   0.1401   0.1404   0.1410
  0.1416   0.1421   0.1430   0.1438   0.1444   0.1448   0.1454   0.1459
  0.1474   0.1484   0.1487   0.1493   0.1493   0.1502   0.1513   0.1518
  0.1522   0.1530   0.1538   0.1542   0.1544   0.1548   0.1550   0.1555
  0.1563   0.1571   0.1577   0.1586   0.1587   0.1598   0.1601   0.1604
  0.1611   0.1612   0.1625   0.1631   0.1636   0.1641   0.1643   0.1649
  0.1656   0.1665   0.1672   0.1676   0.1685   0.1691   0.1693   0.1706
  0.1711   0.1713   0.1715   0.1718   0.1725   0.1732   0.1734   0.1741
  0.1753   0.1758   0.1764   0.1765   0.1773   0.1779   0.1786   0.1791
  0.1793   0.1803   0.1807   0.1811   0.1821   0.1828   0.1833   0.1841
  0.1843   0.1846   0.1862   0.1864   0.1867   0.1874   0.1878   0.1889
  0.1892   0.1902   0.1908   0.1914   0.1916   0.1922   0.1929   0.1930
  0.1936   0.1943   0.1948   0.1953   0.1955   0.1969   0.1975   0.1988
  0.1988   0.1992   0.1997   0.2003   0.2012   0.2013   0.2022   0.2029
  0.2038   0.2044   0.2049   0.2052   0.2057   0.2068   0.2073   0.2082
  0.2088   0.2100   0.2101   0.2109   0.2110   0.2120   0.2125   0.2131
  0.2133   0.2139   0.2142   0.2146   0.2153   0.2159   0.2174   0.2175
  0.2183   0.2190   0.2196   0.2199   0.2208   0.2210   0.2218   0.2225
  0.2228   0.2232   0.2243   0.2244   0.2251   0.2263   0.2267   0.2272
  0.2276   0.2282   0.2289   0.2301   0.2310   0.2314   0.2322   0.2333
  0.2336   0.2338   0.2345   0.2350   0.2361   0.2365   0.2372   0.2381
  0.2385   0.2395   0.2396   0.2406   0.2408   0.2417   0.2419   0.2426
  0.2434   0.2445   0.2448   0.2456   0.2458   0.2465   0.2481   0.2483
  0.2491   0.2494   0.2496   0.2509   0.2512   0.2520   0.2526   0.2539
  0.2544   0.2546   0.2561   0.2569   0.2578   0.2585   0.2589   0.2590
  0.2601   0.2606   0.2608   0.2612   0.2624   0.2627   0.2635   0.2646
  0.2652   0.2660   0.2671   0.2675   0.2679   0.2687   0.2695   0.2704
  0.2707   0.2715   0.2725   0.2726   0.2736   0.2736   0.2744   0.2747
  0.2767   0.2771   0.2774   0.2788   0.2798   0.2803   0.2805   0.2815
  0.2830   0.2834   0.2841   0.2841   0.2858   0.2864   0.2865   0.2884
  0.2887   0.2895   0.2899   0.2907   0.2919   0.2934   0.2936   0.2942
  0.2945   0.2954   0.2959   0.2964   0.2974   0.2979   0.2986   0.3001
  0.3004   0.3008   0.3014   0.3021   0.3026   0.3040   0.3044   0.3054
  0.3054   0.3073   0.3079   0.3088   0.3090   0.3106   0.3110   0.3116
  0.3125   0.3129   0.3146   0.3149   0.3156   0.3166   0.3178   0.3187
  0.3188   0.3194   0.3198   0.3208   0.3214   0.3224   0.3231   0.3239
  0.3252   0.3261   0.3265   0.3275   0.3283   0.3289   0.3295   0.3300
  0.3307   0.3317   0.3318   0.3329   0.3335   0.3342   0.3358   0.3361
  0.3372   0.3375   0.3392   0.3399   0.3406   0.3416   0.3421   0.3435
  0.3439   0.3445   0.3449   0.3455   0.3466   0.3473   0.3484   0.3492
  0.3499   0.3512   0.3522   0.3528   0.3541   0.3543   0.3553   0.3558
  0.3576   0.3578   0.3582   0.3592   0.3606   0.3611   0.3616   0.3619
  0.3633   0.3640   0.3643   0.3660   0.3668   0.3673   0.3685   0.3696
  0.3701   0.3711   0.3713   0.3722   0.3733   0.3740   0.3745   0.3748
  0.3756   0.3761   0.3785   0.3790   0.3795   0.3802   0.3806   0.3822
  0.3825   0.3830   0.3842   0.3853   0.3859   0.3863   0.3873   0.3875
  0.3889   0.3895   0.3902   0.3912   0.3916   0.3921   0.3929   0.3936
  0.3953   0.3960   0.3972   0.3979   0.3985   0.3994   0.4001   0.4005
  0.4015   0.4023   0.4030   0.4038   0.4046   0.4053   0.4056   0.4078
  0.4082   0.4099   0.4105   0.4120   0.4127   0.4133   0.4143   0.4149
  0.4151   0.4171   0.4180   0.4185   0.4198   0.4205   0.4213   0.4223
  0.4226   0.4237   0.4245   0.4262   0.4264   0.4283   0.4292   0.4295
  0.4307   0.4311   0.4326   0.4335   0.4345   0.4359   0.4363   0.4371
  0.4381   0.4387   0.4406   0.4423   0.4432   0.4443   0.4450   0.4456
  0.4474   0.4480   0.4501   0.4507   0.4531   0.4536   0.4544   0.4552
  0.4575   0.4587   0.4590   0.4604   0.4618   0.4635   0.4639   0.4651
  0.4675   0.4687   0.4699   0.4715   0.4722   0.4732   0.4744   0.4764
  0.4774   0.4782   0.4791   0.4801   0.4826   0.4834   0.4851   0.4858
  0.4881   0.4883   0.4902   0.4907   0.4910   0.4928   0.4949   0.4976
  0.4979   0.4986   0.4994   0.5026   0.5041   0.5050   0.5064   0.5076
  0.5084   0.5104   0.5109   0.5120   0.5140   0.5149   0.5158   0.5177
  0.5184   0.5226   0.5234   0.5250   0.5258   0.5290   0.5305   0.5317
  0.5327   0.5343   0.5356   0.5390   0.5408   0.5417   0.5423   0.5435
  0.5454   0.5467   0.5492   0.5511   0.5514   0.5532   0.5541   0.5562
  0.5575   0.5594   0.5605   0.5633   0.5639   0.5648   0.5661   0.5671
  0.5708   0.5723   0.5744   0.5757   0.5766   0.5781   0.5796   0.5801
  0.5809   0.5832   0.5839   0.5847   0.5860   0.5882   0.5901   0.5916
  0.5936   0.5947   0.5961   0.5964   0.5981   0.5998   0.6004   0.6025
  0.6030   0.6047   0.6066   0.6076   0.6085   0.6096   0.6126   0.6136
  0.6141   0.6149   0.6160   0.6172   0.6190   0.6198   0.6210   0.6211
  0.6225   0.6231   0.6248   0.6266   0.6273   0.6283   0.6301   0.6310
  0.6318   0.6327   0.6347   0.6355   0.6363   0.6385   0.6392   0.6402
  0.6408   0.6426   0.6433   0.6441   0.6450   0.6454   0.6472   0.6478
  0.6483   0.6488   0.6506   0.6512   0.6520   0.6537   0.6547   0.6554
  0.6564   0.6571   0.6575   0.6599   0.6603   0.6614   0.6634   0.6636
  0.6641   0.6657   0.6669   0.6677   0.6692   0.6707   0.6711   0.6724
  0.6736   0.6756   0.6763   0.6774   0.6781   0.6788   0.6800   0.6818
  0.6830   0.6848   0.6855   0.6861   0.6873   0.6883   0.6896   0.6909
  0.6921   0.6936   0.6942   0.6962   0.6971   0.6987   0.6997   0.7016
  0.7025   0.7033   0.7035   0.7042   0.7071   0.7078   0.7086   0.7116
  0.7121   0.7128   0.7140   0.7146   0.7160   0.7181   0.7188   0.7198
  0.7211   0.7214   0.7226   0.7235   0.7247   0.7261   0.7276   0.7285
  0.7298   0.7304   0.7310   0.7333   0.7344   0.7355   0.7374   0.7391
  0.7394   0.7403   0.7415   0.7417   0.7443   0.7462   0.7474   0.7485
  0.7492   0.7496   0.7512   0.7540   0.7550   0.7557   0.7572   0.7582
  0.7602   0.7606   0.7612   0.7619   0.7644   0.7671   0.7674   0.7681
  0.7704   0.7716   0.7724   0.7734   0.7754   0.7766   0.7785   0.7800
  0.7813   0.7818   0.7853   0.7862   0.7862   0.7890   0.7908   0.7918
  0.7952   0.7961   0.7970   0.7976   0.7985   0.8022   0.8038   0.8065
  0.8067   0.8078   0.8100   0.8108   0.8114   0.8120   0.8131   0.8141
  0.8161   0.8175   0.8196   0.8206   0.8213   0.8240   0.8254   0.8267
  0.8283   0.8312   0.8313   0.8341   0.8349   0.8359   0.8381   0.8384
  0.8412   0.8429   0.8430   0.8452   0.8458   0.8470   0.8484   0.8494
  0.8508   0.8520   0.8534   0.8545   0.8554   0.8570   0.8589   0.8592
  0.8600   0.8617   0.8634   0.8642   0.8649   0.8674   0.8680   0.8692
  0.8701   0.8714   0.8730   0.8749   0.8753   0.8763   0.8780   0.8785
  0.8792   0.8811   0.8814   0.8824   0.8844   0.8851   0.8859   0.8868
  0.8883   0.8897   0.8899   0.8933   0.8938   0.8948   0.8960   0.8964
  0.8975   0.8984   0.8998   0.9009   0.9020   0.9028   0.9045   0.9051
  0.9059   0.9069   0.9083   0.9097   0.9104   0.9120   0.9125   0.9153
  0.9154   0.9162   0.9173   0.9197   0.9207   0.9220   0.9230   0.9234
  0.9242   0.9247   0.9282   0.9284   0.9293   0.9299   0.9313   0.9319
  0.9351   0.9362   0.9371   0.9378   0.9385   0.9394   0.9405   0.9411
  0.9423   0.9436   0.9443   0.9456   0.9462   0.9476   0.9485   0.9489
  0.9490   0.9511   0.9517   0.9530   0.9534   0.9563   0.9570   0.9576
  0.9594   0.9603   0.9631   0.9634   0.9639   0.9642   0.9661   0.9663
  0.9680   0.9690   0.9694   0.9711   0.9720   0.9729   0.9741   0.9749
  0.9756   0.9763   0.9775   0.9787   0.9800   0.9814   0.9825   0.9828
  0.9842   0.9855   0.9859   0.9881   0.9884   0.9895   0.9901   0.9917
  0.9927   0.9941   0.9953   0.9959   0.9966   0.9980   0.9994   1.0005
  1.0009   1.0033   1.0034   1.0047   1.0063   1.0073   1.0086   1.0095
  1.0102   1.0107   1.0123   1.0129   1.0143   1.0152   1.0162   1.0165
  1.0181   1.0200   1.0212   1.0216   1.0228   1.0244   1.0246   1.0261
  1.0276   1.0290   1.0295   1.0312   1.0320   1.0334   1.0349   1.0357
  1.0370   1.0375   1.0382   1.0409   1.0411   1.0429   1.0438   1.0451
  1.0457   1.0471   1.0487   1.0501   1.0508   1.0519   1.0524   1.0533
  1.0549   1.0555   1.0572   1.0594   1.0598   1.0617   1.0624   1.0637
  1.0645   1.0666   1.0680   1.0693   1.0717   1.0721   1.0731   1.0743
  1.0756   1.0768   1.0786   1.0794   1.0805   1.0822   1.0843   1.0846
  1.0856   1.0863   1.0881   1.0894   1.0896   1.0929   1.0931   1.0948
  1.0961   1.0986   1.0995   1.1001   1.1004   1.1024   1.1030   1.1056
  1.1067   1.1074   1.1086   1.1089   1.1100   1.1123   1.1131   1.1149
  1.1161   1.1165   1.1177   1.1180   1.1217   1.1220   1.1233   1.1237
  1.1252   1.1262   1.1281   1.1293   1.1302   1.1317   1.1324   1.1348
  1.1366   1.1367   1.1387   1.1399   1.1410   1.1422   1.1434   1.1443
  1.1449   1.1460   1.1478   1.1486   1.1503   1.1509   1.1522   1.1538
  1.1545   1.1552   1.1556   1.1582   1.1589   1.1606   1.1617   1.1619
  1.1641   1.1658   1.1666   1.1689   1.1703   1.1711   1.1734   1.1747
  1.1754   1.1764   1.1783   1.1798   1.1806   1.1811   1.1834   1.1841
  1.1855   1.1867   1.1888   1.1894   1.1898   1.1921   1.1938   1.1954
  1.1960   1.1987   1.1997   1.2012   1.2030   1.2056   1.2065   1.2092
  1.2098   1.2109   1.2115   1.2131   1.2144   1.2176   1.2196   1.2218
  1.2233   1.2253   1.2261   1.2268   1.2302   1.2326   1.2348   1.2368
  1.2395   1.2427   1.2446   1.2466   1.2472   1.2493   1.2518   1.2543
  1.2559   1.2578   1.2606   1.2613   1.2628   1.2638   1.2675   1.2687
  1.2707   1.2737   1.2764   1.2776   1.2815   1.2831   1.2858   1.2870
  1.2879   1.2909   1.2928   1.2942   1.2975   1.2996   1.3017   1.3026
  1.3041   1.3074   1.3101   1.3116   1.3124   1.3132   1.3169   1.3173
  1.3189   1.3199   1.3242   1.3257   1.3291   1.3304   1.3317   1.3326
  1.3336   1.3369   1.3389   1.3407   1.3428   1.3443   1.3462   1.3492
  1.3508   1.3526   1.3543   1.3548   1.3569   1.3593   1.3595   1.3609
  1.3627   1.3634   1.3651   1.3665   1.3682   1.3694   1.3726   1.3739
  1.3747   1.3749   1.3788   1.3808   1.3818   1.3822   1.3838   1.3849
  1.3860   1.3861   1.3872   1.3907   1.3919   1.3939   1.3943   1.3955
  1.3962   1.3982   1.3983   1.3995   1.4014   1.4036   1.4038   1.4050
  1.4066   1.4092   1.4097   1.4118   1.4123   1.4128   1.4161   1.4166
  1.4174   1.4189   1.4198   1.4212   1.4233   1.4240   1.4255   1.4258
  1.4268   1.4288   1.4312   1.4337   1.4354   1.4365   1.4372   1.4374
  1.4385   1.4414   1.4420   1.4437   1.4458   1.4479   1.4490   1.4504
  1.4516   1.4528   1.4556   1.4567   1.4596   1.4613   1.4616   1.4640
  1.4653   1.4669   1.4691   1.4725   1.4742   1.4760   1.4772   1.4796
  1.4817   1.4828   1.4845   1.4849   1.4865   1.4885   1.4904   1.4916
  1.4933   1.4939   1.4961   1.4966   1.4976   1.5004   1.5022   1.5036
  1.5053   1.5074   1.5091   1.5101   1.5125   1.5140   1.5166   1.5173
  1.5220   1.5246   1.5266   1.5280   1.5286   1.5330   1.5344   1.5351
  1.5369   1.5400   1.5436   1.5454   1.5483   1.5528   1.5545   1.5574
  1.5596   1.5601   1.5626   1.5672   1.5709   1.5729   1.5751   1.5757
  1.5819   1.5868   1.5919   1.5954   1.5990   1.6020   1.6066   1.6101
  1.6129   1.6156   1.6200   1.6234   1.6260   1.6274   1.6321   1.6352
  1.6385   1.6440   1.6476   1.6504   1.6510   1.6531   1.6563   1.6594
  1.6605   1.6620   1.6629   1.6639   1.6658   1.6670   1.6678   1.6686
  1.6694   1.6705   1.6729   1.6735   1.6768   1.6775   1.6779   1.6808
  1.6816   1.6826   1.6833   1.6849   1.6855   1.6870   1.6877   1.6895
  1.6909   1.6924   1.6929   1.6943   1.6960   1.6977   1.6982   1.6993
  1.7000   1.7021   1.7024   1.7032   1.7059   1.7076   1.7085   1.7097
  1.7110   1.7124   1.7126   1.7140   1.7150   1.7155   1.7177   1.7198
  1.7205   1.7238   1.7243   1.7255   1.7268   1.7287   1.7293   1.7320
  1.7354   1.7369   1.7377   1.7380   1.7405   1.7406   1.7422   1.7431
  1.7443   1.7455   1.7464   1.7495   1.7511   1.7527   1.7532   1.7540
  1.7555   1.7569   1.7576   1.7602   1.7615   1.7640   1.7641   1.7656
  1.7671   1.7676   1.7701   1.7709   1.7727   1.7739   1.7785   1.7799
  1.7813   1.7831   1.7837   1.7864   1.7899   1.7914   1.7931   1.7945
  1.7956   1.7979   1.8007   1.8023   1.8044   1.8061   1.8086   1.8110
  1.8119   1.8149   1.8185   1.8206   1.8216   1.8232   1.8245   1.8279
  1.8297   1.8327   1.8353   1.8391   1.8409   1.8415   1.8446   1.8452
  1.8501   1.8509   1.8545   1.8555   1.8583   1.8620   1.8656   1.8668
  1.8676   1.8683   1.8716   1.8725   1.8734   1.8750   1.8773   1.8775
  1.8791   1.8798   1.8822   1.8838   1.8845   1.8854   1.8859   1.8881
  1.8898   1.8905   1.8920   1.8929   1.8935   1.8949   1.8965   1.8967
  1.8979   1.8983   1.8991   1.8998   1.9011   1.9022   1.9040   1.9047
  1.9070   1.9079   1.9091   1.9096   1.9104   1.9107   1.9122   1.9134
  1.9138   1.9152   1.9167   1.9177   1.9193   1.9202   1.9204   1.9224
  1.9231   1.9248   1.9270   1.9280   1.9308   1.9321   1.9328   1.9333
  1.9337   1.9408   1.9438   1.9483   1.9487   1.9547   1.9566   1.9584
  1.9602   1.9620   1.9636   1.9705   1.9727   1.9753   1.9770   1.9795
  1.9813   1.9947   2.0002   2.0079   2.0104   2.0196   2.0303   2.0319
  2.0356   2.0377   2.0423   2.0461   2.0474   2.0488   2.0512   2.0519
  2.0540   2.0553   2.0557   2.0571   2.0598   2.0603   2.0609   2.0623
  2.0633   2.0640   2.0660   2.0680   2.0700   2.0732   2.0738   2.0760
  2.0769   2.0770   2.0790   2.0804   2.0811   2.0843   2.0870   2.0888
  2.0900   2.0905   2.0921   2.0935   2.0943   2.0950   2.0967   2.0972
  2.0977   2.1002   2.1019   2.1030   2.1039   2.1047   2.1051   2.1093
  2.1103   2.1133   2.1171   2.1183   2.1197   2.1219   2.1255   2.1307
  2.1333   2.1366   2.1389   2.1424   2.1439   2.1480   2.1534   2.1565
  2.1583   2.1668   2.1732   2.1749   2.1787   2.1819   2.1824   2.1855
  2.1885   2.1889   2.1905   2.1925   2.1929   2.1946   2.1980   2.1995
  2.2009   2.2035   2.2060   2.2081   2.2145   2.2149   2.2197   2.2201
  2.2225   2.2233   2.2252   2.2278   2.2284   2.2306   2.2308   2.2319
  2.2325   2.2346   2.2350   2.2359   2.2366   2.2368   2.2378   2.2386
  2.2399   2.2410   2.2421   2.2431   2.2456   2.2462   2.2466   2.2472
  2.2481   2.2485   2.2496   2.2508   2.2511   2.2517   2.2527   2.2533
  2.2542   2.2551   2.2555   2.2559   2.2573   2.2577   2.2598   2.2605
  2.2613   2.2617   2.2625   2.2636   2.2644   2.2657   2.2660   2.2672
  2.2679   2.2694   2.2695   2.2709   2.2725   2.2728   2.2740   2.2748
  2.2750   2.2758   2.2776   2.2790   2.2804   2.2806   2.2821   2.2827
  2.2831   2.2841   2.2847   2.2854   2.2866   2.2882   2.2885   2.2893
  2.2906   2.2909   2.2918   2.2927   2.2934   2.2944   2.2952   2.2967
  2.2974   2.2977   2.2986   2.2992   2.3004   2.3018   2.3030   2.3033
  2.3054   2.3065   2.3065   2.3080   2.3089   2.3099   2.3117   2.3143
  2.3150   2.3161   2.3175   2.3183   2.3196   2.3200   2.3207   2.3215
  2.3231   2.3242   2.3247   2.3268   2.3288   2.3308   2.3320   2.3337
  2.3361   2.3366   2.3374   2.3401   2.3417   2.3424   2.3431   2.3445
  2.3459   2.3477   2.3511   2.3519   2.3539   2.3563   2.3573   2.3578
  2.3585   2.3595   2.3650   2.3675   2.3685   2.3705   2.3724   2.3734
  2.3748   2.3787   2.3798   2.3837   2.3870   2.3885   2.3909   2.3919
  2.3955   2.4008   2.4045   2.4072   2.4102   2.4163   2.4390   2.4607
  2.4974   2.5249   2.5435   2.5701   2.6467   2.7020   2.7554   2.7828
  2.7969   2.8103   2.8107   2.8226   2.8319   2.8337   2.8344   2.8357
  2.8372   2.8395   2.8413   2.8420   2.8437   2.8447   2.8468   2.8484
  2.8508   2.8520   2.8546   2.8560   2.8587   2.8596   2.8614   2.8631
  2.8678   2.8727   2.8742   2.8762   2.8842   2.8931   2.9011   2.9043
  2.9206   3.0962   3.2290   3.9417   3.9530   3.9551   3.9599   3.9626
  3.9651   3.9697   3.9705   3.9757   3.9770   3.9804   3.9836   3.9844
  3.9872   3.9887   3.9898   3.9920   3.9953   3.9992   4.0006   4.0031
  4.0052   4.0067   4.0072   4.0100   4.0166   4.0222   4.0279   4.2194
  4.2230   4.2277   4.2359   4.2375   4.2423   4.2428   4.2467   4.2477
  4.2478   4.2512   4.2530   4.2573   4.2612   4.2627   4.2644   4.2649
  4.2694   4.2699   4.2717   4.2748   4.2764   4.2787   4.2828   4.2852
  4.2866   4.2907   4.2925   4.2927   4.2954   4.2982   4.2998   4.3026
  4.3063   4.3079   4.3145   4.3163   4.3179   4.3198   4.3201   4.3207
  4.3235   4.3281   4.3303   4.3325   4.3358   4.3395   4.3431   4.3461
  4.3474   4.3499   4.3513   4.3557   4.3589   4.3602   4.3631   4.3691
  4.3717   4.3733   4.3750   4.3765   4.3809   4.3833   4.3862   4.3939
  4.3988   4.4002   4.4050   4.4091   4.4160   4.4192   4.4287   4.4466
  4.4533   4.4621   4.4651   4.4733   4.4823   4.4902   4.4983   4.5160
  4.5299   4.5327   4.5548   4.5650   4.5776   4.5846   4.6216   4.6726
  4.6969   4.7277   4.7701   4.9441
 --------------------------------------------------------------
 
          Ground-State Mulliken Net Atomic Charges

     Atom                 Charge (a.u.)
  ----------------------------------------
      1 C                    -0.083878
      2 C                    -0.815954
      3 C                    -0.033927
      4 C                    -0.582743
      5 C                    -0.436335
      6 C                    -0.472966
      7 H                     0.221723
      8 H                     0.235132
      9 H                     0.167913
     10 H                     0.219439
     11 H                     0.221188
     12 H                     0.201519
     13 H                     0.182531
     14 H                     0.180729
     15 H                     0.233479
     16 H                     0.195677
     17 H                     0.216655
     18 N                    -0.318492
     19 H                     0.464383
     20 C                     0.400127
     21 H                     0.153947
     22 O                    -0.550147
     23 C                    -0.898965
     24 H                     0.234488
     25 H                     0.253629
     26 H                     0.296740
     27 S                     0.890078
     28 C                    -0.912274
     29 H                     0.249773
     30 H                     0.227608
     31 H                     0.249061
     32 O                    -0.622578
     33 C                    -0.790601
     34 H                     0.277115
     35 H                     0.231084
     36 H                     0.264182
     37 S                     0.662015
     38 C                    -0.681704
     39 H                     0.227609
     40 H                     0.285128
     41 H                     0.276894
     42 O                    -0.722690
     43 C                    -1.038615
     44 H                     0.279060
     45 H                     0.218344
     46 H                     0.279123
     47 S                     1.175601
     48 C                    -0.884871
     49 H                     0.256244
     50 H                     0.276029
     51 H                     0.225964
     52 O                    -0.726657
     53 C                    -0.844012
     54 H                     0.254142
     55 H                     0.260354
     56 H                     0.271588
     57 S                     0.551350
     58 C                    -0.817556
     59 H                     0.266295
     60 H                     0.305889
     61 H                     0.252903
     62 O                    -0.591102
     63 C                    -0.947580
     64 H                     0.304904
     65 H                     0.269510
     66 H                     0.261295
     67 S                     0.894062
     68 C                    -0.874385
     69 H                     0.253851
     70 H                     0.271726
     71 H                     0.263083
     72 O                    -0.695666
     73 C                    -0.903997
     74 H                     0.288693
     75 H                     0.254351
     76 H                     0.247855
     77 S                     0.653512
     78 C                    -0.728066
     79 H                     0.285400
     80 H                     0.326612
     81 H                     0.221972
     82 O                    -0.757717
     83 C                    -1.040372
     84 H                     0.283920
     85 H                     0.272116
     86 H                     0.255372
     87 S                     1.264024
     88 C                    -1.056889
     89 H                     0.263824
     90 H                     0.229293
     91 H                     0.267398
     92 O                    -0.747337
     93 C                    -0.811798
     94 H                     0.255958
     95 H                     0.265730
     96 H                     0.240334
     97 S                     0.900902
     98 C                    -0.903682
     99 H                     0.230754
    100 H                     0.281291
    101 H                     0.257264
    102 O                    -0.688496
    103 C                    -1.058284
    104 H                     0.304406
    105 H                     0.269433
    106 H                     0.260045
    107 S                     0.912136
    108 C                    -0.979262
    109 H                     0.323238
    110 H                     0.253106
    111 H                     0.233937
    112 O                    -0.631639
    113 C                    -0.868552
    114 H                     0.255647
    115 H                     0.231598
    116 H                     0.259119
    117 S                     1.114821
    118 C                    -0.919156
    119 H                     0.253101
    120 H                     0.280246
    121 H                     0.214970
    122 O                    -0.720434
    123 C                    -0.923394
    124 H                     0.271664
    125 H                     0.256981
    126 H                     0.327708
    127 S                     0.966306
    128 C                    -0.863970
    129 H                     0.240587
    130 H                     0.231527
    131 H                     0.293647
    132 O                    -0.724563
    133 C                    -0.769783
    134 H                     0.264745
    135 H                     0.253973
    136 H                     0.215414
    137 S                     0.871519
    138 C                    -0.759472
    139 H                     0.267175
    140 H                     0.216283
    141 H                     0.252168
    142 O                    -0.736049
    143 C                    -0.936312
    144 H                     0.289808
    145 H                     0.303110
    146 H                     0.234309
    147 S                     1.059368
    148 C                    -1.022856
    149 H                     0.254185
    150 H                     0.258407
    151 H                     0.283180
    152 O                    -0.712990
    153 C                    -0.824015
    154 H                     0.272223
    155 H                     0.282916
    156 H                     0.219725
    157 S                     0.917799
    158 C                    -0.910761
    159 H                     0.267398
    160 H                     0.202998
    161 H                     0.263648
    162 O                    -0.700064
    163 C                    -0.791804
    164 H                     0.248025
    165 H                     0.297249
    166 H                     0.229284
    167 S                     0.698364
    168 C                    -0.756464
    169 H                     0.242774
    170 H                     0.271015
    171 H                     0.230015
    172 O                    -0.692241
    173 C                    -0.860148
    174 H                     0.252784
    175 H                     0.236799
    176 H                     0.274534
    177 S                     0.894322
    178 C                    -0.848333
    179 H                     0.234367
    180 H                     0.262080
    181 H                     0.292607
    182 O                    -0.784865
    183 C                    -0.881059
    184 H                     0.231448
    185 H                     0.279128
    186 H                     0.235000
    187 S                     0.994927
    188 C                    -0.777142
    189 H                     0.228160
    190 H                     0.252973
    191 H                     0.285448
    192 O                    -0.773468
    193 C                    -0.730267
    194 H                     0.314480
    195 H                     0.235387
    196 H                     0.257239
    197 S                     0.379664
    198 C                    -0.630822
    199 H                     0.261045
    200 H                     0.219964
    201 H                     0.312521
    202 O                    -0.667736
    203 C                    -0.804959
    204 H                     0.217465
    205 H                     0.244606
    206 H                     0.304802
    207 S                     0.855676
    208 C                    -0.798393
    209 H                     0.234533
    210 H                     0.245738
    211 H                     0.258924
    212 O                    -0.726310
    213 C                    -0.680318
    214 H                     0.245138
    215 H                     0.302587
    216 H                     0.272718
    217 S                     0.657115
    218 C                    -0.794491
    219 H                     0.253713
    220 H                     0.250361
    221 H                     0.227843
    222 O                    -0.679283
    223 C                    -1.095809
    224 H                     0.316084
    225 H                     0.308505
    226 H                     0.259972
    227 S                     0.984845
    228 C                    -0.870913
    229 H                     0.297839
    230 H                     0.239601
    231 H                     0.258627
    232 O                    -0.709632
    233 C                    -0.877275
    234 H                     0.235064
    235 H                     0.261986
    236 H                     0.243564
    237 S                     0.927161
    238 C                    -0.801358
    239 H                     0.246482
    240 H                     0.236687
    241 H                     0.286405
    242 O                    -0.709417
    243 C                    -0.816980
    244 H                     0.260289
    245 H                     0.230633
    246 H                     0.299259
    247 S                     0.905845
    248 C                    -1.002880
    249 H                     0.256814
    250 H                     0.276571
    251 H                     0.283428
    252 O                    -0.712400
    253 C                    -0.834756
    254 H                     0.273607
    255 H                     0.258495
    256 H                     0.278318
    257 S                     0.603130
    258 C                    -0.904940
    259 H                     0.279495
    260 H                     0.238895
    261 H                     0.258600
    262 O                    -0.589139
    263 C                    -0.895603
    264 H                     0.250148
    265 H                     0.219845
    266 H                     0.241041
    267 S                     0.972734
    268 C                    -0.835764
    269 H                     0.236937
    270 H                     0.302998
    271 H                     0.252678
    272 O                    -0.733387
    273 C                    -1.022566
    274 H                     0.257326
    275 H                     0.286577
    276 H                     0.274526
    277 S                     0.958811
    278 C                    -0.792962
    279 H                     0.267651
    280 H                     0.228163
    281 H                     0.248523
    282 O                    -0.686123
    283 C                    -0.803683
    284 H                     0.268943
    285 H                     0.252328
    286 H                     0.272608
    287 S                     0.049712
    288 C                    -0.275836
    289 H                     0.268735
    290 H                     0.250490
    291 H                     0.259828
    292 O                    -0.545286
    293 C                    -0.762104
    294 H                     0.280655
    295 H                     0.246342
    296 H                     0.239190
    297 S                     0.827440
    298 C                    -0.837504
    299 H                     0.233417
    300 H                     0.254879
    301 H                     0.266346
    302 O                    -0.722180
  ----------------------------------------
  Sum of atomic charges =     0.000000

 -----------------------------------------------------------------
                    Cartesian Multipole Moments
 -----------------------------------------------------------------
    Charge (ESU x 10^10)
                 0.0000
    Dipole Moment (Debye)
         X       5.8658      Y      -0.6529      Z      -7.8534
       Tot       9.8240
    Quadrupole Moments (Debye-Ang)
        XX    -838.7306     XY       8.1525     YY    -995.4265
        XZ    -218.7050     YZ    -330.2875     ZZ   -1373.3910
    Octopole Moments (Debye-Ang^2)
       XXX  -73183.4604    XXY  -23243.3722    XYY  -26891.9154
       YYY  -62790.9197    XXZ  -33938.6328    XYZ  -11208.4809
       YYZ  -35800.8546    XZZ  -38812.6943    YZZ  -37044.6551
       ZZZ  -90810.4264
    Hexadecapole Moments (Debye-Ang^3)
      XXXX ************   XXXY ************   XXYY ************
      XYYY ************   YYYY ************   XXXZ ************
      XXYZ -953745.6280   XYYZ ************   YYYZ ************
      XXZZ ************   XYZZ ************   YYZZ ************
      XZZZ ************   YZZZ ************   ZZZZ ************
 -----------------------------------------------------------------
Archival summary:
[...]
    3  -0.0199201  -0.0798672  -0.0025900  -0.0032947  -0.0234782   0.0200549
          157         158         159         160         161         162
    1   0.0143342  -0.0011442  -0.0069145   0.0217952  -0.0288092  -0.0788452
    2   0.0416122  -0.0067069  -0.0237986  -0.0175815   0.0117733  -0.0048162
    3   0.0248309   0.0059294  -0.0200882   0.0276243   0.0094040  -0.0785539
          163         164         165         166         167         168
    1   0.0006578  -0.0043591   0.0297852  -0.0278269   0.0520676  -0.0018758
    2   0.0062878   0.0121508   0.0140243   0.0134192  -0.0216755   0.0047522
    3  -0.0022158   0.0281076  -0.0072039  -0.0087811   0.0210754  -0.0077184
          169         170         171         172         173         174
    1  -0.0273478   0.0243616  -0.0012969  -0.0965120  -0.0067756  -0.0115727
    2   0.0077100   0.0216821  -0.0325034  -0.0411793  -0.0002191   0.0280755
    3  -0.0174446  -0.0058631  -0.0026330   0.0314712   0.0035409  -0.0114370
          175         176         177         178         179         180
    1  -0.0087791  -0.0138999   0.0315601   0.0003572  -0.0200001   0.0288020
    2  -0.0085116  -0.0086756  -0.0189871  -0.0039490  -0.0284465   0.0018744
    3  -0.0331248   0.0252625  -0.0382960   0.0094177  -0.0098831   0.0211969
          181         182         183         184         185         186
    1  -0.0208162   0.0148263  -0.0073437   0.0273760  -0.0205231  -0.0034248
    2   0.0087673   0.0933966   0.0030164   0.0011496   0.0278768  -0.0143093
    3   0.0223508   0.0565031   0.0048982   0.0096041   0.0126891   0.0264709
          187         188         189         190         191         192
    1   0.0083138  -0.0082509  -0.0014000  -0.0310598  -0.0037801   0.0524713
    2   0.0305797   0.0024619  -0.0228983   0.0259743  -0.0189522  -0.0944834
    3  -0.0399454  -0.0019012   0.0184632   0.0069911  -0.0240788   0.0205089
          193         194         195         196         197         198
    1  -0.0060018   0.0043249  -0.0324657  -0.0014268   0.0124543  -0.0016670
    2   0.0073847   0.0288500  -0.0046264  -0.0009120   0.0211513  -0.0084169
    3   0.0060615  -0.0032992  -0.0024716   0.0290017  -0.0516865   0.0043722
          199         200         201         202         203         204
    1  -0.0100298  -0.0251369   0.0220543   0.0713025   0.0011123  -0.0109464
    2  -0.0095728  -0.0022448  -0.0220441  -0.0064333   0.0092808  -0.0071529
    3   0.0347637  -0.0190802  -0.0138828   0.0826972  -0.0025272  -0.0253867
          205         206         207         208         209         210
    1  -0.0106321   0.0300495   0.0234603  -0.0064158  -0.0249589  -0.0072721
    2   0.0344614   0.0084964  -0.0508029   0.0027176  -0.0097605  -0.0209111
    3   0.0093719  -0.0053699  -0.0168658  -0.0016852  -0.0247087   0.0188487
          211         212         213         214         215         216
    1  -0.0091920   0.0283454  -0.0099492   0.0077618  -0.0101793  -0.0192388
    2   0.0237245   0.0470780   0.0045950   0.0321046   0.0126892  -0.0089188
    3   0.0215126   0.0959942   0.0034539   0.0090024  -0.0280338   0.0242852
          217         218         219         220         221         222
    1  -0.0219932   0.0021054   0.0284998   0.0089887  -0.0124996   0.0703979
    2  -0.0493151   0.0023387  -0.0152254   0.0269746  -0.0150719   0.0649334
    3  -0.0182572   0.0047558   0.0037300   0.0124234   0.0223349  -0.0519003
          223         224         225         226         227         228
    1   0.0047857   0.0359323  -0.0153679   0.0045634   0.0027956  -0.0091129
    2   0.0096749   0.0083153   0.0276542  -0.0059766   0.0079349   0.0038818
    3  -0.0018602  -0.0153722  -0.0155872   0.0289070  -0.0587890   0.0068283
          229         230         231         232         233         234
    1  -0.0178472  -0.0005727   0.0049785   0.0556877  -0.0062106   0.0203029
    2   0.0298899  -0.0301807   0.0049259  -0.0776349   0.0048123   0.0167282
    3  -0.0058112  -0.0126472   0.0332685   0.0516378  -0.0040217  -0.0241296
          235         236         237         238         239         240
    1  -0.0309583  -0.0086969   0.0476300   0.0012811  -0.0260450   0.0202971
    2  -0.0127871   0.0302665   0.0137244  -0.0064907  -0.0121393  -0.0020641
    3  -0.0031247   0.0111223   0.0118465  -0.0054851  -0.0162504  -0.0319320
          241         242         243         244         245         246
    1  -0.0049836  -0.0822999  -0.0096740  -0.0209735  -0.0015419  -0.0193359
    2  -0.0309902  -0.0356036   0.0041765  -0.0177651   0.0231681   0.0181297
    3  -0.0024823   0.0647431  -0.0025592   0.0165045   0.0207943  -0.0272514
          247         248         249         250         251         252
    1   0.0364116  -0.0117309  -0.0125437   0.0146445  -0.0341015   0.0027968
    2   0.0357330  -0.0068133   0.0125601  -0.0164994  -0.0126597  -0.0588481
    3  -0.0153764  -0.0021283  -0.0315804  -0.0137754   0.0142562   0.0956554
          253         254         255         256         257         258
    1   0.0000909  -0.0162912   0.0347783  -0.0228289   0.0387240   0.0062744
    2  -0.0109112  -0.0294555  -0.0152030   0.0138014  -0.0160158   0.0043296
    3  -0.0015528  -0.0136616   0.0080607   0.0092736  -0.0380907  -0.0004063
          259         260         261         262         263         264
    1   0.0415808   0.0084274  -0.0136251  -0.1020250   0.0057734   0.0146611
    2   0.0135696   0.0283370   0.0027215   0.0293426   0.0028015   0.0074647
    3   0.0135867  -0.0175799   0.0187151  -0.0315645   0.0000085   0.0281177
          265         266         267         268         269         270
    1   0.0151336   0.0217105  -0.0304917  -0.0054932   0.0090540  -0.0270914
    2  -0.0301634   0.0177160  -0.0352468  -0.0007824  -0.0302636   0.0012568
    3   0.0030305  -0.0155318   0.0224170  -0.0098878  -0.0110382  -0.0234087
          271         272         273         274         275         276
    1   0.0147984  -0.0036140  -0.0057380  -0.0335561   0.0091424   0.0074729
    2   0.0263306   0.1102130   0.0069560   0.0083188   0.0271671  -0.0086817
    3  -0.0099056   0.0097509  -0.0046491   0.0029242   0.0165666  -0.0316602
          277         278         279         280         281         282
    1  -0.0139434  -0.0027405   0.0123645  -0.0350543   0.0128622   0.1061020
    2  -0.0480204   0.0024165   0.0265440  -0.0014905  -0.0173111   0.0319108
    3  -0.0172228   0.0054900   0.0090325   0.0115307   0.0243094   0.0051865
          283         284         285         286         287         288
    1  -0.0053815  -0.0102733  -0.0315289   0.0314549   0.0352275  -0.0080541
    2  -0.0080408  -0.0062241   0.0053140  -0.0178893   0.0146387   0.0077640
    3   0.0019351   0.0312008  -0.0133690   0.0008827   0.0428080   0.0001753
          289         290         291         292         293         294
    1  -0.0123752   0.0127310  -0.0110733   0.0292011   0.0076993   0.0283041
    2   0.0073627   0.0310274  -0.0209390  -0.0012940  -0.0046981   0.0043147
    3   0.0296675   0.0062247  -0.0275273  -0.1050992   0.0034621   0.0165320
          295         296         297         298         299         300
    1  -0.0055851   0.0082580  -0.0462252   0.0058631   0.0081764  -0.0142984
    2  -0.0327318  -0.0110826  -0.0089047   0.0065542   0.0008308   0.0283405
    3   0.0042142  -0.0296663  -0.0339459  -0.0015628  -0.0331939   0.0031690
          301         302
    1   0.0236443  -0.0058901
    2   0.0054616   0.0230682
    3   0.0210269   0.1077790
  --- DONE ESP SUMMARY ---
Archival summary:
1\1\n0075.mhg0\SP\ProcedureUnspecified\6-31+G*\282856h22\ymao\FriMar1213:56:332021FriMar1213:56:332021\0\\#,ProcedureUnspecified,6-31+G*,\\0,1\S\O,1,1.49685\C,1,1.80661,2,104.836\H,3,1.09324,1,116.362,2,167.539,0\H,3,1.09366,1,102.577,2,-75.0041,0\H,3,1.09379,1,115.005,2,38.1448,0\C,1,1.80761,2,106.857,3,99.4057,0\H,7,1.0924,1,113.071,2,60.661,0\H,7,1.09259,1,117.671,2,-176.527,0\H,7,1.09281,1,104.999,2,-57.5253,0\H,10,2.18994,7,120.692,1,55.4023,0\C,11,1.09305,10,98.6392,7,148.662,0\H,12,1.09304,11,109.409,10,-160.732,0\H,12,1.09351,11,104.634,10,-47.8498,0\S,12,1.8067,11,115.836,10,73.2705,0\O,15,1.49729,12,114.437,11,-49.6388,0\C,15,1.80705,12,105.449,11,70.818,0\H,17,1.09261,15,111.424,12,54.7812,0\H,17,1.09282,15,114.236,12,174.43,0\H,17,1.09333,15,113.692,12,-63.1757,0\H,11,2.31775,10,141.606,7,-55.6121,0\C,21,1.09339,11,134.132,10,88.3577,0\H,22,1.09284,21,107.909,11,-53.8293,0\H,22,1.09321,21,117.568,11,74.4871,0\S,22,1.80677,21,101.855,11,-163.944,0\O,25,1.49745,22,99.5466,21,-55.9324,0\C,25,1.80649,22,96.4908,21,43.9247,0\H,27,1.09237,25,110.288,22,171.978,0\H,27,1.09282,25,111.244,22,-50.2009,0\H,27,1.09342,25,100.675,22,63.2615,0\H,28,2.26092,27,149.322,25,123.878,0\C,31,1.09273,28,118.345,27,-110.682,0\H,32,1.09219,31,114.652,28,160.377,0\H,32,1.09303,31,111.808,28,45.1957,0\S,32,1.80754,31,106.978,28,-71.4529,0\O,35,1.49604,32,99.3356,31,40.7995,0\C,35,1.80803,32,91.5109,31,-63.4914,0\H,37,1.0922,35,109.689,32,-102.261,0\H,37,1.0928,35,107.766,32,13.4158,0\H,37,1.09326,35,103.859,32,126.527,0\H,39,2.18626,37,134.935,35,173.9,0\C,41,1.09245,39,110.617,37,28.2134,0\H,42,1.09279,41,109.32,39,120.735,0\H,42,1.09291,41,105.757,39,0.866555,0\S,42,1.80772,41,109.286,39,-117.483,0\O,45,1.49735,42,106.359,41,-66.705,0\C,45,1.80677,42,98.1944,41,42.375,0\H,47,1.09217,45,105.337,42,-41.4331,0\H,47,1.09303,45,106.522,42,-163.525,0\H,47,1.09349,45,110.16,42,79.8463,0\H,46,2.34949,45,172.889,42,108.345,0\C,51,1.09297,46,143.621,45,3.85819,0\H,52,1.09255,51,109.631,46,-44.4946,0\H,52,1.09297,51,114.625,46,-166.575,0\S,52,1.80705,51,103.532,46,75.1857,0\O,55,1.49718,52,102.198,51,64.824,0\C,55,1.80711,52,98.7782,51,-50.6306,0\H,57,1.09253,55,105.097,52,82.7702,0\H,57,1.0926,55,112.996,52,-33.0509,0\H,57,1.0929,55,111.042,52,-160.728,0\H,53,2.09231,52,111.163,51,-9.46358,0\C,61,1.09311,53,95.6401,52,-143.023,0\H,62,1.09291,61,117.858,53,-74.7856,0\H,62,1.0935,61,105.801,53,47.0215,0\S,62,1.80685,61,107.407,53,164.646,0\O,65,1.49787,62,103.48,61,74.4674,0\C,65,1.80736,62,98.5905,61,179.106,0\H,67,1.09285,65,109.534,62,67.789,0\H,67,1.093,65,105.836,62,-52.5656,0\H,67,1.09324,65,102.507,62,-168.641,0\H,68,2.17698,67,132.053,65,-172.946,0\C,71,1.09313,68,106.084,67,67.3171,0\H,72,1.09203,71,112.179,68,66.7285,0\H,72,1.09313,71,104.122,68,-53.3778,0\S,72,1.80694,71,115.491,68,-178.047,0\O,75,1.49636,72,102.647,71,-77.9243,0\C,75,1.80703,72,92.5034,71,174.092,0\H,77,1.09204,75,104.883,72,50.3472,0\H,77,1.09299,75,107.087,72,173.359,0\H,77,1.09363,75,105.387,72,-65.5954,0\H,78,2.06844,77,128.264,75,161.138,0\C,81,1.09315,78,136.801,77,111.969,0\H,82,1.09264,81,120.885,78,8.48798,0\H,82,1.09342,81,108.714,78,132.495,0\S,82,1.80626,81,106.255,78,-113.855,0\O,85,1.49747,82,103.832,81,-149.591,0\C,85,1.80709,82,96.657,81,-47.4057,0\H,87,1.09269,85,96.2607,82,88.6929,0\H,87,1.09273,85,106.524,82,-36.3993,0\H,87,1.09286,85,114.468,82,-151.449,0\H,84,2.12499,82,120.347,81,-71.3529,0\C,91,1.09281,84,136.19,82,74.4073,0\H,92,1.09258,91,100.361,84,-179.557,0\H,92,1.09351,91,110.681,84,63.8013,0\S,92,1.80651,91,105.107,84,-61.0749,0\O,95,1.49645,92,98.9768,91,-73.8218,0\C,95,1.80659,92,99.7259,91,178.514,0\H,97,1.0928,95,110.692,92,43.2705,0\H,97,1.0931,95,106.911,92,-82.064,0\H,97,1.09325,95,115.431,92,157.575,0\Gh,86,2.15044,85,120.363,82,-19.4524,0\Gh,101,1.01274,86,158.876,85,-136.065,0\Gh,102,1.37841,101,114.277,86,-108.65,0\Gh,103,1.1057,102,113.025,101,13.8323,0\Gh,103,1.21898,102,120.656,101,-175.649,0\Gh,102,1.46172,101,117.518,86,82.476,0\Gh,106,1.09653,102,112.817,101,-169.951,0\Gh,106,1.53721,102,108.189,101,-54.6839,0\Gh,108,1.09676,106,106.294,102,-64.2103,0\Gh,108,1.09742,106,105.852,102,50.4568,0\Gh,106,1.53795,102,113.249,101,72.5206,0\Gh,111,1.09662,106,110.814,102,59.6282,0\Gh,111,1.09673,106,102.743,102,-54.2245,0\Gh,111,1.53736,106,113.58,102,-172.727,0\Gh,114,1.09705,111,111.926,106,-68.1594,0\Gh,114,1.09725,111,115.458,106,173.573,0\Gh,114,1.53767,111,109.984,106,56.7438,0\Gh,117,1.09629,114,111.614,111,55.4282,0\Gh,117,1.09713,114,110.347,111,169.18,0\Gh,117,1.53754,114,110.761,111,-57.0872,0\Gh,120,1.09639,117,101.282,114,166.46,0\Gh,120,1.09681,117,110.923,114,-81.3551,0\H,119,2.16188,117,163.131,114,102.316,0\C,123,1.09287,119,151.887,117,-42.6802,0\H,124,1.09311,123,105.033,119,-148.895,0\H,124,1.09328,123,107.28,119,-25.7978,0\S,124,1.80662,123,104.938,119,92.7917,0\O,127,1.49703,124,106.07,123,46.0284,0\C,127,1.80768,124,98.7123,123,-56.8438,0\H,129,1.09257,127,111.935,124,-38.6491,0\H,129,1.09261,127,103.871,124,83.927,0\H,129,1.09331,127,106.968,124,-157.23,0\H,131,1.96748,129,152.924,127,40.5557,0\C,133,1.09323,131,135.075,129,76.9394,0\H,134,1.09249,133,110.269,131,-57.7563,0\H,134,1.09299,133,110.531,131,-177.482,0\S,134,1.80746,133,106.691,131,58.4657,0\O,137,1.49654,134,105.597,133,-75.1288,0\C,137,1.80731,134,101.796,133,174.636,0\H,139,1.09235,137,111.39,134,174.748,0\H,139,1.0929,137,105.244,134,-62.7763,0\H,139,1.09382,137,112.123,134,50.0389,0\H,93,2.19574,92,116.358,91,-55.8978,0\C,143,1.09286,93,128.433,92,-162.512,0\H,144,1.09274,143,107.13,93,15.9386,0\H,144,1.09287,143,105.319,93,-92.8507,0\S,144,1.807,143,106.154,93,143.697,0\O,147,1.49737,144,101.133,143,176.38,0\C,147,1.80697,144,97.8393,143,-80.6471,0\H,149,1.09271,147,116.395,144,-49.6461,0\H,149,1.09276,147,101.881,144,70.9138,0\H,149,1.0933,147,111.391,144,-178.054,0\H,151,1.99679,149,141.617,147,74.4647,0\C,153,1.09257,151,140.689,149,-64.2871,0\H,154,1.09272,153,103.194,151,174.719,0\H,154,1.0928,153,105.615,151,55.4736,0\S,154,1.80786,153,117,151,-67.6007,0\O,157,1.49749,154,100.499,153,-65.7965,0\C,157,1.80696,154,103.428,153,-175.499,0\H,159,1.09228,157,112.542,154,56.6625,0\H,159,1.0927,157,106.115,154,-61.5479,0\H,159,1.09346,157,104.271,154,179.287,0\H,146,2.16829,144,113.739,143,166.324,0\C,163,1.09373,146,154.665,144,28.603,0\H,164,1.09249,163,119.864,146,6.04616,0\H,164,1.09283,163,116.606,146,-122.055,0\S,164,1.80678,163,108.004,146,126.887,0\O,167,1.49698,164,101.483,163,178.351,0\C,167,1.80721,164,90.7932,163,-74.4621,0\H,169,1.0928,167,108.351,164,-44.2292,0\H,169,1.09303,167,106.874,164,75.1775,0\H,169,1.09339,167,114.629,164,-179.52,0\H,171,2.26156,169,165.713,167,66.4932,0\C,173,1.09319,171,104.274,169,-36.7005,0\H,174,1.09258,173,111.298,171,-33.3007,0\H,174,1.09338,173,106.055,171,-147.764,0\S,174,1.80653,173,121.624,171,91.5205,0\O,177,1.49752,174,105.081,173,-54.0937,0\C,177,1.80661,174,93.3629,173,52.7167,0\H,179,1.09287,177,100.457,174,75.8368,0\H,179,1.09304,177,112.298,174,-43.3562,0\H,179,1.0931,177,107.822,174,-163.399,0\O,132,2.30952,129,121.714,127,72.1012,0\S,183,1.49669,132,145.735,129,-36.4058,0\C,184,1.80659,183,108.065,132,-23.6491,0\H,185,1.09266,184,103.56,183,67.7685,0\H,185,1.09267,184,108.584,183,-44.5046,0\H,185,1.09353,184,109.372,183,-167.87,0\C,184,1.80689,183,102.302,132,-128.583,0\H,189,1.09216,184,105.623,183,-69.6619,0\H,189,1.09318,184,109.769,183,171.622,0\H,189,1.09386,184,110.749,183,50.8429,0\H,178,2.35013,177,113.606,174,72.6873,0\C,193,1.09298,178,109.601,177,119.784,0\H,194,1.09297,193,118.593,178,81.5886,0\H,194,1.09354,193,105.319,178,-44.7797,0\S,194,1.80758,193,107.159,178,-155.466,0\O,197,1.49708,194,102.199,193,-61.8203,0\C,197,1.80668,194,93.4944,193,-167.04,0\H,199,1.09259,197,105.751,194,175.004,0\H,199,1.09266,197,110.238,194,-60.7287,0\H,199,1.09344,197,111.028,194,55.5577,0\H,181,2.3512,179,120.84,177,145.363,0\C,203,1.09313,181,144.084,179,71.3379,0\H,204,1.09195,203,118.078,181,-50.0014,0\H,204,1.09305,203,108.39,181,-171.693,0\S,204,1.8073,203,109.663,181,79.9781,0\O,207,1.49713,204,100.838,203,159.242,0\C,207,1.80765,204,88.5096,203,-86.1118,0\H,209,1.0921,207,107.899,204,-54.7578,0\H,209,1.09298,207,106.104,204,-172.056,0\H,209,1.0934,207,113.039,204,64.2027,0\H,205,2.05067,204,106.586,203,-116.69,0\C,213,1.09234,205,173.789,204,-92.5984,0\H,214,1.09305,213,112.279,205,87.0423,0\H,214,1.09322,213,112.847,205,-145.725,0\S,214,1.80666,213,111.599,205,-32.2518,0\O,217,1.49644,214,105.497,213,166.914,0\C,217,1.80713,214,97.9167,213,64.9579,0\H,219,1.09287,217,107.554,214,163.312,0\H,219,1.09287,217,105.8,214,42.0235,0\H,219,1.09296,217,109.442,214,-72.9354,0\H,205,2.20786,204,162.723,203,98.2299,0\C,223,1.09256,205,122.508,204,-159.854,0\H,224,1.09309,223,106.044,205,-178.665,0\H,224,1.09321,223,109.549,205,-53.0285,0\S,224,1.80657,223,109.383,205,64.5788,0\O,227,1.49773,224,100.842,223,-59.0478,0\C,227,1.80756,224,97.1164,223,-162.091,0\H,229,1.09238,227,109.951,224,87.7689,0\H,229,1.09278,227,107.725,224,-32.9353,0\H,229,1.09309,227,105.699,224,-154.616,0\H,215,2.32559,214,135.437,213,-145.406,0\C,233,1.09324,215,165.162,214,150.757,0\H,234,1.09283,233,112.678,215,-10.6557,0\H,234,1.09299,233,120.947,215,-139.923,0\S,234,1.80672,233,104.958,215,102.186,0\O,237,1.49712,234,101.828,233,115.717,0\C,237,1.80708,234,94.8893,233,2.9411,0\H,239,1.09279,237,112.845,234,69.1552,0\H,239,1.0931,237,100.41,234,-168.676,0\H,239,1.09347,237,110.225,234,-55.6534,0\O,235,2.36892,234,128.031,233,128.54,0\S,243,1.49662,235,109.86,234,-150.05,0\C,244,1.80641,243,101.754,235,-124.09,0\H,245,1.09273,244,104.82,243,169.195,0\H,245,1.09306,244,102.593,243,-75.5041,0\H,245,1.09311,244,112.324,243,47.7777,0\C,244,1.80684,243,105.67,235,-17.5238,0\H,249,1.09267,244,118.736,243,-39.1653,0\H,249,1.09341,244,108.123,243,80.6248,0\H,249,1.09354,244,105.808,243,-164.601,0\H,68,2.39225,67,116.724,65,42.755,0\C,253,1.09233,68,109.335,67,-147.862,0\H,254,1.09276,253,104.92,68,-36.3267,0\H,254,1.09364,253,113.358,68,-157.609,0\S,254,1.8072,253,112.373,68,83.4911,0\O,257,1.49786,254,101.14,253,70.9327,0\C,257,1.8065,254,102.133,253,174.921,0\H,259,1.09233,257,109.171,254,-78.6635,0\H,259,1.09294,257,106.493,254,157.954,0\H,259,1.0931,257,104.761,254,39.477,0\H,130,2.43979,129,125.827,127,-53.3743,0\C,263,1.09289,130,113.478,129,158.702,0\H,264,1.0928,263,110.847,130,153.098,0\H,264,1.09308,263,122.876,130,-82.0211,0\S,264,1.807,263,104.264,130,39.3457,0\O,267,1.49678,264,101.864,263,-164.382,0\C,267,1.80693,264,100.418,263,82.9274,0\H,269,1.09269,267,102.229,264,90.2549,0\H,269,1.09274,267,107.833,264,-29.5485,0\H,269,1.0933,267,107.444,264,-148.971,0\H,128,2.48749,127,149.445,124,149.691,0\C,273,1.09343,128,162.95,127,-115.868,0\H,274,1.09213,273,111.848,128,124.703,0\H,274,1.09344,273,106.76,128,5.31483,0\S,274,1.80792,273,105.895,128,-110.958,0\O,277,1.49694,274,104.178,273,-84.0781,0\C,277,1.80728,274,88.3931,273,175.43,0\H,279,1.09213,277,106.448,274,160.073,0\H,279,1.09289,277,110.138,274,-71.0592,0\H,279,1.09335,277,101.677,274,45.6725,0\H,173,2.55626,171,75.004,169,151.994,0\C,283,1.09289,173,123.109,171,-69.422,0\H,284,1.09218,283,102.29,173,126.501,0\H,284,1.09309,283,118.691,173,4.92625,0\S,284,1.80709,283,105.521,173,-116.319,0\O,287,1.49766,284,106.002,283,-68.4649,0\C,287,1.80767,284,95.5573,283,-169.962,0\H,289,1.09277,287,106.84,284,66.0824,0\H,289,1.09284,287,109.525,284,-169.3,0\H,289,1.09307,287,106.199,284,-53.407,0\H,291,2.11028,289,131.737,287,-3.67131,0\C,293,1.0928,291,148.439,289,-118.392,0\H,294,1.0931,293,109.654,291,-57.4156,0\H,294,1.09367,293,109.577,291,-179.003,0\S,294,1.80702,293,114.088,291,53.1749,0\O,297,1.49671,294,104.782,293,-164.29,0\C,297,1.80775,294,98.0806,293,-62.5456,0\H,299,1.09252,297,105.46,294,-63.4917,0\H,299,1.09279,297,103.681,294,50.5637,0\H,299,1.09337,297,111.369,294,170.639,0\\\@

 Total job time:  75.17s(wall), 243.99s(cpu) 
 Fri Mar 12 13:56:33 2021

        *************************************************************
        *                                                           *
        *  Thank you very much for using Q-Chem.  Have a nice day.  *
        *                                                           *
        *************************************************************


