                  Welcome to Q-Chem
     A Quantum Leap Into The Future Of Chemistry


 Q-Chem 5.2 (devel), Q-Chem, Inc., Pleasanton, CA (2019)

 Yihan Shao,  Zhengting Gan,  E. Epifanovsky,  A. T. B. Gilbert,  M. Wormit,  
 J. Kussmann,  A. W. Lange,  A. Behn,  Jia Deng,  Xintian Feng,  D. Ghosh,  
 M. Goldey,  P. R. Horn,  L. D. Jacobson,  I. Kaliman,  T. Kus,  A. Landau,  
 Jie Liu,  E. I. Proynov,  R. M. Richard,  R. P. Steele,  E. J. Sundstrom,  
 H. L. Woodcock III,  P. M. Zimmerman,  D. Zuev,  B. Alam,  B. Albrecht,  
 E. Alguire,  S. A. Baeppler,  D. Barton,  Z. Benda,  Y. A. Bernard,  
 E. J. Berquist,  K. B. Bravaya,  H. Burton,  K. Carter-Fenk,  D. Casanova,  
 Chun-Min Chang,  Yunqing Chen,  A. Chien,  K. D. Closser,  M. P. Coons,  
 S. Coriani,  S. Dasgupta,  A. L. Dempwolff,  M. Diedenhofen,  Hainam Do,  
 R. G. Edgar,  Po-Tung Fang,  S. Faraji,  S. Fatehi,  Qingguo Feng,  
 J. Fosso-Tande,  J. Gayvert,  Qinghui Ge,  A. Ghysels,  G. Gidofalvi,  
 J. Gomes,  J. Gonthier,  A. Gunina,  D. Hait,  M. W. D. Hanson-Heine,  
 P. H. P. Harbach,  A. W. Hauser,  M. F. Herbst,  J. E. Herr,  
 E. G. Hohenstein,  Z. C. Holden,  Kerwin Hui,  B. C. Huynh,  T.-C. Jagau,  
 Hyunjun Ji,  B. Kaduk,  K. Khistyaev,  Jaehoon Kim,  P. Klunzinger,  K. Koh,  
 D. Kosenkov,  L. Koulias,  T. Kowalczyk,  C. M. Krauter,  A. Kunitsa,  
 Ka Un Lao,  A. Laurent,  K. V. Lawler,  Joonho Lee,  D. Lefrancois,  
 S. Lehtola,  D. S. Levine,  Yi-Pei Li,  You-Sheng Lin,  Fenglai Liu,  
 Kuan-Yu Liu,  E. Livshits,  M. Loipersberger,  A. Luenser,  P. Manohar,  
 E. Mansoor,  S. F. Manzer,  Shan-Ping Mao,  Yuezhi Mao,  N. Mardirossian,  
 A. V. Marenich,  T. Markovich,  L. A. Martinez-Martinez,  S. A. Maurer,  
 N. J. Mayhall,  S. C. McKenzie,  J.-M. Mewes,  P. Morgante,  A. F. Morrison,  
 J. W. Mullinax,  K. Nanda,  T. S. Nguyen-Beck,  R. Olivares-Amaya,  
 J. A. Parkhill,  S. K. Paul,  F. Pavosevic,  Zheng Pei,  T. M. Perrine,  
 F. Plasser,  P. Pokhilko,  S. Prager,  A. Prociuk,  E. Ramos,  B. Rana,  
 D. R. Rehn,  F. Rob,  M. Scheurer,  M. Schneider,  N. Sergueev,  
 S. M. Sharada,  S. Sharma,  D. W. Small,  T. Stauch,  C. J. Stein,  
 T. Stein,  Yu-Chuan Su,  S. P. Veccham,  Zhen Tao,  A. J. W. Thom,  
 A. Tkatchenko,  T. Tsuchimochi,  N. M. Tubman,  L. Vogt,  M. L. Vidal,  
 O. Vydrov,  M. A. Watson,  J. Wenzel,  M. de Wergifosse,  T. A. Wesolowski,  
 A. White,  J. Witte,  A. Yamada,  Jun Yang,  K. Yao,  S. Yeganeh,  
 S. R. Yost,  Zhi-Qiang You,  A. Zech,  Igor Ying Zhang,  Xing Zhang,  
 Yan Zhao,  Ying Zhu,  B. R. Brooks,  G. K. L. Chan,  C. J. Cramer,  
 M. S. Gordon,  W. J. Hehre,  A. Klamt,  M. W. Schmidt,  C. D. Sherrill,  
 D. G. Truhlar,  A. Aspuru-Guzik,  R. Baer,  A. T. Bell,  N. A. Besley,  
 Jeng-Da Chai,  A. E. DePrince, III,  R. A. DiStasio Jr.,  A. Dreuw,  
 B. D. Dunietz,  T. R. Furlani,  Chao-Ping Hsu,  Yousung Jung,  Jing Kong,  
 D. S. Lambrecht,  WanZhen Liang,  C. Ochsenfeld,  V. A. Rassolov,  
 L. V. Slipchenko,  J. E. Subotnik,  T. Van Voorhis,  J. M. Herbert,  
 A. I. Krylov,  P. M. W. Gill,  M. Head-Gordon

 Contributors to earlier versions of Q-Chem not listed above: 
 R. D. Adamson,  B. Austin,  J. Baker,  G. J. O. Beran,  K. Brandhorst,  
 S. T. Brown,  E. F. C. Byrd,  A. K. Chakraborty,  C.-L. Cheng,  
 Siu Hung Chien,  D. M. Chipman,  D. L. Crittenden,  H. Dachsel,  
 R. J. Doerksen,  A. D. Dutoi,  L. Fusti-Molnar,  W. A. Goddard III,  
 A. Golubeva-Zadorozhnaya,  S. R. Gwaltney,  G. Hawkins,  A. Heyden,  
 S. Hirata,  G. Kedziora,  F. J. Keil,  C. Kelley,  Jihan Kim,  R. A. King,  
 R. Z. Khaliullin,  P. P. Korambath,  W. Kurlancheek,  A. M. Lee,  M. S. Lee,  
 S. V. Levchenko,  Ching Yeh Lin,  D. Liotard,  R. C. Lochan,  I. Lotan,  
 P. E. Maslen,  N. Nair,  D. P. O'Neill,  D. Neuhauser,  E. Neuscamman,  
 C. M. Oana,  R. Olson,  B. Peters,  R. Peverati,  P. A. Pieniazek,  
 Y. M. Rhee,  J. Ritchie,  M. A. Rohrdanz,  E. Rosta,  N. J. Russ,  
 H. F. Schaefer III,  N. E. Schultz,  N. Shenvi,  A. C. Simmonett,  A. Sodt,  
 D. Stuck,  K. S. Thanthiriwatte,  V. Vanovschi,  Tao Wang,  A. Warshel,  
 C. F. Williams,  Q. Wu,  X. Xu,  W. Zhang

 Please cite Q-Chem as follows:
 Y. Shao et al., Mol. Phys. 113, 184-215 (2015)
 DOI: 10.1080/00268976.2014.952696

 Q-Chem 5.2.2 for Intel X86 EM64T Linux

 Parts of Q-Chem use Armadillo 9.800.1 (Horizon Scraper).
 http://arma.sourceforge.net/

 Q-Chem begins on Thu Mar 11 13:37:42 2021  

Host: n0094.mhg0
0

     Scratch files written to /local/scratch/users/ymao/r7.00_frame_0008_almo_B3LYP_dp.in20210311133740//

Checking the input file for inconsistencies... 	...done.

--------------------------------------------------------------
User input:
--------------------------------------------------------------
$molecule
0 1
--
0 1
C    20.99300   21.13700   28.65100  
C    21.73200   20.35800   29.75100  
C    22.67600   19.35200   29.07200  
C    23.67500   20.05200   28.13600  
C    22.92900   20.84700   27.05200  
C    21.96800   21.85500   27.70300  
H    23.14400   18.71200   29.83100  
H    22.45000   20.94600   30.33500  
H    20.31700   20.50800   28.05800  
H    20.34200   21.87200   29.14000  
H    24.23900   20.76800   28.74600  
H    24.45000   19.38600   27.73800  
H    23.71100   21.39300   26.51100  
H    22.41200   20.16800   26.36200  
H    22.60300   22.53800   28.27900  
H    21.35800   22.38600   26.96300  
H    22.11200   18.66300   28.43100  
N    20.74600   19.67900   30.58900  
H    20.07000   19.09000   30.11700  
C    20.58500   19.93300   31.93500  
H    19.74100   19.37600   32.38200  
O    21.30800   20.65900   32.59400  
--
0 1
C    25.37300   24.72000   28.87900  
H    26.12500   24.22900   28.25500  
H    25.20300   24.05200   29.72700  
H    24.43800   25.00200   28.38800  
S    26.22700   26.20400   29.45700  
C    24.93900   26.69500   30.62600  
H    24.91300   26.09200   31.53800  
H    25.08100   27.73100   30.94200  
H    24.05200   26.67500   29.98700  
O    26.03800   27.27100   28.42500  
C    16.93500   25.90500   24.79400  
H    16.30400   25.35100   25.49400  
H    17.31900   26.78100   25.32300  
H    16.28100   26.28100   24.00400  
S    18.21400   24.88100   24.03200  
C    19.30400   26.17000   23.38800  
H    19.54600   26.85500   24.20500  
H    20.16100   25.74100   22.86300  
H    18.70900   26.59800   22.57700  
O    17.57900   24.34500   22.78700  
C    17.54400   20.49400   21.99100  
H    18.30500   21.00900   21.40000  
H    17.42700   19.44800   21.69700  
H    16.57700   20.99900   21.91900  
S    18.06600   20.59500   23.71800  
C    19.57500   19.61800   23.52700  
H    20.21700   19.97100   22.71600  
H    20.14700   19.68100   24.45600  
H    19.45000   18.55000   23.33300  
O    17.10100   19.71900   24.45500  
C    24.79000   16.20900   30.00700  
H    25.76900   16.21900   29.52100  
H    24.62300   17.16700   30.50700  
H    24.76200   15.32300   30.64600  
S    23.57000   16.04500   28.68400  
C    22.22300   16.05400   29.88800  
H    22.34600   16.91400   30.55000  
H    21.26300   16.00600   29.36700  
H    22.50300   15.19000   30.49600  
O    23.78600   14.60100   28.35200  
C    24.17900   12.50500   31.77500  
H    24.34600   11.85900   32.64100  
H    24.84300   12.20400   30.96100  
H    24.18500   13.56900   32.02300  
S    22.48000   12.33600   31.18400  
C    21.60500   12.54800   32.75100  
H    20.62000   12.09600   32.60400  
H    22.20500   12.15400   33.57500  
H    21.50000   13.62000   32.93500  
O    22.35200   10.89700   30.79200  
C    30.63300   17.14000   30.12000  
H    31.50000   16.49400   29.96300  
H    30.66900   17.98800   29.43200  
H    30.54900   17.51800   31.14200  
S    29.18400   16.09900   29.83400  
C    29.42100   15.66800   28.09500  
H    29.46100   16.54600   27.44600  
H    30.31200   15.04400   27.98800  
H    28.57700   15.05500   27.77000  
O    27.98200   16.99000   29.88200  
C    25.04600   22.22500   35.94300  
H    26.06700   21.83900   35.99700  
H    24.71300   21.97700   34.93200  
H    25.01100   23.30000   36.13900  
S    23.85800   21.57800   37.14000  
C    24.63800   22.34000   38.58100  
H    25.64500   21.91600   38.58900  
H    24.77700   23.42400   38.59500  
H    24.06700   21.97300   39.43800  
O    24.26500   20.13900   37.20600  
C    20.87000   23.32100   37.29400  
H    20.75200   22.40900   37.88500  
H    20.86100   23.10800   36.22200  
H    21.83800   23.77200   37.52700  
S    19.64100   24.63700   37.45100  
C    18.21600   23.81100   36.70800  
H    18.21300   22.76600   37.02900  
H    17.24700   24.24600   36.96600  
H    18.28500   23.73900   35.62000  
O    20.09300   25.59100   36.39000  
C    18.49200   20.37500   35.17900  
H    18.76900   19.31900   35.12400  
H    19.26100   20.93300   34.63800  
H    18.57700   20.76100   36.19800  
S    16.78800   20.55000   34.60300  
C    16.22100   18.96000   35.24700  
H    17.00100   18.19300   35.23700  
H    15.87600   19.17000   36.26200  
H    15.32100   18.71400   34.67800  
O    16.93800   20.13300   33.17300  
C    16.79300   20.69100   29.75200  
H    16.00400   20.02600   29.39300  
H    17.74800   20.34000   29.35100  
H    16.84600   20.85200   30.83200  
S    16.61600   22.29900   28.94800  
C    17.33800   22.01200   27.31600  
H    17.17800   22.87200   26.66200  
H    18.42300   21.88200   27.29200  
H    16.92900   21.16300   26.76200  
O    17.62600   23.06700   29.74300  
C    19.63200   16.91500   26.13600  
H    19.59300   17.15900   27.20000  
H    20.62200   17.06100   25.69700  
H    18.95000   17.45200   25.47100  
S    19.25000   15.14900   26.14400  
C    20.83100   14.45800   26.68000  
H    21.61000   15.21300   26.54300  
H    20.85200   14.21900   27.74700  
H    21.08400   13.53600   26.15100  
O    19.30600   14.77000   24.69700  
C    26.63900   19.73500   30.79100  
H    26.28900   18.90600   31.41200  
H    25.96700   20.05600   29.99000  
H    27.60300   19.48600   30.33900  
S    26.77000   21.22900   31.79700  
C    25.00600   21.28300   32.18900  
H    24.69900   22.31500   32.37500  
H    24.44700   21.00800   31.29100  
H    24.76800   20.68500   33.07200  
O    26.78800   22.39300   30.85500  
C    16.33100   16.96900   26.23700  
H    16.88300   16.30100   25.57100  
H    16.55400   18.02300   26.04900  
H    16.48100   16.85200   27.31400  
S    14.60100   16.84000   25.73100  
C    13.91400   17.66300   27.18600  
H    13.88000   16.88500   27.95400  
H    14.47900   18.54700   27.49200  
H    12.93600   18.00900   26.84100  
O    14.33500   15.42800   26.15100  
C    20.29400   24.60800   32.78500  
H    19.54400   23.82600   32.64200  
H    21.33500   24.28100   32.84600  
H    20.18900   25.07100   33.76900  
S    20.19800   25.78100   31.41400  
C    20.51200   24.52800   30.15000  
H    20.39100   24.88400   29.12300  
H    21.52300   24.15200   30.32400  
H    19.91000   23.63600   30.33600  
O    21.55500   26.41200   31.45400  
C    23.26300   25.30500   34.70100  
H    23.37500   25.03200   33.64900  
H    23.63000   24.57700   35.42900  
H    22.21300   25.37400   34.99700  
S    24.12600   26.87500   34.93700  
C    23.02600   27.89700   33.93100  
H    23.43700   28.90700   34.00700  
H    23.01900   27.56100   32.89100  
H    22.05800   27.99900   34.42800  
O    25.35900   26.78500   34.09200  
C    17.19500   14.74700   34.94400  
H    16.67800   13.79300   34.81300  
H    17.36500   14.95200   36.00400  
H    16.64500   15.53800   34.42700  
S    18.87700   14.76500   34.28500  
C    19.62300   13.82800   35.63800  
H    19.20000   12.82300   35.55600  
H    20.71200   13.83300   35.54800  
H    19.30700   14.21400   36.61000  
O    19.32600   16.19200   34.32700  
C    23.61600   17.98800   33.72500  
H    24.65700   17.68200   33.59700  
H    23.20700   18.62400   32.93500  
H    23.56400   18.66400   34.58300  
S    22.56400   16.56000   34.06800  
C    23.50800   16.07900   35.53200  
H    24.53100   15.75500   35.32600  
H    23.45500   16.85600   36.30000  
H    22.99700   15.21800   35.97000  
O    22.89700   15.53600   33.02800  
C    23.68000   22.29700   23.58900  
H    24.02900   23.06300   24.28700  
H    23.35900   21.35900   24.04900  
H    24.53300   22.03200   22.95900  
S    22.34300   22.81900   22.49200  
C    21.17600   22.98400   23.86100  
H    20.21100   23.21500   23.40400  
H    20.98400   22.08300   24.45000  
H    21.51500   23.81000   24.49100  
O    21.69900   21.63800   21.83600  
C    20.67800   18.36900   37.28000  
H    21.10800   17.95300   36.36600  
H    19.88000   19.07500   37.03600  
H    21.52300   18.81700   37.80800  
S    19.86400   17.04100   38.19700  
C    19.26700   17.97400   39.62500  
H    20.09100   18.03200   40.34000  
H    18.99900   18.98500   39.30800  
H    18.45600   17.44000   40.12700  
O    20.90200   16.17600   38.84100  
C    27.70100   25.44800   25.94900  
H    26.73300   25.95500   25.98100  
H    28.09900   25.26100   26.95000  
H    28.39500   26.11800   25.43500  
S    27.41900   24.00100   24.90400  
C    26.77500   25.09600   23.62000  
H    25.96300   25.76800   23.91000  
H    27.55200   25.73500   23.19300  
H    26.48500   24.42500   22.80700  
O    26.16700   23.38100   25.44200  
C    26.82900   16.02700   32.89100  
H    25.83800   16.36800   32.58200  
H    27.25700   15.38400   32.11800  
H    26.66900   15.60400   33.88700  
S    27.86000   17.49500   33.11000  
C    29.12200   16.74900   34.16700  
H    28.73700   16.59500   35.17800  
H    29.61900   15.84600   33.80400  
H    29.76300   17.63000   34.24500  
O    27.00400   18.30000   34.03800  
C    23.56500   18.84800   22.56800  
H    24.39300   19.52600   22.79000  
H    23.54600   18.34000   21.60000  
H    22.67900   19.46900   22.71900  
S    23.39100   17.45400   23.70500  
C    21.88600   16.79500   22.95300  
H    21.22700   17.54800   22.51300  
H    22.21600   16.02300   22.25300  
H    21.45400   16.37800   23.86600  
O    22.94000   18.07900   24.98900  
C    21.24400   27.84500   26.38900  
H    20.46600   28.15100   27.09300  
H    22.11600   28.50300   26.40000  
H    20.80700   27.66000   25.40400  
S    21.96500   26.27900   26.93100  
C    23.05100   26.09300   25.49900  
H    23.55600   25.12400   25.51400  
H    22.47800   26.18500   24.57300  
H    23.75000   26.93000   25.57000  
O    20.96400   25.18000   26.74800  
C    27.78300   18.97700   25.36900  
H    28.24000   19.25300   24.41500  
H    27.12800   19.81000   25.63600  
H    28.47500   18.99800   26.21500  
S    27.12600   17.33400   25.00500  
C    26.43200   17.03900   26.64800  
H    26.38100   15.95800   26.80200  
H    27.16600   17.56900   27.26100  
H    25.52900   17.63700   26.79600  
O    28.42300   16.58600   25.02100  
C    17.83400   26.53900   28.60800  
H    17.95100   25.62500   29.19700  
H    17.74900   26.12200   27.60100  
H    18.75400   27.12700   28.64900  
S    16.31700   27.44900   28.97600  
C    15.34600   25.94300   28.74700  
H    15.65400   25.05100   29.29700  
H    14.30900   26.18400   28.99800  
H    15.38000   25.73200   27.67500  
O    16.06600   28.25500   27.73900  
C    17.15800   17.50900   31.68200  
H    17.95600   17.81500   32.36500  
H    16.42200   18.31200   31.59600  
H    16.58600   16.69500   32.13400  
S    17.70100   16.98900   30.03900  
C    18.64200   15.54200   30.57400  
H    19.20400   15.15700   29.71900  
H    19.43400   15.87700   31.24900  
H    18.11800   14.78200   31.15800  
O    18.72200   18.01200   29.65000  
C    14.66700   23.57400   33.83400  
H    15.16200   24.06600   34.67500  
H    13.62000   23.82000   34.02900  
H    14.68200   22.48100   33.87300  
S    15.24700   24.06500   32.19500  
C    16.98500   23.97600   32.68100  
H    17.06700   24.56600   33.59700  
H    17.24600   22.91600   32.74300  
H    17.52300   24.37700   31.81800  
O    14.95000   25.53000   32.12200  
C    28.71700   22.09600   27.43500  
H    29.23900   21.93400   26.48800  
H    27.72900   21.62900   27.43200  
H    28.67700   23.17700   27.59200  
S    29.69600   21.48900   28.82700  
C    31.23000   22.37100   28.46100  
H    31.09600   23.42600   28.20900  
H    31.82400   22.22800   29.36700  
H    31.58600   21.82200   27.58500  
O    30.05600   20.20800   28.14100  
$end

$rem
JOBTYPE  SP
METHOD  B3LYP
BASIS  6-31+G(D)
SYMMETRY  FALSE
SYM_IGNORE  TRUE
MEM_TOTAL  16000
MEM_STATIC  8000
MAX_SUB_FILE_NUM  16000
BASIS_LIN_DEP_THRESH  6
THRESH  14
SCF_CONVERGENCE  8
GEN_SCFMAN  TRUE
SCF_GUESS  FRAGMO
FD_MAT_VEC_PROD  FALSE
XC_GRID  000075000302
NL_GRID  1
MAX_SCF_CYCLES  200
FRGM_METHOD  STOLL
SCFMI_MODE  1
$end

$development
almo_efield  1
$end

$rem_frgm
SCF_CONVERGENCE  4
$end

--------------------------------------------------------------
 ----------------------------------------------------------------
             Standard Nuclear Orientation (Angstroms)
    I     Atom           X                Y                Z
 ----------------------------------------------------------------
    1      C      20.9930000000    21.1370000000    28.6510000000
    2      C      21.7320000000    20.3580000000    29.7510000000
    3      C      22.6760000000    19.3520000000    29.0720000000
    4      C      23.6750000000    20.0520000000    28.1360000000
    5      C      22.9290000000    20.8470000000    27.0520000000
    6      C      21.9680000000    21.8550000000    27.7030000000
    7      H      23.1440000000    18.7120000000    29.8310000000
    8      H      22.4500000000    20.9460000000    30.3350000000
    9      H      20.3170000000    20.5080000000    28.0580000000
   10      H      20.3420000000    21.8720000000    29.1400000000
   11      H      24.2390000000    20.7680000000    28.7460000000
   12      H      24.4500000000    19.3860000000    27.7380000000
   13      H      23.7110000000    21.3930000000    26.5110000000
   14      H      22.4120000000    20.1680000000    26.3620000000
   15      H      22.6030000000    22.5380000000    28.2790000000
   16      H      21.3580000000    22.3860000000    26.9630000000
   17      H      22.1120000000    18.6630000000    28.4310000000
   18      N      20.7460000000    19.6790000000    30.5890000000
   19      H      20.0700000000    19.0900000000    30.1170000000
   20      C      20.5850000000    19.9330000000    31.9350000000
   21      H      19.7410000000    19.3760000000    32.3820000000
   22      O      21.3080000000    20.6590000000    32.5940000000
   23      C      25.3730000000    24.7200000000    28.8790000000
   24      H      26.1250000000    24.2290000000    28.2550000000
   25      H      25.2030000000    24.0520000000    29.7270000000
   26      H      24.4380000000    25.0020000000    28.3880000000
   27      S      26.2270000000    26.2040000000    29.4570000000
   28      C      24.9390000000    26.6950000000    30.6260000000
   29      H      24.9130000000    26.0920000000    31.5380000000
   30      H      25.0810000000    27.7310000000    30.9420000000
   31      H      24.0520000000    26.6750000000    29.9870000000
   32      O      26.0380000000    27.2710000000    28.4250000000
   33      C      16.9350000000    25.9050000000    24.7940000000
   34      H      16.3040000000    25.3510000000    25.4940000000
   35      H      17.3190000000    26.7810000000    25.3230000000
   36      H      16.2810000000    26.2810000000    24.0040000000
   37      S      18.2140000000    24.8810000000    24.0320000000
   38      C      19.3040000000    26.1700000000    23.3880000000
   39      H      19.5460000000    26.8550000000    24.2050000000
   40      H      20.1610000000    25.7410000000    22.8630000000
   41      H      18.7090000000    26.5980000000    22.5770000000
   42      O      17.5790000000    24.3450000000    22.7870000000
   43      C      17.5440000000    20.4940000000    21.9910000000
   44      H      18.3050000000    21.0090000000    21.4000000000
   45      H      17.4270000000    19.4480000000    21.6970000000
   46      H      16.5770000000    20.9990000000    21.9190000000
   47      S      18.0660000000    20.5950000000    23.7180000000
   48      C      19.5750000000    19.6180000000    23.5270000000
   49      H      20.2170000000    19.9710000000    22.7160000000
   50      H      20.1470000000    19.6810000000    24.4560000000
   51      H      19.4500000000    18.5500000000    23.3330000000
   52      O      17.1010000000    19.7190000000    24.4550000000
   53      C      24.7900000000    16.2090000000    30.0070000000
   54      H      25.7690000000    16.2190000000    29.5210000000
   55      H      24.6230000000    17.1670000000    30.5070000000
   56      H      24.7620000000    15.3230000000    30.6460000000
   57      S      23.5700000000    16.0450000000    28.6840000000
   58      C      22.2230000000    16.0540000000    29.8880000000
   59      H      22.3460000000    16.9140000000    30.5500000000
   60      H      21.2630000000    16.0060000000    29.3670000000
   61      H      22.5030000000    15.1900000000    30.4960000000
   62      O      23.7860000000    14.6010000000    28.3520000000
   63      C      24.1790000000    12.5050000000    31.7750000000
   64      H      24.3460000000    11.8590000000    32.6410000000
   65      H      24.8430000000    12.2040000000    30.9610000000
   66      H      24.1850000000    13.5690000000    32.0230000000
   67      S      22.4800000000    12.3360000000    31.1840000000
   68      C      21.6050000000    12.5480000000    32.7510000000
   69      H      20.6200000000    12.0960000000    32.6040000000
   70      H      22.2050000000    12.1540000000    33.5750000000
   71      H      21.5000000000    13.6200000000    32.9350000000
   72      O      22.3520000000    10.8970000000    30.7920000000
   73      C      30.6330000000    17.1400000000    30.1200000000
   74      H      31.5000000000    16.4940000000    29.9630000000
   75      H      30.6690000000    17.9880000000    29.4320000000
   76      H      30.5490000000    17.5180000000    31.1420000000
   77      S      29.1840000000    16.0990000000    29.8340000000
   78      C      29.4210000000    15.6680000000    28.0950000000
   79      H      29.4610000000    16.5460000000    27.4460000000
   80      H      30.3120000000    15.0440000000    27.9880000000
   81      H      28.5770000000    15.0550000000    27.7700000000
   82      O      27.9820000000    16.9900000000    29.8820000000
   83      C      25.0460000000    22.2250000000    35.9430000000
   84      H      26.0670000000    21.8390000000    35.9970000000
   85      H      24.7130000000    21.9770000000    34.9320000000
   86      H      25.0110000000    23.3000000000    36.1390000000
   87      S      23.8580000000    21.5780000000    37.1400000000
   88      C      24.6380000000    22.3400000000    38.5810000000
   89      H      25.6450000000    21.9160000000    38.5890000000
   90      H      24.7770000000    23.4240000000    38.5950000000
   91      H      24.0670000000    21.9730000000    39.4380000000
   92      O      24.2650000000    20.1390000000    37.2060000000
   93      C      20.8700000000    23.3210000000    37.2940000000
   94      H      20.7520000000    22.4090000000    37.8850000000
   95      H      20.8610000000    23.1080000000    36.2220000000
   96      H      21.8380000000    23.7720000000    37.5270000000
   97      S      19.6410000000    24.6370000000    37.4510000000
   98      C      18.2160000000    23.8110000000    36.7080000000
   99      H      18.2130000000    22.7660000000    37.0290000000
  100      H      17.2470000000    24.2460000000    36.9660000000
  101      H      18.2850000000    23.7390000000    35.6200000000
  102      O      20.0930000000    25.5910000000    36.3900000000
  103      C      18.4920000000    20.3750000000    35.1790000000
  104      H      18.7690000000    19.3190000000    35.1240000000
  105      H      19.2610000000    20.9330000000    34.6380000000
  106      H      18.5770000000    20.7610000000    36.1980000000
  107      S      16.7880000000    20.5500000000    34.6030000000
  108      C      16.2210000000    18.9600000000    35.2470000000
  109      H      17.0010000000    18.1930000000    35.2370000000
  110      H      15.8760000000    19.1700000000    36.2620000000
  111      H      15.3210000000    18.7140000000    34.6780000000
  112      O      16.9380000000    20.1330000000    33.1730000000
  113      C      16.7930000000    20.6910000000    29.7520000000
  114      H      16.0040000000    20.0260000000    29.3930000000
  115      H      17.7480000000    20.3400000000    29.3510000000
  116      H      16.8460000000    20.8520000000    30.8320000000
  117      S      16.6160000000    22.2990000000    28.9480000000
  118      C      17.3380000000    22.0120000000    27.3160000000
  119      H      17.1780000000    22.8720000000    26.6620000000
  120      H      18.4230000000    21.8820000000    27.2920000000
  121      H      16.9290000000    21.1630000000    26.7620000000
  122      O      17.6260000000    23.0670000000    29.7430000000
  123      C      19.6320000000    16.9150000000    26.1360000000
  124      H      19.5930000000    17.1590000000    27.2000000000
  125      H      20.6220000000    17.0610000000    25.6970000000
  126      H      18.9500000000    17.4520000000    25.4710000000
  127      S      19.2500000000    15.1490000000    26.1440000000
  128      C      20.8310000000    14.4580000000    26.6800000000
  129      H      21.6100000000    15.2130000000    26.5430000000
  130      H      20.8520000000    14.2190000000    27.7470000000
  131      H      21.0840000000    13.5360000000    26.1510000000
  132      O      19.3060000000    14.7700000000    24.6970000000
  133      C      26.6390000000    19.7350000000    30.7910000000
  134      H      26.2890000000    18.9060000000    31.4120000000
  135      H      25.9670000000    20.0560000000    29.9900000000
  136      H      27.6030000000    19.4860000000    30.3390000000
  137      S      26.7700000000    21.2290000000    31.7970000000
  138      C      25.0060000000    21.2830000000    32.1890000000
  139      H      24.6990000000    22.3150000000    32.3750000000
  140      H      24.4470000000    21.0080000000    31.2910000000
  141      H      24.7680000000    20.6850000000    33.0720000000
  142      O      26.7880000000    22.3930000000    30.8550000000
  143      C      16.3310000000    16.9690000000    26.2370000000
  144      H      16.8830000000    16.3010000000    25.5710000000
  145      H      16.5540000000    18.0230000000    26.0490000000
  146      H      16.4810000000    16.8520000000    27.3140000000
  147      S      14.6010000000    16.8400000000    25.7310000000
  148      C      13.9140000000    17.6630000000    27.1860000000
  149      H      13.8800000000    16.8850000000    27.9540000000
  150      H      14.4790000000    18.5470000000    27.4920000000
  151      H      12.9360000000    18.0090000000    26.8410000000
  152      O      14.3350000000    15.4280000000    26.1510000000
  153      C      20.2940000000    24.6080000000    32.7850000000
  154      H      19.5440000000    23.8260000000    32.6420000000
  155      H      21.3350000000    24.2810000000    32.8460000000
  156      H      20.1890000000    25.0710000000    33.7690000000
  157      S      20.1980000000    25.7810000000    31.4140000000
  158      C      20.5120000000    24.5280000000    30.1500000000
  159      H      20.3910000000    24.8840000000    29.1230000000
  160      H      21.5230000000    24.1520000000    30.3240000000
  161      H      19.9100000000    23.6360000000    30.3360000000
  162      O      21.5550000000    26.4120000000    31.4540000000
  163      C      23.2630000000    25.3050000000    34.7010000000
  164      H      23.3750000000    25.0320000000    33.6490000000
  165      H      23.6300000000    24.5770000000    35.4290000000
  166      H      22.2130000000    25.3740000000    34.9970000000
  167      S      24.1260000000    26.8750000000    34.9370000000
  168      C      23.0260000000    27.8970000000    33.9310000000
  169      H      23.4370000000    28.9070000000    34.0070000000
  170      H      23.0190000000    27.5610000000    32.8910000000
  171      H      22.0580000000    27.9990000000    34.4280000000
  172      O      25.3590000000    26.7850000000    34.0920000000
  173      C      17.1950000000    14.7470000000    34.9440000000
  174      H      16.6780000000    13.7930000000    34.8130000000
  175      H      17.3650000000    14.9520000000    36.0040000000
  176      H      16.6450000000    15.5380000000    34.4270000000
  177      S      18.8770000000    14.7650000000    34.2850000000
  178      C      19.6230000000    13.8280000000    35.6380000000
  179      H      19.2000000000    12.8230000000    35.5560000000
  180      H      20.7120000000    13.8330000000    35.5480000000
  181      H      19.3070000000    14.2140000000    36.6100000000
  182      O      19.3260000000    16.1920000000    34.3270000000
  183      C      23.6160000000    17.9880000000    33.7250000000
  184      H      24.6570000000    17.6820000000    33.5970000000
  185      H      23.2070000000    18.6240000000    32.9350000000
  186      H      23.5640000000    18.6640000000    34.5830000000
  187      S      22.5640000000    16.5600000000    34.0680000000
  188      C      23.5080000000    16.0790000000    35.5320000000
  189      H      24.5310000000    15.7550000000    35.3260000000
  190      H      23.4550000000    16.8560000000    36.3000000000
  191      H      22.9970000000    15.2180000000    35.9700000000
  192      O      22.8970000000    15.5360000000    33.0280000000
  193      C      23.6800000000    22.2970000000    23.5890000000
  194      H      24.0290000000    23.0630000000    24.2870000000
  195      H      23.3590000000    21.3590000000    24.0490000000
  196      H      24.5330000000    22.0320000000    22.9590000000
  197      S      22.3430000000    22.8190000000    22.4920000000
  198      C      21.1760000000    22.9840000000    23.8610000000
  199      H      20.2110000000    23.2150000000    23.4040000000
  200      H      20.9840000000    22.0830000000    24.4500000000
  201      H      21.5150000000    23.8100000000    24.4910000000
  202      O      21.6990000000    21.6380000000    21.8360000000
  203      C      20.6780000000    18.3690000000    37.2800000000
  204      H      21.1080000000    17.9530000000    36.3660000000
  205      H      19.8800000000    19.0750000000    37.0360000000
  206      H      21.5230000000    18.8170000000    37.8080000000
  207      S      19.8640000000    17.0410000000    38.1970000000
  208      C      19.2670000000    17.9740000000    39.6250000000
  209      H      20.0910000000    18.0320000000    40.3400000000
  210      H      18.9990000000    18.9850000000    39.3080000000
  211      H      18.4560000000    17.4400000000    40.1270000000
  212      O      20.9020000000    16.1760000000    38.8410000000
  213      C      27.7010000000    25.4480000000    25.9490000000
  214      H      26.7330000000    25.9550000000    25.9810000000
  215      H      28.0990000000    25.2610000000    26.9500000000
  216      H      28.3950000000    26.1180000000    25.4350000000
  217      S      27.4190000000    24.0010000000    24.9040000000
  218      C      26.7750000000    25.0960000000    23.6200000000
  219      H      25.9630000000    25.7680000000    23.9100000000
  220      H      27.5520000000    25.7350000000    23.1930000000
  221      H      26.4850000000    24.4250000000    22.8070000000
  222      O      26.1670000000    23.3810000000    25.4420000000
  223      C      26.8290000000    16.0270000000    32.8910000000
  224      H      25.8380000000    16.3680000000    32.5820000000
  225      H      27.2570000000    15.3840000000    32.1180000000
  226      H      26.6690000000    15.6040000000    33.8870000000
  227      S      27.8600000000    17.4950000000    33.1100000000
  228      C      29.1220000000    16.7490000000    34.1670000000
  229      H      28.7370000000    16.5950000000    35.1780000000
  230      H      29.6190000000    15.8460000000    33.8040000000
  231      H      29.7630000000    17.6300000000    34.2450000000
  232      O      27.0040000000    18.3000000000    34.0380000000
  233      C      23.5650000000    18.8480000000    22.5680000000
  234      H      24.3930000000    19.5260000000    22.7900000000
  235      H      23.5460000000    18.3400000000    21.6000000000
  236      H      22.6790000000    19.4690000000    22.7190000000
  237      S      23.3910000000    17.4540000000    23.7050000000
  238      C      21.8860000000    16.7950000000    22.9530000000
  239      H      21.2270000000    17.5480000000    22.5130000000
  240      H      22.2160000000    16.0230000000    22.2530000000
  241      H      21.4540000000    16.3780000000    23.8660000000
  242      O      22.9400000000    18.0790000000    24.9890000000
  243      C      21.2440000000    27.8450000000    26.3890000000
  244      H      20.4660000000    28.1510000000    27.0930000000
  245      H      22.1160000000    28.5030000000    26.4000000000
  246      H      20.8070000000    27.6600000000    25.4040000000
  247      S      21.9650000000    26.2790000000    26.9310000000
  248      C      23.0510000000    26.0930000000    25.4990000000
  249      H      23.5560000000    25.1240000000    25.5140000000
  250      H      22.4780000000    26.1850000000    24.5730000000
  251      H      23.7500000000    26.9300000000    25.5700000000
  252      O      20.9640000000    25.1800000000    26.7480000000
  253      C      27.7830000000    18.9770000000    25.3690000000
  254      H      28.2400000000    19.2530000000    24.4150000000
  255      H      27.1280000000    19.8100000000    25.6360000000
  256      H      28.4750000000    18.9980000000    26.2150000000
  257      S      27.1260000000    17.3340000000    25.0050000000
  258      C      26.4320000000    17.0390000000    26.6480000000
  259      H      26.3810000000    15.9580000000    26.8020000000
  260      H      27.1660000000    17.5690000000    27.2610000000
  261      H      25.5290000000    17.6370000000    26.7960000000
  262      O      28.4230000000    16.5860000000    25.0210000000
  263      C      17.8340000000    26.5390000000    28.6080000000
  264      H      17.9510000000    25.6250000000    29.1970000000
  265      H      17.7490000000    26.1220000000    27.6010000000
  266      H      18.7540000000    27.1270000000    28.6490000000
  267      S      16.3170000000    27.4490000000    28.9760000000
  268      C      15.3460000000    25.9430000000    28.7470000000
  269      H      15.6540000000    25.0510000000    29.2970000000
  270      H      14.3090000000    26.1840000000    28.9980000000
  271      H      15.3800000000    25.7320000000    27.6750000000
  272      O      16.0660000000    28.2550000000    27.7390000000
  273      C      17.1580000000    17.5090000000    31.6820000000
  274      H      17.9560000000    17.8150000000    32.3650000000
  275      H      16.4220000000    18.3120000000    31.5960000000
  276      H      16.5860000000    16.6950000000    32.1340000000
  277      S      17.7010000000    16.9890000000    30.0390000000
  278      C      18.6420000000    15.5420000000    30.5740000000
  279      H      19.2040000000    15.1570000000    29.7190000000
  280      H      19.4340000000    15.8770000000    31.2490000000
  281      H      18.1180000000    14.7820000000    31.1580000000
  282      O      18.7220000000    18.0120000000    29.6500000000
  283      C      14.6670000000    23.5740000000    33.8340000000
  284      H      15.1620000000    24.0660000000    34.6750000000
  285      H      13.6200000000    23.8200000000    34.0290000000
  286      H      14.6820000000    22.4810000000    33.8730000000
  287      S      15.2470000000    24.0650000000    32.1950000000
  288      C      16.9850000000    23.9760000000    32.6810000000
  289      H      17.0670000000    24.5660000000    33.5970000000
  290      H      17.2460000000    22.9160000000    32.7430000000
  291      H      17.5230000000    24.3770000000    31.8180000000
  292      O      14.9500000000    25.5300000000    32.1220000000
  293      C      28.7170000000    22.0960000000    27.4350000000
  294      H      29.2390000000    21.9340000000    26.4880000000
  295      H      27.7290000000    21.6290000000    27.4320000000
  296      H      28.6770000000    23.1770000000    27.5920000000
  297      S      29.6960000000    21.4890000000    28.8270000000
  298      C      31.2300000000    22.3710000000    28.4610000000
  299      H      31.0960000000    23.4260000000    28.2090000000
  300      H      31.8240000000    22.2280000000    29.3670000000
  301      H      31.5860000000    21.8220000000    27.5850000000
  302      O      30.0560000000    20.2080000000    28.1410000000
 ----------------------------------------------------------------
 Nuclear Repulsion Energy =       50907.74716048 hartrees
 There are      623 alpha and      623 beta electrons
 Requested basis set is 6-31+G(d)
 There are 995 shells and 2773 basis functions

 Total QAlloc Memory Limit  16000 MB
 Mega-Array Size      7821 MB
 MEM_STATIC part      8000 MB
 A cutoff of  1.0D-14 yielded 187707 shell pairs
 There are   1623891 function pairs
 Smallest overlap matrix eigenvalue = 3.92E-07
 Linear dependence detected in AO basis
 Tighter screening thresholds may be required for diffuse basis sets
 Use S2THRESH > 14 and THRESH = 14 in case of SCF convergence issues
 Number of orthogonalized atomic orbitals = 2772
 Maximum deviation from orthogonality = 3.308E-10

 Scale SEOQF with 1.000000e-03/1.000000e-03/1.000000e-03

 Standard Electronic Orientation quadrupole field applied
 Nucleus-field energy     =    -0.0000006113 hartrees
Attempting to make child job directory: /local/scratch/users/ymao/r7.00_frame_0008_almo_B3LYP_dp.in20210311133740//Frg1/
Attempting to make child job directory: /local/scratch/users/ymao/r7.00_frame_0008_almo_B3LYP_dp.in20210311133740//Frg2/
Creating input file /local/scratch/users/ymao/r7.00_frame_0008_almo_B3LYP_dp.in20210311133740/Frg1.input
using default PutDataFrgm: nothing
calling putenv with: QCSCRATCH=/local/scratch/users/ymao/r7.00_frame_0008_almo_B3LYP_dp.in20210311133740/ 
Spawning Job For Fragment 0
Done Job For Fragment 0
calling putenv with: QCSCRATCH=/local/scratch/users/ymao 
calling putenv with: QCTHREADS=8 
Creating input file /local/scratch/users/ymao/r7.00_frame_0008_almo_B3LYP_dp.in20210311133740/Frg2.input
using default PutDataFrgm: nothing
calling putenv with: QCSCRATCH=/local/scratch/users/ymao/r7.00_frame_0008_almo_B3LYP_dp.in20210311133740/ 
Spawning Job For Fragment 1
Done Job For Fragment 1
calling putenv with: QCSCRATCH=/local/scratch/users/ymao 
calling putenv with: QCTHREADS=8 
 Time for running child jobs:  CPU 0.94 s  wall 30215.55 s

 -----------------------------------------------------------------------
  General SCF calculation program by
  Eric Jon Sundstrom, Paul Horn, Yuezhi Mao, Dmitri Zuev, Alec White,
  David Stuck, Shaama M.S., Shane Yost, Joonho Lee, David Small,
  Daniel Levine, Susi Lehtola, Hugh Burton, Evgeny Epifanovsky,
  Bang C. Huynh
 -----------------------------------------------------------------------
Performing Restricted Closed Shell SCFMI
Doing General SCFMI
 Exchange:     0.2000 Hartree-Fock + 0.0800 Slater + 0.7200 B88
 Correlation:  0.1900 VWN1RPA + 0.8100 LYP
 Using Euler-Maclaurin-Lebedev (75,302) quadrature formula
performing fock build before subrot guess so that all methods have access
Printing subrot_rss_gen Method Specification:
Occupied Subspace Method is 0
Virtual Subspace Method is 0
Energy prior to optimization (guess energy) = -15893.907726738820
Begin Timing: Total SCF Calculation
begin iterations for algorithm: DIIS         
the SCF tolerance is set to 1.00e-08
    1  -15893.9077267388      5.50e-05     00000 
    2  -15893.9011241526      9.03e-05     00000 
    3  -15893.9235307049      1.92e-05     00000 
    4  -15893.9244988596      7.83e-06     00000 
    5  -15893.9247013249      3.01e-06     00000 
    6  -15893.9247250693      2.17e-06     00000 
    7  -15893.9247383628      1.22e-06     00000 
    8  -15893.9247425696      7.26e-07     00000 
    9  -15893.9247440965      3.97e-07     00000 
   10  -15893.9247444187      3.00e-07     00000 
   11  -15893.9247446111      1.83e-07     00000 
   12  -15893.9247446985      9.49e-08     00000 
   13  -15893.9247447224      5.42e-08     00000 
   14  -15893.9247447314      3.22e-08     00000 
   15  -15893.9247447341      2.54e-08     00000 
   16  -15893.9247447355      1.09e-08     00000 
   17  -15893.9247447361      6.01e-09     00000 Convergence criterion met
write pseudocanon occs and virts to disk
write pseudocanon orbital energies to disk
Timing for Total SCF: 58147.00s (wall), 460645.00s (cpu)
SCFMI Energy  -15893.9247447361
<S^2>            0.00000
 Total energy in the final basis set =   -15893.9247447361
    ==================================================
        The end of Object-Oriented SCFman: SCFMI      
    ==================================================
 
 --------------------------------------------------------------
 
                    Orbital Energies (a.u.)
 --------------------------------------------------------------
 
 Alpha MOs
 -- Occupied --
-89.0468 -89.0349 -89.0298 -89.0262 -89.0233 -89.0228 -89.0223 -89.0110
-89.0075 -89.0071 -89.0061 -89.0057 -89.0054 -89.0044 -89.0015 -88.9975
-88.9945 -88.9943 -88.9932 -88.9919 -88.9873 -88.9872 -88.9863 -88.9821
-88.9798 -88.9783 -88.9781 -88.9749 -19.1531 -19.1496 -19.1455 -19.1441
-19.1370 -19.1350 -19.1348 -19.1340 -19.1298 -19.1284 -19.1248 -19.1223
-19.1214 -19.1207 -19.1184 -19.1123 -19.1118 -19.1116 -19.1077 -19.1071
-19.1035 -19.1031 -19.1022 -19.0995 -19.0970 -19.0957 -19.0927 -19.0875
-19.0818 -14.3591 -10.2941 -10.2599 -10.2556 -10.2551 -10.2545 -10.2534
-10.2482 -10.2437 -10.2408 -10.2388 -10.2371 -10.2352 -10.2331 -10.2325
-10.2309 -10.2300 -10.2279 -10.2276 -10.2273 -10.2271 -10.2239 -10.2235
-10.2211 -10.2208 -10.2197 -10.2194 -10.2193 -10.2170 -10.2169 -10.2159
-10.2127 -10.2120 -10.2117 -10.2108 -10.2108 -10.2107 -10.2098 -10.2097
-10.2083 -10.2073 -10.2053 -10.2046 -10.2042 -10.2030 -10.2026 -10.2004
-10.1996 -10.1995 -10.1986 -10.1985 -10.1981 -10.1963 -10.1953 -10.1949
-10.1941 -10.1932 -10.1892 -10.1843 -10.1828 -10.1828 -10.1826 -10.1782
-10.1732  -8.0927  -8.0808  -8.0757  -8.0713  -8.0691  -8.0688  -8.0683
 -8.0569  -8.0528  -8.0525  -8.0518  -8.0518  -8.0513  -8.0511  -8.0476
 -8.0436  -8.0401  -8.0396  -8.0389  -8.0386  -8.0334  -8.0332  -8.0318
 -8.0285  -8.0262  -8.0251  -8.0242  -8.0214  -6.0570  -6.0558  -6.0504
 -6.0451  -6.0442  -6.0402  -6.0388  -6.0381  -6.0359  -6.0344  -6.0334
 -6.0331  -6.0328  -6.0325  -6.0321  -6.0320  -6.0315  -6.0286  -6.0268
 -6.0261  -6.0259  -6.0214  -6.0200  -6.0173  -6.0168  -6.0164  -6.0160
 -6.0158  -6.0156  -6.0156  -6.0151  -6.0150  -6.0150  -6.0143  -6.0141
 -6.0141  -6.0122  -6.0108  -6.0101  -6.0101  -6.0090  -6.0090  -6.0090
 -6.0087  -6.0079  -6.0069  -6.0049  -6.0044  -6.0041  -6.0033  -6.0031
 -6.0029  -6.0027  -6.0019  -6.0016  -6.0007  -5.9977  -5.9977  -5.9973
 -5.9970  -5.9966  -5.9965  -5.9964  -5.9960  -5.9959  -5.9949  -5.9927
 -5.9914  -5.9909  -5.9907  -5.9905  -5.9894  -5.9893  -5.9891  -5.9885
 -5.9882  -5.9875  -5.9862  -5.9858  -5.9844  -5.9835  -5.9827  -5.9813
 -5.9789  -1.0669  -1.0577  -1.0560  -1.0542  -1.0477  -1.0464  -1.0435
 -1.0432  -1.0367  -1.0365  -1.0343  -1.0333  -1.0308  -1.0288  -1.0284
 -1.0268  -1.0213  -1.0209  -1.0191  -1.0188  -1.0169  -1.0107  -1.0103
 -1.0096  -1.0086  -1.0043  -1.0011  -0.9999  -0.9989  -0.9250  -0.8404
 -0.8398  -0.8329  -0.8273  -0.8242  -0.8240  -0.8212  -0.8209  -0.8206
 -0.8104  -0.8078  -0.8062  -0.8040  -0.8014  -0.8002  -0.7993  -0.7983
 -0.7969  -0.7937  -0.7910  -0.7894  -0.7890  -0.7872  -0.7867  -0.7866
 -0.7844  -0.7792  -0.7765  -0.7758  -0.7712  -0.7677  -0.7613  -0.7559
 -0.7464  -0.7456  -0.7442  -0.7435  -0.7410  -0.7396  -0.7390  -0.7358
 -0.7346  -0.7333  -0.7327  -0.7292  -0.7282  -0.7268  -0.7223  -0.7199
 -0.7179  -0.7178  -0.7175  -0.7139  -0.7134  -0.7134  -0.7086  -0.7069
 -0.7068  -0.6996  -0.6605  -0.6524  -0.6426  -0.6399  -0.6361  -0.6354
 -0.6347  -0.6331  -0.6240  -0.6224  -0.6218  -0.6185  -0.6179  -0.6178
 -0.6167  -0.6134  -0.6128  -0.6112  -0.6089  -0.6076  -0.6060  -0.6028
 -0.6014  -0.5996  -0.5975  -0.5962  -0.5933  -0.5919  -0.5916  -0.5914
 -0.5849  -0.5653  -0.5338  -0.5317  -0.5176  -0.5140  -0.5097  -0.5074
 -0.5033  -0.5027  -0.5022  -0.4990  -0.4988  -0.4986  -0.4973  -0.4970
 -0.4963  -0.4940  -0.4918  -0.4916  -0.4905  -0.4897  -0.4894  -0.4891
 -0.4885  -0.4883  -0.4871  -0.4862  -0.4853  -0.4847  -0.4840  -0.4822
 -0.4806  -0.4799  -0.4789  -0.4788  -0.4775  -0.4773  -0.4768  -0.4762
 -0.4747  -0.4734  -0.4726  -0.4726  -0.4720  -0.4719  -0.4715  -0.4709
 -0.4707  -0.4702  -0.4688  -0.4682  -0.4677  -0.4674  -0.4666  -0.4663
 -0.4658  -0.4655  -0.4651  -0.4646  -0.4641  -0.4633  -0.4630  -0.4625
 -0.4619  -0.4611  -0.4607  -0.4600  -0.4599  -0.4589  -0.4587  -0.4578
 -0.4576  -0.4568  -0.4563  -0.4559  -0.4555  -0.4541  -0.4534  -0.4529
 -0.4511  -0.4508  -0.4501  -0.4498  -0.4488  -0.4484  -0.4481  -0.4476
 -0.4468  -0.4458  -0.4458  -0.4454  -0.4450  -0.4444  -0.4442  -0.4433
 -0.4429  -0.4426  -0.4411  -0.4404  -0.4397  -0.4387  -0.4382  -0.4377
 -0.4368  -0.4361  -0.4346  -0.4341  -0.4336  -0.4332  -0.4321  -0.4310
 -0.4304  -0.4299  -0.4289  -0.4287  -0.4276  -0.4272  -0.4265  -0.4258
 -0.4256  -0.4225  -0.4213  -0.4207  -0.4199  -0.4183  -0.4180  -0.4178
 -0.4175  -0.4168  -0.4156  -0.4152  -0.4146  -0.4141  -0.4139  -0.4133
 -0.4127  -0.4112  -0.4101  -0.4092  -0.4090  -0.4075  -0.4067  -0.4051
 -0.4048  -0.4045  -0.4040  -0.4036  -0.4020  -0.4012  -0.4010  -0.4000
 -0.3993  -0.3989  -0.3979  -0.3977  -0.3964  -0.3951  -0.3941  -0.3930
 -0.3929  -0.3919  -0.3918  -0.3914  -0.3909  -0.3903  -0.3894  -0.3888
 -0.3883  -0.3874  -0.3867  -0.3863  -0.3859  -0.3844  -0.3834  -0.3822
 -0.3818  -0.3815  -0.3811  -0.3809  -0.3802  -0.3780  -0.3776  -0.3764
 -0.3751  -0.3736  -0.3728  -0.3727  -0.3723  -0.3702  -0.3694  -0.3672
 -0.3656  -0.3649  -0.3625  -0.3595  -0.3590  -0.3580  -0.3559  -0.3538
 -0.3524  -0.3482  -0.3477  -0.3454  -0.3448  -0.3425  -0.3423  -0.3408
 -0.3397  -0.3385  -0.3236  -0.3155  -0.3114  -0.3101  -0.3088  -0.3085
 -0.3073  -0.2962  -0.2958  -0.2929  -0.2902  -0.2896  -0.2867  -0.2864
 -0.2850  -0.2834  -0.2787  -0.2775  -0.2747  -0.2740  -0.2732  -0.2721
 -0.2719  -0.2705  -0.2688  -0.2686  -0.2661  -0.2658  -0.2639  -0.2632
 -0.2625  -0.2610  -0.2601  -0.2577  -0.2571  -0.2553  -0.2549  -0.2541
 -0.2532  -0.2507  -0.2487  -0.2484  -0.2469  -0.2468  -0.2445  -0.2442
 -0.2402  -0.2399  -0.2379  -0.2360  -0.2351  -0.2345  -0.2338  -0.2290
 -0.2287  -0.2273  -0.2252  -0.2194  -0.2175  -0.2144  -0.2131
 -- Virtual --
 -0.0546  -0.0478  -0.0388  -0.0364  -0.0328  -0.0302  -0.0256  -0.0247
 -0.0240  -0.0212  -0.0208  -0.0195  -0.0185  -0.0162  -0.0157  -0.0157
 -0.0138  -0.0120  -0.0110  -0.0099  -0.0093  -0.0087  -0.0078  -0.0060
 -0.0051  -0.0047  -0.0032  -0.0025  -0.0017  -0.0012  -0.0004   0.0004
  0.0011   0.0023   0.0026   0.0032   0.0034   0.0045   0.0055   0.0068
  0.0076   0.0081   0.0088   0.0092   0.0097   0.0102   0.0109   0.0113
  0.0119   0.0126   0.0130   0.0141   0.0148   0.0156   0.0161   0.0168
  0.0174   0.0178   0.0181   0.0188   0.0196   0.0198   0.0202   0.0214
  0.0220   0.0230   0.0233   0.0238   0.0247   0.0248   0.0255   0.0260
  0.0263   0.0272   0.0277   0.0283   0.0288   0.0291   0.0292   0.0305
  0.0314   0.0318   0.0323   0.0329   0.0334   0.0341   0.0354   0.0358
  0.0362   0.0369   0.0383   0.0388   0.0398   0.0398   0.0405   0.0415
  0.0418   0.0426   0.0441   0.0445   0.0450   0.0456   0.0463   0.0468
  0.0469   0.0476   0.0484   0.0486   0.0494   0.0501   0.0504   0.0507
  0.0513   0.0523   0.0528   0.0535   0.0543   0.0552   0.0562   0.0563
  0.0576   0.0577   0.0582   0.0588   0.0594   0.0604   0.0606   0.0607
  0.0619   0.0621   0.0626   0.0632   0.0635   0.0643   0.0649   0.0650
  0.0654   0.0662   0.0665   0.0671   0.0682   0.0684   0.0694   0.0696
  0.0703   0.0709   0.0720   0.0725   0.0734   0.0742   0.0745   0.0750
  0.0760   0.0761   0.0773   0.0780   0.0781   0.0787   0.0794   0.0799
  0.0812   0.0815   0.0817   0.0822   0.0834   0.0837   0.0838   0.0840
  0.0851   0.0854   0.0863   0.0867   0.0869   0.0875   0.0881   0.0890
  0.0903   0.0906   0.0917   0.0919   0.0930   0.0938   0.0943   0.0953
  0.0957   0.0966   0.0970   0.0977   0.0980   0.0982   0.0988   0.0996
  0.1003   0.1012   0.1017   0.1019   0.1023   0.1031   0.1039   0.1049
  0.1054   0.1059   0.1068   0.1071   0.1078   0.1084   0.1091   0.1094
  0.1100   0.1104   0.1113   0.1116   0.1128   0.1131   0.1132   0.1143
  0.1143   0.1157   0.1160   0.1169   0.1175   0.1180   0.1183   0.1189
  0.1198   0.1207   0.1212   0.1218   0.1223   0.1229   0.1235   0.1240
  0.1242   0.1248   0.1251   0.1256   0.1262   0.1268   0.1274   0.1278
  0.1280   0.1291   0.1300   0.1308   0.1309   0.1313   0.1323   0.1331
  0.1338   0.1346   0.1350   0.1359   0.1362   0.1373   0.1375   0.1377
  0.1382   0.1385   0.1392   0.1397   0.1403   0.1409   0.1416   0.1419
  0.1423   0.1436   0.1440   0.1443   0.1457   0.1463   0.1478   0.1481
  0.1486   0.1497   0.1500   0.1503   0.1506   0.1515   0.1517   0.1530
  0.1533   0.1535   0.1547   0.1548   0.1553   0.1561   0.1573   0.1577
  0.1584   0.1586   0.1592   0.1593   0.1597   0.1602   0.1607   0.1616
  0.1616   0.1625   0.1636   0.1644   0.1651   0.1657   0.1661   0.1671
  0.1677   0.1678   0.1684   0.1688   0.1699   0.1704   0.1709   0.1714
  0.1717   0.1724   0.1726   0.1737   0.1743   0.1746   0.1753   0.1758
  0.1765   0.1769   0.1771   0.1778   0.1782   0.1788   0.1797   0.1798
  0.1816   0.1820   0.1823   0.1825   0.1836   0.1845   0.1857   0.1861
  0.1864   0.1866   0.1878   0.1887   0.1890   0.1901   0.1902   0.1909
  0.1917   0.1921   0.1925   0.1930   0.1937   0.1942   0.1949   0.1953
  0.1960   0.1963   0.1968   0.1970   0.1977   0.1985   0.1994   0.1997
  0.2005   0.2012   0.2021   0.2023   0.2025   0.2032   0.2036   0.2040
  0.2045   0.2056   0.2061   0.2066   0.2069   0.2075   0.2080   0.2087
  0.2097   0.2098   0.2104   0.2110   0.2115   0.2119   0.2128   0.2129
  0.2141   0.2152   0.2154   0.2157   0.2162   0.2169   0.2173   0.2178
  0.2184   0.2186   0.2194   0.2202   0.2211   0.2217   0.2224   0.2229
  0.2236   0.2239   0.2244   0.2247   0.2256   0.2268   0.2273   0.2283
  0.2288   0.2297   0.2299   0.2312   0.2320   0.2321   0.2324   0.2334
  0.2339   0.2344   0.2354   0.2361   0.2363   0.2366   0.2373   0.2380
  0.2387   0.2395   0.2400   0.2412   0.2418   0.2425   0.2431   0.2435
  0.2440   0.2443   0.2446   0.2461   0.2466   0.2470   0.2479   0.2485
  0.2486   0.2492   0.2495   0.2507   0.2518   0.2524   0.2526   0.2532
  0.2540   0.2541   0.2547   0.2559   0.2564   0.2572   0.2585   0.2588
  0.2590   0.2599   0.2600   0.2614   0.2615   0.2629   0.2633   0.2647
  0.2648   0.2652   0.2661   0.2664   0.2671   0.2675   0.2684   0.2687
  0.2701   0.2704   0.2716   0.2727   0.2734   0.2740   0.2749   0.2758
  0.2762   0.2770   0.2774   0.2780   0.2791   0.2797   0.2799   0.2806
  0.2812   0.2825   0.2833   0.2843   0.2844   0.2850   0.2856   0.2864
  0.2875   0.2883   0.2885   0.2896   0.2908   0.2913   0.2922   0.2936
  0.2940   0.2942   0.2959   0.2968   0.2973   0.2979   0.2985   0.2988
  0.2997   0.3011   0.3017   0.3023   0.3032   0.3040   0.3042   0.3046
  0.3059   0.3062   0.3070   0.3078   0.3079   0.3085   0.3100   0.3107
  0.3111   0.3123   0.3128   0.3145   0.3154   0.3160   0.3171   0.3175
  0.3183   0.3192   0.3193   0.3205   0.3213   0.3224   0.3228   0.3240
  0.3244   0.3263   0.3266   0.3271   0.3282   0.3292   0.3297   0.3299
  0.3308   0.3312   0.3319   0.3322   0.3330   0.3347   0.3352   0.3361
  0.3369   0.3372   0.3377   0.3386   0.3394   0.3407   0.3412   0.3424
  0.3428   0.3441   0.3446   0.3456   0.3466   0.3470   0.3474   0.3481
  0.3494   0.3505   0.3512   0.3527   0.3530   0.3539   0.3545   0.3548
  0.3559   0.3575   0.3580   0.3589   0.3594   0.3602   0.3604   0.3616
  0.3623   0.3637   0.3650   0.3659   0.3662   0.3676   0.3682   0.3689
  0.3691   0.3696   0.3715   0.3719   0.3731   0.3734   0.3742   0.3752
  0.3763   0.3777   0.3785   0.3791   0.3801   0.3804   0.3820   0.3820
  0.3832   0.3838   0.3844   0.3852   0.3859   0.3876   0.3882   0.3897
  0.3898   0.3906   0.3915   0.3923   0.3927   0.3942   0.3951   0.3970
  0.3976   0.3989   0.3997   0.4001   0.4011   0.4017   0.4026   0.4034
  0.4043   0.4049   0.4058   0.4063   0.4077   0.4090   0.4091   0.4104
  0.4111   0.4116   0.4125   0.4135   0.4146   0.4158   0.4170   0.4180
  0.4186   0.4193   0.4205   0.4213   0.4230   0.4238   0.4244   0.4250
  0.4265   0.4278   0.4289   0.4294   0.4298   0.4309   0.4320   0.4329
  0.4348   0.4355   0.4365   0.4381   0.4391   0.4407   0.4412   0.4419
  0.4428   0.4435   0.4450   0.4452   0.4456   0.4467   0.4488   0.4499
  0.4514   0.4520   0.4528   0.4539   0.4550   0.4555   0.4576   0.4584
  0.4600   0.4613   0.4629   0.4645   0.4662   0.4665   0.4674   0.4702
  0.4707   0.4720   0.4727   0.4739   0.4759   0.4767   0.4787   0.4791
  0.4816   0.4822   0.4827   0.4839   0.4857   0.4866   0.4880   0.4900
  0.4908   0.4928   0.4930   0.4953   0.4964   0.4974   0.4992   0.5000
  0.5023   0.5037   0.5050   0.5062   0.5073   0.5095   0.5105   0.5123
  0.5131   0.5138   0.5168   0.5177   0.5190   0.5198   0.5227   0.5232
  0.5246   0.5261   0.5274   0.5284   0.5302   0.5309   0.5331   0.5350
  0.5354   0.5370   0.5385   0.5409   0.5423   0.5443   0.5452   0.5460
  0.5479   0.5493   0.5497   0.5511   0.5533   0.5540   0.5552   0.5570
  0.5577   0.5585   0.5598   0.5610   0.5638   0.5654   0.5660   0.5671
  0.5681   0.5694   0.5716   0.5727   0.5740   0.5747   0.5754   0.5778
  0.5793   0.5808   0.5818   0.5827   0.5840   0.5852   0.5873   0.5882
  0.5888   0.5902   0.5909   0.5933   0.5940   0.5951   0.5958   0.5966
  0.5987   0.6007   0.6017   0.6029   0.6049   0.6053   0.6063   0.6082
  0.6089   0.6091   0.6095   0.6109   0.6128   0.6145   0.6155   0.6158
  0.6186   0.6201   0.6211   0.6216   0.6226   0.6240   0.6251   0.6262
  0.6272   0.6284   0.6300   0.6300   0.6303   0.6323   0.6333   0.6341
  0.6349   0.6369   0.6379   0.6383   0.6392   0.6401   0.6416   0.6422
  0.6438   0.6449   0.6465   0.6473   0.6487   0.6501   0.6514   0.6522
  0.6539   0.6549   0.6554   0.6565   0.6574   0.6595   0.6601   0.6615
  0.6629   0.6634   0.6645   0.6653   0.6655   0.6665   0.6674   0.6691
  0.6693   0.6701   0.6717   0.6722   0.6732   0.6742   0.6750   0.6767
  0.6771   0.6786   0.6804   0.6822   0.6830   0.6843   0.6849   0.6857
  0.6875   0.6892   0.6893   0.6905   0.6922   0.6929   0.6940   0.6951
  0.6962   0.6970   0.6984   0.6998   0.7014   0.7027   0.7041   0.7048
  0.7071   0.7091   0.7099   0.7110   0.7116   0.7128   0.7137   0.7147
  0.7156   0.7164   0.7185   0.7202   0.7218   0.7237   0.7248   0.7257
  0.7271   0.7277   0.7307   0.7313   0.7331   0.7335   0.7341   0.7358
  0.7368   0.7375   0.7380   0.7396   0.7408   0.7429   0.7452   0.7462
  0.7470   0.7480   0.7502   0.7512   0.7517   0.7538   0.7547   0.7562
  0.7568   0.7594   0.7608   0.7617   0.7627   0.7637   0.7648   0.7666
  0.7672   0.7693   0.7702   0.7712   0.7730   0.7748   0.7780   0.7797
  0.7800   0.7836   0.7850   0.7852   0.7866   0.7881   0.7908   0.7908
  0.7921   0.7938   0.7960   0.7978   0.7982   0.8000   0.8014   0.8047
  0.8059   0.8070   0.8092   0.8098   0.8124   0.8133   0.8143   0.8145
  0.8163   0.8165   0.8198   0.8215   0.8218   0.8222   0.8245   0.8249
  0.8255   0.8279   0.8299   0.8315   0.8319   0.8327   0.8362   0.8377
  0.8381   0.8386   0.8400   0.8404   0.8418   0.8427   0.8442   0.8452
  0.8464   0.8477   0.8487   0.8496   0.8514   0.8524   0.8534   0.8537
  0.8554   0.8560   0.8584   0.8585   0.8603   0.8622   0.8626   0.8638
  0.8653   0.8656   0.8666   0.8684   0.8690   0.8699   0.8710   0.8727
  0.8748   0.8761   0.8767   0.8777   0.8784   0.8789   0.8816   0.8821
  0.8835   0.8857   0.8874   0.8882   0.8884   0.8900   0.8902   0.8918
  0.8933   0.8953   0.8965   0.8969   0.8986   0.8989   0.9023   0.9026
  0.9044   0.9052   0.9063   0.9078   0.9090   0.9092   0.9113   0.9117
  0.9135   0.9145   0.9151   0.9159   0.9174   0.9178   0.9203   0.9205
  0.9215   0.9236   0.9251   0.9263   0.9264   0.9280   0.9292   0.9310
  0.9323   0.9346   0.9351   0.9363   0.9373   0.9379   0.9387   0.9400
  0.9402   0.9429   0.9438   0.9442   0.9457   0.9459   0.9480   0.9483
  0.9506   0.9516   0.9528   0.9537   0.9549   0.9560   0.9570   0.9580
  0.9601   0.9607   0.9613   0.9628   0.9636   0.9642   0.9656   0.9665
  0.9685   0.9691   0.9694   0.9708   0.9723   0.9733   0.9735   0.9738
  0.9754   0.9760   0.9781   0.9783   0.9802   0.9814   0.9819   0.9826
  0.9835   0.9847   0.9861   0.9866   0.9877   0.9891   0.9899   0.9914
  0.9922   0.9929   0.9942   0.9958   0.9960   0.9972   0.9979   0.9991
  1.0006   1.0014   1.0023   1.0035   1.0041   1.0045   1.0066   1.0073
  1.0082   1.0086   1.0091   1.0100   1.0118   1.0123   1.0143   1.0148
  1.0160   1.0180   1.0183   1.0197   1.0211   1.0212   1.0227   1.0239
  1.0248   1.0255   1.0269   1.0280   1.0285   1.0292   1.0305   1.0314
  1.0321   1.0341   1.0352   1.0357   1.0360   1.0385   1.0398   1.0412
  1.0421   1.0433   1.0448   1.0455   1.0471   1.0478   1.0484   1.0502
  1.0510   1.0522   1.0533   1.0547   1.0577   1.0588   1.0592   1.0599
  1.0616   1.0641   1.0646   1.0648   1.0661   1.0669   1.0673   1.0696
  1.0714   1.0719   1.0737   1.0739   1.0747   1.0760   1.0786   1.0793
  1.0818   1.0821   1.0837   1.0848   1.0864   1.0875   1.0885   1.0906
  1.0922   1.0932   1.0952   1.0959   1.0969   1.0989   1.1000   1.1021
  1.1025   1.1057   1.1060   1.1077   1.1107   1.1110   1.1121   1.1136
  1.1145   1.1150   1.1163   1.1165   1.1182   1.1198   1.1215   1.1232
  1.1246   1.1265   1.1272   1.1285   1.1298   1.1307   1.1315   1.1315
  1.1335   1.1347   1.1355   1.1366   1.1394   1.1402   1.1409   1.1426
  1.1437   1.1451   1.1461   1.1471   1.1479   1.1496   1.1499   1.1527
  1.1539   1.1552   1.1560   1.1578   1.1584   1.1608   1.1622   1.1629
  1.1636   1.1653   1.1662   1.1671   1.1682   1.1697   1.1706   1.1731
  1.1746   1.1756   1.1770   1.1785   1.1794   1.1825   1.1830   1.1836
  1.1842   1.1858   1.1865   1.1893   1.1904   1.1921   1.1934   1.1941
  1.1956   1.1976   1.1997   1.2016   1.2021   1.2025   1.2043   1.2070
  1.2075   1.2096   1.2117   1.2132   1.2152   1.2174   1.2185   1.2210
  1.2232   1.2257   1.2266   1.2294   1.2302   1.2319   1.2323   1.2368
  1.2374   1.2388   1.2408   1.2440   1.2461   1.2474   1.2488   1.2515
  1.2525   1.2548   1.2572   1.2588   1.2606   1.2621   1.2669   1.2699
  1.2708   1.2720   1.2751   1.2754   1.2779   1.2811   1.2830   1.2843
  1.2877   1.2883   1.2897   1.2917   1.2919   1.2964   1.2991   1.3011
  1.3017   1.3036   1.3054   1.3073   1.3124   1.3136   1.3155   1.3172
  1.3183   1.3212   1.3226   1.3256   1.3282   1.3294   1.3326   1.3350
  1.3356   1.3369   1.3390   1.3403   1.3415   1.3439   1.3446   1.3450
  1.3457   1.3476   1.3495   1.3513   1.3528   1.3533   1.3544   1.3562
  1.3581   1.3598   1.3626   1.3647   1.3671   1.3691   1.3700   1.3718
  1.3725   1.3763   1.3764   1.3795   1.3804   1.3815   1.3838   1.3851
  1.3869   1.3872   1.3889   1.3907   1.3916   1.3930   1.3946   1.3959
  1.3972   1.3979   1.3989   1.4008   1.4021   1.4042   1.4047   1.4082
  1.4090   1.4106   1.4109   1.4128   1.4133   1.4143   1.4157   1.4177
  1.4180   1.4200   1.4213   1.4233   1.4240   1.4259   1.4266   1.4294
  1.4311   1.4314   1.4331   1.4338   1.4353   1.4367   1.4377   1.4387
  1.4403   1.4416   1.4437   1.4444   1.4456   1.4468   1.4504   1.4521
  1.4523   1.4536   1.4545   1.4566   1.4573   1.4591   1.4613   1.4639
  1.4656   1.4675   1.4682   1.4708   1.4737   1.4759   1.4763   1.4782
  1.4797   1.4818   1.4827   1.4858   1.4886   1.4889   1.4935   1.4950
  1.4958   1.4968   1.4986   1.5006   1.5037   1.5044   1.5064   1.5092
  1.5101   1.5129   1.5159   1.5173   1.5179   1.5187   1.5207   1.5226
  1.5260   1.5281   1.5288   1.5348   1.5353   1.5377   1.5403   1.5414
  1.5461   1.5493   1.5501   1.5522   1.5527   1.5540   1.5578   1.5611
  1.5624   1.5649   1.5673   1.5681   1.5697   1.5709   1.5737   1.5745
  1.5772   1.5805   1.5853   1.5912   1.5921   1.5951   1.5997   1.6043
  1.6109   1.6153   1.6168   1.6192   1.6268   1.6293   1.6322   1.6359
  1.6407   1.6448   1.6467   1.6502   1.6511   1.6538   1.6562   1.6570
  1.6575   1.6602   1.6612   1.6646   1.6654   1.6684   1.6699   1.6711
  1.6727   1.6734   1.6742   1.6745   1.6753   1.6769   1.6782   1.6794
  1.6816   1.6821   1.6830   1.6840   1.6842   1.6861   1.6872   1.6881
  1.6897   1.6909   1.6927   1.6937   1.6954   1.6961   1.6976   1.6997
  1.7010   1.7021   1.7043   1.7045   1.7056   1.7073   1.7075   1.7087
  1.7109   1.7120   1.7134   1.7149   1.7157   1.7163   1.7188   1.7193
  1.7213   1.7216   1.7229   1.7236   1.7250   1.7258   1.7268   1.7271
  1.7292   1.7301   1.7325   1.7335   1.7350   1.7377   1.7396   1.7404
  1.7422   1.7438   1.7453   1.7460   1.7481   1.7501   1.7511   1.7530
  1.7539   1.7555   1.7564   1.7582   1.7586   1.7596   1.7609   1.7617
  1.7630   1.7652   1.7655   1.7678   1.7682   1.7708   1.7728   1.7732
  1.7748   1.7759   1.7780   1.7791   1.7811   1.7830   1.7847   1.7858
  1.7870   1.7895   1.7921   1.7928   1.7938   1.7976   1.7992   1.8004
  1.8029   1.8048   1.8057   1.8069   1.8109   1.8126   1.8175   1.8225
  1.8225   1.8248   1.8282   1.8295   1.8305   1.8355   1.8403   1.8449
  1.8477   1.8501   1.8516   1.8530   1.8535   1.8580   1.8597   1.8606
  1.8635   1.8652   1.8672   1.8683   1.8708   1.8722   1.8735   1.8752
  1.8759   1.8775   1.8803   1.8807   1.8824   1.8829   1.8845   1.8853
  1.8861   1.8863   1.8877   1.8890   1.8908   1.8920   1.8930   1.8943
  1.8962   1.8966   1.8983   1.8992   1.8996   1.9018   1.9020   1.9032
  1.9041   1.9048   1.9056   1.9072   1.9086   1.9091   1.9096   1.9115
  1.9121   1.9134   1.9153   1.9169   1.9187   1.9209   1.9223   1.9238
  1.9258   1.9273   1.9277   1.9297   1.9316   1.9331   1.9344   1.9364
  1.9382   1.9404   1.9412   1.9437   1.9446   1.9467   1.9510   1.9525
  1.9577   1.9595   1.9636   1.9646   1.9669   1.9695   1.9714   1.9724
  1.9828   1.9884   1.9917   1.9938   2.0023   2.0105   2.0180   2.0204
  2.0373   2.0388   2.0413   2.0416   2.0443   2.0464   2.0515   2.0516
  2.0549   2.0585   2.0594   2.0623   2.0627   2.0638   2.0660   2.0670
  2.0680   2.0698   2.0706   2.0717   2.0721   2.0736   2.0744   2.0752
  2.0760   2.0769   2.0779   2.0792   2.0794   2.0801   2.0813   2.0826
  2.0836   2.0864   2.0887   2.0898   2.0910   2.0926   2.0933   2.0955
  2.0956   2.0967   2.1003   2.1013   2.1044   2.1050   2.1061   2.1079
  2.1095   2.1121   2.1142   2.1154   2.1185   2.1193   2.1197   2.1228
  2.1254   2.1292   2.1387   2.1406   2.1452   2.1506   2.1533   2.1561
  2.1566   2.1596   2.1622   2.1657   2.1710   2.1740   2.1789   2.1851
  2.1867   2.1877   2.1916   2.1946   2.1981   2.1992   2.2009   2.2014
  2.2054   2.2070   2.2093   2.2099   2.2116   2.2127   2.2131   2.2142
  2.2154   2.2175   2.2203   2.2223   2.2239   2.2242   2.2250   2.2257
  2.2264   2.2287   2.2305   2.2316   2.2329   2.2342   2.2358   2.2362
  2.2377   2.2393   2.2403   2.2413   2.2417   2.2425   2.2436   2.2439
  2.2445   2.2476   2.2484   2.2493   2.2501   2.2510   2.2518   2.2522
  2.2535   2.2551   2.2558   2.2560   2.2565   2.2570   2.2575   2.2590
  2.2600   2.2616   2.2623   2.2632   2.2639   2.2650   2.2656   2.2664
  2.2670   2.2676   2.2687   2.2694   2.2709   2.2723   2.2729   2.2736
  2.2754   2.2756   2.2764   2.2781   2.2787   2.2803   2.2810   2.2817
  2.2827   2.2831   2.2852   2.2859   2.2865   2.2875   2.2886   2.2892
  2.2908   2.2913   2.2918   2.2926   2.2935   2.2939   2.2951   2.2967
  2.2971   2.2986   2.2987   2.2999   2.3001   2.3017   2.3032   2.3036
  2.3042   2.3072   2.3077   2.3088   2.3110   2.3123   2.3133   2.3135
  2.3147   2.3151   2.3172   2.3181   2.3200   2.3212   2.3217   2.3225
  2.3231   2.3262   2.3279   2.3293   2.3303   2.3307   2.3317   2.3325
  2.3341   2.3357   2.3358   2.3385   2.3410   2.3428   2.3445   2.3455
  2.3467   2.3478   2.3509   2.3521   2.3525   2.3543   2.3557   2.3562
  2.3572   2.3603   2.3613   2.3643   2.3652   2.3667   2.3698   2.3760
  2.3772   2.3854   2.3881   2.3906   2.3921   2.3928   2.3991   2.4030
  2.4074   2.4083   2.4123   2.4137   2.4249   2.4324   2.4452   2.4551
  2.4713   2.4776   2.5341   2.5607   2.6054   2.6843   2.7319   2.7731
  2.7833   2.7978   2.8062   2.8146   2.8225   2.8258   2.8323   2.8364
  2.8387   2.8410   2.8416   2.8437   2.8473   2.8482   2.8487   2.8528
  2.8540   2.8560   2.8569   2.8571   2.8588   2.8621   2.8634   2.8647
  2.8675   2.8693   2.8726   2.8744   2.8779   2.8792   2.8812   2.9036
  2.9066   2.9427   3.0869   3.2619   3.9295   3.9441   3.9483   3.9518
  3.9582   3.9663   3.9665   3.9708   3.9742   3.9758   3.9778   3.9791
  3.9796   3.9807   3.9878   3.9881   3.9908   3.9974   3.9983   4.0013
  4.0016   4.0044   4.0090   4.0186   4.0205   4.0241   4.0272   4.0434
  4.2094   4.2155   4.2238   4.2261   4.2290   4.2311   4.2322   4.2412
  4.2430   4.2444   4.2490   4.2518   4.2526   4.2565   4.2600   4.2619
  4.2643   4.2672   4.2722   4.2747   4.2754   4.2785   4.2799   4.2811
  4.2831   4.2864   4.2896   4.2920   4.2934   4.2973   4.2985   4.3005
  4.3032   4.3039   4.3043   4.3059   4.3073   4.3083   4.3115   4.3125
  4.3164   4.3210   4.3222   4.3239   4.3253   4.3293   4.3325   4.3369
  4.3423   4.3459   4.3464   4.3481   4.3511   4.3544   4.3577   4.3596
  4.3630   4.3652   4.3721   4.3741   4.3759   4.3790   4.3809   4.3868
  4.3921   4.4012   4.4100   4.4115   4.4179   4.4218   4.4263   4.4306
  4.4344   4.4362   4.4537   4.4570   4.4686   4.4778   4.4814   4.4993
  4.5106   4.5214   4.5351   4.5371   4.5444   4.5637   4.5848   4.6031
  4.6199   4.7177   4.7476   4.7805   4.8743
 --------------------------------------------------------------
 
          Ground-State Mulliken Net Atomic Charges

     Atom                 Charge (a.u.)
  ----------------------------------------
      1 C                    -0.378199
      2 C                    -0.397642
      3 C                    -0.390952
      4 C                    -0.377337
      5 C                    -0.355148
      6 C                    -0.425475
      7 H                     0.162983
      8 H                     0.213976
      9 H                     0.208060
     10 H                     0.228792
     11 H                     0.187521
     12 H                     0.191860
     13 H                     0.202001
     14 H                     0.242079
     15 H                     0.199610
     16 H                     0.217627
     17 H                     0.227019
     18 N                    -0.376588
     19 H                     0.515855
     20 C                     0.282835
     21 H                     0.149462
     22 O                    -0.528338
     23 C                    -0.805757
     24 H                     0.258255
     25 H                     0.284557
     26 H                     0.240767
     27 S                     0.744404
     28 C                    -0.736462
     29 H                     0.266143
     30 H                     0.254458
     31 H                     0.253334
     32 O                    -0.703121
     33 C                    -1.004202
     34 H                     0.237093
     35 H                     0.262077
     36 H                     0.277454
     37 S                     1.134095
     38 C                    -0.851206
     39 H                     0.210913
     40 H                     0.253964
     41 H                     0.273154
     42 O                    -0.722455
     43 C                    -0.889003
     44 H                     0.261868
     45 H                     0.253185
     46 H                     0.263576
     47 S                     0.961184
     48 C                    -1.008680
     49 H                     0.301984
     50 H                     0.281137
     51 H                     0.265050
     52 O                    -0.711747
     53 C                    -0.930691
     54 H                     0.300627
     55 H                     0.217784
     56 H                     0.266058
     57 S                     0.641689
     58 C                    -0.644753
     59 H                     0.270308
     60 H                     0.218320
     61 H                     0.285200
     62 O                    -0.630214
     63 C                    -0.839602
     64 H                     0.240408
     65 H                     0.267362
     66 H                     0.257324
     67 S                     0.930983
     68 C                    -0.822213
     69 H                     0.246041
     70 H                     0.234490
     71 H                     0.286960
     72 O                    -0.714507
     73 C                    -0.787621
     74 H                     0.230763
     75 H                     0.325195
     76 H                     0.240715
     77 S                     0.778212
     78 C                    -0.813991
     79 H                     0.308986
     80 H                     0.233946
     81 H                     0.266881
     82 O                    -0.664986
     83 C                    -0.830631
     84 H                     0.284811
     85 H                     0.252411
     86 H                     0.207980
     87 S                     0.919438
     88 C                    -0.833988
     89 H                     0.267855
     90 H                     0.249149
     91 H                     0.244404
     92 O                    -0.716855
     93 C                    -0.828499
     94 H                     0.240832
     95 H                     0.281408
     96 H                     0.264232
     97 S                     0.757173
     98 C                    -0.785548
     99 H                     0.214299
    100 H                     0.258159
    101 H                     0.275138
    102 O                    -0.719776
    103 C                    -0.743937
    104 H                     0.263253
    105 H                     0.325132
    106 H                     0.214408
    107 S                     0.697359
    108 C                    -0.814270
    109 H                     0.272607
    110 H                     0.239728
    111 H                     0.267761
    112 O                    -0.694376
    113 C                    -0.597094
    114 H                     0.229471
    115 H                     0.286990
    116 H                     0.306853
    117 S                     0.148501
    118 C                    -0.554763
    119 H                     0.256759
    120 H                     0.282044
    121 H                     0.290653
    122 O                    -0.668454
    123 C                    -0.924066
    124 H                     0.257827
    125 H                     0.287208
    126 H                     0.280995
    127 S                     1.023166
    128 C                    -0.947929
    129 H                     0.251587
    130 H                     0.245793
    131 H                     0.286442
    132 O                    -0.717841
    133 C                    -0.742274
    134 H                     0.244323
    135 H                     0.252291
    136 H                     0.299029
    137 S                     0.825881
    138 C                    -0.858563
    139 H                     0.265005
    140 H                     0.245459
    141 H                     0.239202
    142 O                    -0.673796
    143 C                    -0.872612
    144 H                     0.256694
    145 H                     0.284803
    146 H                     0.245439
    147 S                     1.022581
    148 C                    -0.921135
    149 H                     0.271869
    150 H                     0.217254
    151 H                     0.233240
    152 O                    -0.751911
    153 C                    -0.564821
    154 H                     0.225346
    155 H                     0.262637
    156 H                     0.283843
    157 S                     0.696134
    158 C                    -0.954700
    159 H                     0.301018
    160 H                     0.265229
    161 H                     0.279850
    162 O                    -0.697291
    163 C                    -0.783787
    164 H                     0.267133
    165 H                     0.192677
    166 H                     0.276113
    167 S                     0.767261
    168 C                    -0.799012
    169 H                     0.244171
    170 H                     0.312733
    171 H                     0.241608
    172 O                    -0.692963
    173 C                    -0.726551
    174 H                     0.256625
    175 H                     0.242390
    176 H                     0.247319
    177 S                     0.563764
    178 C                    -0.789718
    179 H                     0.254635
    180 H                     0.274078
    181 H                     0.266134
    182 O                    -0.539164
    183 C                    -0.860379
    184 H                     0.275731
    185 H                     0.279828
    186 H                     0.269326
    187 S                     0.550940
    188 C                    -0.831159
    189 H                     0.255177
    190 H                     0.276677
    191 H                     0.251986
    192 O                    -0.641304
    193 C                    -0.844443
    194 H                     0.276241
    195 H                     0.269681
    196 H                     0.242183
    197 S                     0.957642
    198 C                    -1.087193
    199 H                     0.269951
    200 H                     0.277758
    201 H                     0.256987
    202 O                    -0.667720
    203 C                    -0.802610
    204 H                     0.282727
    205 H                     0.193265
    206 H                     0.285861
    207 S                     0.931860
    208 C                    -0.929320
    209 H                     0.279374
    210 H                     0.205925
    211 H                     0.249957
    212 O                    -0.680199
    213 C                    -0.819814
    214 H                     0.281241
    215 H                     0.249402
    216 H                     0.237631
    217 S                     1.018980
    218 C                    -0.944027
    219 H                     0.260354
    220 H                     0.248523
    221 H                     0.246249
    222 O                    -0.668054
    223 C                    -0.832544
    224 H                     0.266339
    225 H                     0.254858
    226 H                     0.243373
    227 S                     0.806710
    228 C                    -0.925989
    229 H                     0.269108
    230 H                     0.243986
    231 H                     0.245572
    232 O                    -0.684008
    233 C                    -0.781623
    234 H                     0.238810
    235 H                     0.227753
    236 H                     0.288914
    237 S                     0.804761
    238 C                    -0.744943
    239 H                     0.243106
    240 H                     0.244571
    241 H                     0.261686
    242 O                    -0.682888
    243 C                    -0.626167
    244 H                     0.266071
    245 H                     0.246573
    246 H                     0.225259
    247 S                     0.526423
    248 C                    -0.887788
    249 H                     0.282947
    250 H                     0.257570
    251 H                     0.251337
    252 O                    -0.546254
    253 C                    -0.768685
    254 H                     0.233258
    255 H                     0.243710
    256 H                     0.297653
    257 S                     0.711335
    258 C                    -0.909185
    259 H                     0.269697
    260 H                     0.265450
    261 H                     0.269545
    262 O                    -0.683776
    263 C                    -1.033243
    264 H                     0.286757
    265 H                     0.257834
    266 H                     0.229017
    267 S                     1.002936
    268 C                    -0.891011
    269 H                     0.250457
    270 H                     0.259870
    271 H                     0.238477
    272 O                    -0.681948
    273 C                    -1.008211
    274 H                     0.308511
    275 H                     0.282073
    276 H                     0.221409
    277 S                     0.997580
    278 C                    -0.916017
    279 H                     0.258386
    280 H                     0.304026
    281 H                     0.255128
    282 O                    -0.706898
    283 C                    -1.015986
    284 H                     0.237625
    285 H                     0.262353
    286 H                     0.223501
    287 S                     0.985448
    288 C                    -1.001006
    289 H                     0.245901
    290 H                     0.262861
    291 H                     0.293575
    292 O                    -0.675439
    293 C                    -0.998349
    294 H                     0.274088
    295 H                     0.292691
    296 H                     0.203751
    297 S                     0.979568
    298 C                    -0.903421
    299 H                     0.231821
    300 H                     0.240243
    301 H                     0.278854
    302 O                    -0.765938
  ----------------------------------------
  Sum of atomic charges =     0.000000

 -----------------------------------------------------------------
                    Cartesian Multipole Moments
 -----------------------------------------------------------------
    Charge (ESU x 10^10)
                -0.0000
    Dipole Moment (Debye)
         X       3.9323      Y       3.9044      Z      18.9391
       Tot      19.7332
    Quadrupole Moments (Debye-Ang)
        XX    -783.2597     XY     199.2217     YY   -1031.4313
        XZ     396.5480     YZ     384.1712     ZZ     238.5152
    Octopole Moments (Debye-Ang^2)
       XXX  -56114.1934    XXY  -13045.9548    XYY  -18947.3548
       YYY  -67906.8760    XXZ  -19480.1676    XYZ    8993.2556
       YYZ  -27585.3412    XZZ     579.7739    YZZ    1680.6142
       ZZZ  -28603.0544
    Hexadecapole Moments (Debye-Ang^3)
      XXXX ************   XXXY ************   XXYY -788725.2039
      XYYY ************   YYYY ************   XXXZ ************
      XXYZ -372314.1217   XYYZ -556464.9803   YYYZ ************
      XXZZ -930589.5012   XYZZ  -27748.7657   YYZZ ************
      XZZZ -893177.9356   YZZZ -753332.0620   ZZZZ ************
 -----------------------------------------------------------------
Archival summary:
[...]
    2   0.0073596  -0.1046831  -0.0015784  -0.0251764  -0.0137973   0.0254826
    3   0.0025737   0.0299646   0.0053544  -0.0022861  -0.0121076   0.0263405
          157         158         159         160         161         162
    1  -0.0477485   0.0005714  -0.0036980   0.0345896  -0.0321666   0.0987007
    2   0.0254049  -0.0106106   0.0060767   0.0009378  -0.0261188   0.0477396
    3  -0.0074564  -0.0105484  -0.0313728  -0.0019164  -0.0114513   0.0001910
          163         164         165         166         167         168
    1  -0.0052300   0.0065301   0.0214365  -0.0346494  -0.0008639  -0.0050785
    2  -0.0021907  -0.0086096  -0.0201331   0.0137428   0.0186769   0.0050812
    3  -0.0022833  -0.0282588   0.0109451   0.0041650   0.0529025  -0.0084494
          169         170         171         172         173         174
    1   0.0163965  -0.0104905  -0.0356351   0.0930101  -0.0057383  -0.0137962
    2   0.0305827  -0.0105451  -0.0035711  -0.0036949   0.0014135  -0.0290704
    3  -0.0056516  -0.0288849   0.0059290  -0.0604539   0.0041943  -0.0047089
          175         176         177         178         179         180
    1  -0.0121871  -0.0167715   0.0040899   0.0026207  -0.0035273   0.0288494
    2   0.0120851   0.0231465  -0.0347771  -0.0029310  -0.0352205  -0.0032312
    3   0.0319354  -0.0103626  -0.0540706   0.0082411  -0.0013969  -0.0019865
          181         182         183         184         185         186
    1  -0.0009535   0.0349239   0.0100168   0.0311963  -0.0066126   0.0088727
    2   0.0149006   0.1033833   0.0028460  -0.0039839   0.0031148   0.0135228
    3   0.0306771  -0.0036586  -0.0006199  -0.0038117  -0.0322117   0.0327198
          187         188         189         190         191         192
    1  -0.0553844   0.0043729   0.0299907   0.0067556  -0.0137323   0.0207871
    2   0.0170758  -0.0045563  -0.0038948   0.0217874  -0.0274008  -0.0746527
    3   0.0162413   0.0080748  -0.0101162   0.0227790   0.0149423  -0.0768725
          193         194         195         196         197         198
    1   0.0063424   0.0105350  -0.0078481   0.0283452   0.0080828  -0.0071132
    2  -0.0058974   0.0163687  -0.0240526  -0.0072591   0.0484624   0.0038159
    3   0.0064422   0.0257692   0.0248334  -0.0156876  -0.0199840   0.0078239
          199         200         201         202         203         204
    1  -0.0273128   0.0057978  -0.0032500  -0.0497755   0.0063194   0.0037481
    2   0.0074840  -0.0295049   0.0210506  -0.0834122   0.0036850  -0.0155334
    3  -0.0106793   0.0157478   0.0300988  -0.0505082  -0.0024021  -0.0278104
          205         206         207         208         209         210
    1  -0.0161218   0.0239407  -0.0430892   0.0015727   0.0277238  -0.0151634
    2   0.0240856   0.0129092  -0.0232654   0.0033981  -0.0013872   0.0308908
    3  -0.0104348   0.0219786  -0.0309070   0.0079294   0.0187162  -0.0004958
          211         212         213         214         215         216
    1  -0.0257178   0.0754301  -0.0028089  -0.0247432   0.0057243   0.0224025
    2  -0.0140625  -0.0661143   0.0096806   0.0170747  -0.0058923   0.0228787
    3   0.0116246   0.0489935   0.0059773   0.0175891   0.0273917  -0.0113880
          217         218         219         220         221         222
    1   0.0447711  -0.0026885  -0.0271035   0.0260646  -0.0169945  -0.0909771
    2  -0.0243687   0.0037098   0.0098767   0.0183484  -0.0144429  -0.0486542
    3  -0.0143736  -0.0080033   0.0145869  -0.0128478  -0.0256027   0.0399845
          223         224         225         226         227         228
    1  -0.0052389  -0.0243897   0.0085519   0.0002299   0.0225263   0.0030757
    2  -0.0056232   0.0054819  -0.0244680  -0.0206237   0.0171352  -0.0005681
    3  -0.0021562  -0.0165630  -0.0199429   0.0254281  -0.0524468   0.0074369
          229         230         231         232         233         234
    1  -0.0178022   0.0169496   0.0362133  -0.0608987  -0.0055785   0.0313650
    2  -0.0054552  -0.0237451   0.0154751   0.0594928   0.0072128   0.0082552
    3   0.0279554  -0.0145279   0.0099505   0.0673400  -0.0017615   0.0021257
          235         236         237         238         239         240
    1   0.0056625  -0.0294130   0.0422953  -0.0072624  -0.0174016  -0.0029859
    2   0.0035112   0.0177958  -0.0363287  -0.0039007   0.0197175  -0.0268011
    3  -0.0381176  -0.0042501  -0.0057716   0.0016246  -0.0120823  -0.0203943
          241         242         243         244         245         246
    1  -0.0287327  -0.0318972  -0.0039795  -0.0200809   0.0162714  -0.0103276
    2  -0.0244794   0.0457757   0.0040932   0.0128160   0.0335396   0.0051347
    3   0.0129582   0.0970996  -0.0030153   0.0190126  -0.0042655  -0.0280280
          247         248         249         250         251         252
    1   0.0314900   0.0042282   0.0170596  -0.0181090   0.0302044  -0.0721733
    2   0.0065405  -0.0007819  -0.0256707   0.0010676   0.0187972  -0.0835940
    3   0.0496917  -0.0060614   0.0065541  -0.0266363  -0.0025538  -0.0111619
          253         254         255         256         257         258
    1   0.0046295   0.0241456  -0.0359602   0.0313627  -0.0388698  -0.0004810
    2   0.0078214   0.0114750   0.0202945  -0.0118903  -0.0005655   0.0029238
    3   0.0033099  -0.0211159   0.0014472   0.0172087  -0.0401526   0.0082013
          259         260         261         262         263         264
    1  -0.0085346   0.0198423  -0.0395729   0.0949364   0.0062142   0.0030037
    2  -0.0271138  -0.0023384   0.0074530  -0.0551251  -0.0085840  -0.0244900
    3   0.0093687   0.0334526   0.0001830  -0.0021313  -0.0035945   0.0234329
          265         266         267         268         269         270
    1  -0.0019281   0.0217436  -0.0016211  -0.0066879   0.0112994  -0.0295087
    2  -0.0046923   0.0206554   0.0198771  -0.0074000  -0.0202896   0.0035686
    3  -0.0327375   0.0041289   0.0546748  -0.0027880   0.0204381   0.0092610
          271         272         273         274         275         276
    1  -0.0014345  -0.0193704   0.0009813   0.0290235  -0.0091883  -0.0141333
    2  -0.0044294   0.0622728   0.0084653   0.0120689   0.0307891  -0.0259223
    3  -0.0319237  -0.0883486   0.0075788   0.0096068  -0.0035802   0.0143193
          277         278         279         280         281         282
    1  -0.0450214   0.0112875   0.0067864   0.0226709  -0.0212262   0.0885978
    2  -0.0128389  -0.0023512  -0.0170299   0.0198464  -0.0238748   0.0901251
    3  -0.0314332   0.0035021  -0.0254636   0.0186235   0.0056992  -0.0270432
          283         284         285         286         287         288
    1  -0.0049135   0.0224738  -0.0338303   0.0059000  -0.0124936   0.0057323
    2  -0.0018775   0.0132146   0.0130011  -0.0324028  -0.0365635   0.0010802
    3   0.0058145   0.0196224  -0.0090627   0.0075216  -0.0398968  -0.0032986
          289         290         291         292         293         294
    1   0.0099895   0.0110588   0.0143248  -0.0240164  -0.0040836   0.0178889
    2   0.0194537  -0.0313275   0.0110489   0.1078132   0.0045486  -0.0156322
    3   0.0213379   0.0026201  -0.0229432  -0.0076456  -0.0055921  -0.0225089
          295         296         297         298         299         300
    1  -0.0284426  -0.0169872  -0.0219354   0.0053766  -0.0004544   0.0289180
    2  -0.0081193   0.0335889   0.0063660   0.0008472   0.0337377  -0.0003059
    3  -0.0003087   0.0003450   0.0444477  -0.0051402  -0.0029357   0.0185686
          301         302
    1   0.0169980   0.0262724
    2  -0.0185678  -0.0930990
    3  -0.0200479  -0.0527287
  --- DONE ESP SUMMARY ---
Archival summary:
1\1\n0094.mhg0\SP\ProcedureUnspecified\6-31+G*\282856h22\ymao\FriMar1216:25:412021FriMar1216:25:412021\0\\#,ProcedureUnspecified,6-31+G*,\\0,1\S\O,1,1.49734\C,1,1.80668,2,105.077\H,3,1.09223,1,108.897,2,150.263,0\H,3,1.09296,1,100.124,2,40.6027,0\H,3,1.09332,1,109.686,2,-83.1167,0\C,1,1.8071,2,98.7695,3,93.2834,0\H,7,1.09275,1,109.708,2,-41.2076,0\H,7,1.09304,1,106.259,2,73.9914,0\H,7,1.09346,1,108.13,2,-168.654,0\Gh,4,2.09441,3,120.716,1,34.04,0\Gh,11,1.09759,4,125.135,3,64.5628,0\Gh,12,1.09713,11,104.894,4,-30.3032,0\Gh,12,1.53756,11,114.167,4,-145.077,0\Gh,14,1.09662,12,113.805,11,46.9595,0\Gh,14,1.09675,12,107.023,11,-66.8431,0\Gh,14,1.5374,12,110.449,11,176.183,0\Gh,17,1.0965,14,105.029,12,173.909,0\Gh,17,1.09747,14,110.607,12,-68.0397,0\Gh,17,1.53733,14,110.109,12,56.5067,0\Gh,20,1.09612,17,105.602,14,62.1963,0\Gh,20,1.0962,17,112.309,14,-175.411,0\Gh,12,1.5376,11,109.749,4,88.6365,0\Gh,23,1.09651,12,100.605,11,64.5866,0\Gh,23,1.46133,12,111.314,11,-55.0245,0\Gh,25,1.01325,23,116.944,12,-65.7471,0\Gh,25,1.37919,23,123.562,12,122.946,0\Gh,27,1.10562,25,113.011,23,175.768,0\Gh,27,1.21823,25,124.639,23,-6.35034,0\Gh,23,1.53719,12,108.102,11,-174.402,0\Gh,30,1.09688,23,107.811,12,-178.453,0\Gh,30,1.09739,23,113.101,12,65.8743,0\O,26,1.78809,25,167.178,23,-175.416,0\S,33,1.49676,26,149.14,25,-21.8037,0\C,34,1.80685,33,104.16,26,37.5287,0\H,35,1.09266,34,110.021,33,80.7133,0\H,35,1.09274,34,108.606,33,-167.074,0\H,35,1.09404,34,115.402,33,-43.8719,0\C,34,1.80707,33,105.606,26,-63.8057,0\H,39,1.09235,34,117.749,33,163.305,0\H,39,1.0932,34,108.551,33,-64.1007,0\H,39,1.09321,34,108.341,33,46.6279,0\H,31,2.17457,30,155.049,23,65.851,0\C,43,1.09209,31,117.348,30,43.3908,0\H,44,1.0926,43,101.646,31,-57.445,0\H,44,1.09367,43,111.396,31,61.2307,0\S,44,1.80729,43,110.572,31,-170.487,0\O,47,1.49707,44,98.8253,43,148.105,0\C,47,1.80687,44,94.0921,43,45.4377,0\H,49,1.09254,47,113.776,44,177.122,0\H,49,1.09285,47,106.691,44,68.2266,0\H,49,1.09292,47,109.194,44,-58.5274,0\H,24,2.2149,23,146.645,12,-22.7621,0\C,53,1.09294,24,145.369,23,-134.796,0\H,54,1.09264,53,103.522,24,-51.2559,0\H,54,1.09267,53,114.511,24,66.7309,0\S,54,1.80784,53,108.264,24,-167.796,0\O,57,1.49753,54,97.1754,53,67.9139,0\C,57,1.80589,54,94.2852,53,-39.909,0\H,59,1.09334,57,109.517,54,-62.2362,0\H,59,1.09344,57,110.776,54,176.08,0\H,59,1.09372,57,102.107,54,61.5058,0\H,52,2.251,49,119.266,47,-38.4637,0\C,63,1.09317,52,93.6169,49,-122.366,0\H,64,1.09265,63,115.265,52,72.6591,0\H,64,1.09342,63,106.433,52,-59.1955,0\S,64,1.80686,63,104.063,52,-172.049,0\O,67,1.49658,64,104.609,63,-67.3681,0\C,67,1.8066,64,92.9464,63,-172.948,0\H,69,1.09287,67,115.491,64,44.5327,0\H,69,1.09305,67,114.092,64,161.286,0\H,69,1.0938,67,107.429,64,-84.7371,0\H,15,2.26066,14,163.416,12,47.8399,0\C,73,1.09312,15,150.919,14,-156.888,0\H,74,1.0931,73,118.907,15,127.953,0\H,74,1.09335,73,102.326,15,-0.762142,0\S,74,1.80779,73,110.543,15,-106.468,0\O,77,1.49732,74,103.963,73,173.403,0\C,77,1.80654,74,96.0215,73,73.711,0\H,79,1.0928,77,121.635,74,-63.1223,0\H,79,1.09317,77,113.805,74,56.7001,0\H,79,1.09323,77,101.877,74,179.799,0\H,56,2.26537,54,110.895,53,-140.693,0\C,83,1.09294,56,151.826,54,-123.362,0\H,84,1.09286,83,104.49,56,27.8672,0\H,84,1.09328,83,112.284,56,149.002,0\S,84,1.80631,83,109.35,56,-98.2218,0\O,87,1.49691,84,101.229,83,80.1055,0\C,87,1.80708,84,95.3654,83,-173.78,0\H,89,1.09265,87,103.887,84,-59.8989,0\H,89,1.09297,87,118.903,84,56.9302,0\H,89,1.09324,87,104.958,84,-175.638,0\H,86,2.01047,84,125.678,83,35.3586,0\C,93,1.093,86,152.738,84,-94.2864,0\H,94,1.0926,93,116.133,86,46.9678,0\H,94,1.0931,93,100.615,86,168.091,0\S,94,1.80703,93,109.35,86,-74.3133,0\O,97,1.49747,94,105.505,93,88.1576,0\C,97,1.80735,94,97.3502,93,-166.353,0\H,99,1.0929,97,109.799,94,69.5619,0\H,99,1.09295,97,111.082,94,-61.5783,0\H,99,1.09307,97,104.77,94,178.918,0\H,8,2.30338,7,166.759,1,-53.3158,0\C,103,1.09254,8,127.393,7,111.229,0\H,104,1.09275,103,115.722,8,24.4945,0\H,104,1.09323,103,113.255,8,152.166,0\S,104,1.80678,103,99.8174,8,-90.5631,0\O,107,1.49692,104,104.832,103,179.351,0\C,107,1.80722,104,99.2471,103,-69.801,0\H,109,1.09273,107,107.915,104,83.5246,0\H,109,1.0928,107,110.223,104,-32.0777,0\H,109,1.09368,107,105.726,104,-158.835,0\O,9,2.3711,7,140.464,1,155.288,0\S,113,1.49699,9,123.435,7,124.783,0\C,114,1.80695,113,107.212,9,178.366,0\H,115,1.09254,114,105.841,113,-173.451,0\H,115,1.09259,114,111.956,113,-53.5827,0\H,115,1.0929,114,106.597,113,65.3306,0\C,114,1.80722,113,106.147,9,71.4599,0\H,119,1.09256,114,112.628,113,52.7338,0\H,119,1.09258,114,108.586,113,-66.3365,0\H,119,1.09303,114,109.709,113,177.906,0\O,110,2.37304,109,137.912,107,-52.9108,0\S,123,1.49702,110,116.651,109,-142.698,0\C,124,1.80653,123,106.216,110,-171.307,0\H,125,1.09257,124,110.837,123,-49.3807,0\H,125,1.09355,124,108.179,123,-167.708,0\H,125,1.09356,124,112.277,123,81.8009,0\C,124,1.80715,123,105.339,110,90.3791,0\H,129,1.09268,124,114.535,123,42.005,0\H,129,1.09283,124,106.866,123,-75.3624,0\H,129,1.09378,124,110.759,123,171.025,0\H,126,2.03754,125,142.302,124,51.0724,0\C,133,1.09263,126,125.88,125,-156.599,0\H,134,1.09278,133,109.805,126,-175.802,0\H,134,1.09387,133,104.213,126,56.5556,0\S,134,1.80719,133,107.349,126,-56.3704,0\O,137,1.49731,134,100.701,133,52.8507,0\C,137,1.80732,134,97.6974,133,159.777,0\H,139,1.0923,137,96.8122,134,177.089,0\H,139,1.09273,137,110.686,134,-74.3125,0\H,139,1.09279,137,117.67,134,54.1329,0\O,43,2.42736,31,82.0916,30,176.866,0\S,143,1.49731,43,152.208,31,-11.6107,0\C,144,1.80649,143,98.8683,43,73.7845,0\H,145,1.09253,144,108.953,143,171.304,0\H,145,1.09322,144,108.261,143,43.4587,0\H,145,1.09363,144,102.008,143,-74.2821,0\C,144,1.80751,143,106.942,43,-32.5798,0\H,149,1.09221,144,110.923,143,-84.1426,0\H,149,1.09302,144,115.8,143,32.8232,0\H,149,1.09316,144,115.559,143,156.95,0\H,6,2.44677,3,119.674,1,53.5178,0\C,153,1.09364,6,119.313,3,-107.658,0\H,154,1.09267,153,106.469,6,155.21,0\H,154,1.09345,153,105.038,6,37.5057,0\S,154,1.80675,153,112.943,6,-80.9166,0\O,157,1.49686,154,99.045,153,-155.236,0\C,157,1.80686,154,100.96,153,98.8916,0\H,159,1.09232,157,101.915,154,-77.2775,0\H,159,1.09277,157,108.899,154,42.5683,0\H,159,1.09349,157,110.537,154,157.164,0\H,161,2.12398,159,131.165,157,51.7575,0\C,163,1.09274,161,138.8,159,120.213,0\H,164,1.09311,163,112.636,161,178.79,0\H,164,1.09311,163,111.153,161,-51.5283,0\S,164,1.80688,163,96.9346,161,68.4072,0\O,167,1.49756,164,104.964,163,-42.476,0\C,167,1.80729,164,95.7204,163,-148.927,0\H,169,1.09245,167,105.868,164,62.7706,0\H,169,1.09296,167,115.064,164,176.421,0\H,169,1.09337,167,101.358,164,-54.1,0\H,166,2.19867,164,130.622,163,12.1027,0\C,173,1.09265,166,114.785,164,112.162,0\H,174,1.09279,173,105.496,166,-77.3419,0\H,174,1.09293,173,104.546,166,36.151,0\S,174,1.80779,173,116.841,166,162.144,0\O,177,1.49725,174,105.891,173,37.3899,0\C,177,1.80699,174,96.3124,173,-69.7459,0\H,179,1.09253,177,106.824,174,-64.095,0\H,179,1.09281,177,109.971,174,58.082,0\H,179,1.0933,177,107.015,174,176.642,0\H,162,2.36797,159,106.262,157,32.5164,0\C,183,1.09292,162,99.7598,159,102.025,0\H,184,1.09361,183,112.415,162,37.956,0\H,184,1.09367,183,117.738,162,-83.0841,0\S,184,1.80709,183,105.62,162,148.921,0\O,187,1.49696,184,99.1422,183,67.8447,0\C,187,1.8073,184,96.0834,183,166.807,0\H,189,1.09285,187,113.406,184,42.4637,0\H,189,1.09326,187,103.304,184,158.09,0\H,189,1.09374,187,104.667,184,-81.4564,0\O,176,2.39784,174,149.308,173,-161.711,0\S,193,1.49661,176,130.821,174,10.5447,0\C,194,1.80645,193,97.2542,176,-21.9175,0\H,195,1.09244,194,105.839,193,-63.147,0\H,195,1.09275,194,107.791,193,178.233,0\H,195,1.09343,194,116.513,193,52.0367,0\C,194,1.80651,193,110.893,176,73.6148,0\H,199,1.09292,194,106.631,193,-36.3233,0\H,199,1.09304,194,107.315,193,76.0984,0\H,199,1.09351,194,114.924,193,-165.328,0\H,202,2.44479,199,148.119,194,23.3178,0\C,203,1.0928,202,146.102,199,-35.4607,0\H,204,1.0928,203,112.499,202,-117.373,0\H,204,1.09283,203,109.183,202,3.80155,0\S,204,1.80682,203,110.987,202,125.659,0\O,207,1.49776,204,103.258,203,-62.3134,0\C,207,1.8072,204,95.2387,203,-173.702,0\H,209,1.09246,207,101.563,204,-63.9739,0\H,209,1.09295,207,109.477,204,176.163,0\H,209,1.09335,207,106.441,204,57.2253,0\H,212,1.91722,209,153.81,207,66.6394,0\C,213,1.09329,212,151.164,209,-112.555,0\H,214,1.09276,213,115.557,212,-10.0517,0\H,214,1.09313,213,115.441,212,-130.225,0\S,214,1.80675,213,108.311,212,115.652,0\O,217,1.49685,214,102.412,213,160.187,0\C,217,1.80695,214,99.9642,213,52.6027,0\H,219,1.09233,217,108.293,214,77.8721,0\H,219,1.09301,217,114.18,214,-40.6102,0\H,219,1.0932,217,113.042,214,-163.785,0\H,222,2.3991,219,136.381,217,136.782,0\C,223,1.0931,222,159.096,219,-58.6147,0\H,224,1.09226,223,109.112,222,-75.1517,0\H,224,1.09382,223,107.281,222,166.458,0\S,224,1.80647,223,105.576,222,52.2895,0\O,227,1.4976,224,104.707,223,34.3617,0\C,227,1.80688,224,90.3208,223,-70.3089,0\H,229,1.09262,227,115.357,224,-179.401,0\H,229,1.09324,227,108.326,224,59.7432,0\H,229,1.09362,227,113.643,224,-51.2629,0\O,147,2.45065,145,154.464,144,174.167,0\S,233,1.49709,147,145.788,145,-164.549,0\C,234,1.80674,233,97.2839,147,149.807,0\H,235,1.09241,234,105.137,233,-168.894,0\H,235,1.09283,234,105.721,233,-57.582,0\H,235,1.09398,234,112.954,233,69.163,0\C,234,1.80721,233,100.544,147,-113.108,0\H,239,1.09297,234,109.651,233,173.324,0\H,239,1.09311,234,108.448,233,-64.5715,0\H,239,1.09335,234,117.132,233,56.382,0\H,240,2.2007,239,131.372,234,-60.6784,0\C,243,1.09319,240,139.427,239,-26.1879,0\H,244,1.09256,243,103.273,240,11.2389,0\H,244,1.09305,243,107.98,240,126.027,0\S,244,1.80692,243,108.566,240,-108.875,0\O,247,1.49671,244,103.771,243,143.749,0\C,247,1.80747,244,99.6534,243,39.4129,0\H,249,1.09299,247,102.796,244,56.1125,0\H,249,1.09303,247,106.454,244,168.719,0\H,249,1.09314,247,119.149,244,-67.7596,0\H,241,2.22477,239,100.909,234,-138.303,0\C,253,1.09306,241,128.848,239,-152.613,0\H,254,1.09241,253,110.277,241,17.1368,0\H,254,1.09248,253,114.061,241,134.778,0\S,254,1.8075,253,105.012,241,-99.8916,0\O,257,1.4968,254,109.303,253,-167.5,0\C,257,1.80723,254,99.8073,253,-62.3044,0\H,259,1.0925,257,107.181,254,-84.0886,0\H,259,1.0929,257,109.232,254,33.8734,0\H,259,1.09311,257,110.84,254,160.009,0\O,202,2.45075,199,132.078,194,-155.386,0\S,263,1.49711,202,127.874,199,81.776,0\C,264,1.80622,263,102.026,202,25.7588,0\H,265,1.09288,264,112.255,263,172.872,0\H,265,1.09317,264,116.675,263,50.5372,0\H,265,1.0933,264,104.544,263,-73.9913,0\C,264,1.80703,263,104.733,202,117.835,0\H,269,1.09304,264,108.541,263,-162.182,0\H,269,1.0932,264,104.484,263,-48.3287,0\H,269,1.09333,264,116.699,263,75.9549,0\H,272,2.25595,269,120.785,264,4.49488,0\C,273,1.09307,272,151.894,269,-8.29053,0\H,274,1.09281,273,112.95,272,-65.2531,0\H,274,1.09341,273,106.762,272,57.6043,0\S,274,1.80681,273,103.97,272,175.061,0\O,277,1.49705,274,93.7115,273,-159.191,0\C,277,1.80694,274,98.0455,273,-61.6446,0\H,279,1.09276,277,103.277,274,168.728,0\H,279,1.09292,277,114.444,274,45.9903,0\H,279,1.0934,277,101.163,274,-72.059,0\H,58,2.55673,57,140.753,54,-4.96484,0\C,283,1.09281,58,129.982,57,-164.664,0\H,284,1.09308,283,111.913,58,157.35,0\H,284,1.0936,283,105.98,58,29.2403,0\S,284,1.80711,283,109.105,58,-81.1392,0\O,287,1.49641,284,107.775,283,-161.13,0\C,287,1.80737,284,95.3472,283,-59.5208,0\H,289,1.09239,287,110.616,284,-164.956,0\H,289,1.09338,287,101.253,284,-51.8277,0\H,289,1.09363,287,113.987,284,75.0167,0\H,37,2.56904,35,133.841,34,131.629,0\C,293,1.09338,37,139.412,35,-83.291,0\H,294,1.09294,293,113.65,37,143.668,0\H,294,1.09296,293,109.685,37,-91.8201,0\S,294,1.80658,293,106.777,37,32.0658,0\O,297,1.49656,294,106.176,293,48.7698,0\C,297,1.80696,294,96.0892,293,162.16,0\H,299,1.09254,297,111.318,294,-47.2433,0\H,299,1.09272,297,110.328,294,-171.063,0\H,299,1.09347,297,105.114,294,67.3536,0\\\@

 Total job time:  80.92s(wall), 282.92s(cpu) 
 Fri Mar 12 16:25:41 2021

        *************************************************************
        *                                                           *
        *  Thank you very much for using Q-Chem.  Have a nice day.  *
        *                                                           *
        *************************************************************


