                  Welcome to Q-Chem
     A Quantum Leap Into The Future Of Chemistry


 Q-Chem 5.2 (devel), Q-Chem, Inc., Pleasanton, CA (2019)

 Yihan Shao,  Zhengting Gan,  E. Epifanovsky,  A. T. B. Gilbert,  M. Wormit,  
 J. Kussmann,  A. W. Lange,  A. Behn,  Jia Deng,  Xintian Feng,  D. Ghosh,  
 M. Goldey,  P. R. Horn,  L. D. Jacobson,  I. Kaliman,  T. Kus,  A. Landau,  
 Jie Liu,  E. I. Proynov,  R. M. Richard,  R. P. Steele,  E. J. Sundstrom,  
 H. L. Woodcock III,  P. M. Zimmerman,  D. Zuev,  B. Alam,  B. Albrecht,  
 E. Alguire,  S. A. Baeppler,  D. Barton,  Z. Benda,  Y. A. Bernard,  
 E. J. Berquist,  K. B. Bravaya,  H. Burton,  K. Carter-Fenk,  D. Casanova,  
 Chun-Min Chang,  Yunqing Chen,  A. Chien,  K. D. Closser,  M. P. Coons,  
 S. Coriani,  S. Dasgupta,  A. L. Dempwolff,  M. Diedenhofen,  Hainam Do,  
 R. G. Edgar,  Po-Tung Fang,  S. Faraji,  S. Fatehi,  Qingguo Feng,  
 J. Fosso-Tande,  J. Gayvert,  Qinghui Ge,  A. Ghysels,  G. Gidofalvi,  
 J. Gomes,  J. Gonthier,  A. Gunina,  D. Hait,  M. W. D. Hanson-Heine,  
 P. H. P. Harbach,  A. W. Hauser,  M. F. Herbst,  J. E. Herr,  
 E. G. Hohenstein,  Z. C. Holden,  Kerwin Hui,  B. C. Huynh,  T.-C. Jagau,  
 Hyunjun Ji,  B. Kaduk,  K. Khistyaev,  Jaehoon Kim,  P. Klunzinger,  K. Koh,  
 D. Kosenkov,  L. Koulias,  T. Kowalczyk,  C. M. Krauter,  A. Kunitsa,  
 Ka Un Lao,  A. Laurent,  K. V. Lawler,  Joonho Lee,  D. Lefrancois,  
 S. Lehtola,  D. S. Levine,  Yi-Pei Li,  You-Sheng Lin,  Fenglai Liu,  
 Kuan-Yu Liu,  E. Livshits,  M. Loipersberger,  A. Luenser,  P. Manohar,  
 E. Mansoor,  S. F. Manzer,  Shan-Ping Mao,  Yuezhi Mao,  N. Mardirossian,  
 A. V. Marenich,  T. Markovich,  L. A. Martinez-Martinez,  S. A. Maurer,  
 N. J. Mayhall,  S. C. McKenzie,  J.-M. Mewes,  P. Morgante,  A. F. Morrison,  
 J. W. Mullinax,  K. Nanda,  T. S. Nguyen-Beck,  R. Olivares-Amaya,  
 J. A. Parkhill,  S. K. Paul,  F. Pavosevic,  Zheng Pei,  T. M. Perrine,  
 F. Plasser,  P. Pokhilko,  S. Prager,  A. Prociuk,  E. Ramos,  B. Rana,  
 D. R. Rehn,  F. Rob,  M. Scheurer,  M. Schneider,  N. Sergueev,  
 S. M. Sharada,  S. Sharma,  D. W. Small,  T. Stauch,  C. J. Stein,  
 T. Stein,  Yu-Chuan Su,  S. P. Veccham,  Zhen Tao,  A. J. W. Thom,  
 A. Tkatchenko,  T. Tsuchimochi,  N. M. Tubman,  L. Vogt,  M. L. Vidal,  
 O. Vydrov,  M. A. Watson,  J. Wenzel,  M. de Wergifosse,  T. A. Wesolowski,  
 A. White,  J. Witte,  A. Yamada,  Jun Yang,  K. Yao,  S. Yeganeh,  
 S. R. Yost,  Zhi-Qiang You,  A. Zech,  Igor Ying Zhang,  Xing Zhang,  
 Yan Zhao,  Ying Zhu,  B. R. Brooks,  G. K. L. Chan,  C. J. Cramer,  
 M. S. Gordon,  W. J. Hehre,  A. Klamt,  M. W. Schmidt,  C. D. Sherrill,  
 D. G. Truhlar,  A. Aspuru-Guzik,  R. Baer,  A. T. Bell,  N. A. Besley,  
 Jeng-Da Chai,  A. E. DePrince, III,  R. A. DiStasio Jr.,  A. Dreuw,  
 B. D. Dunietz,  T. R. Furlani,  Chao-Ping Hsu,  Yousung Jung,  Jing Kong,  
 D. S. Lambrecht,  WanZhen Liang,  C. Ochsenfeld,  V. A. Rassolov,  
 L. V. Slipchenko,  J. E. Subotnik,  T. Van Voorhis,  J. M. Herbert,  
 A. I. Krylov,  P. M. W. Gill,  M. Head-Gordon

 Contributors to earlier versions of Q-Chem not listed above: 
 R. D. Adamson,  B. Austin,  J. Baker,  G. J. O. Beran,  K. Brandhorst,  
 S. T. Brown,  E. F. C. Byrd,  A. K. Chakraborty,  C.-L. Cheng,  
 Siu Hung Chien,  D. M. Chipman,  D. L. Crittenden,  H. Dachsel,  
 R. J. Doerksen,  A. D. Dutoi,  L. Fusti-Molnar,  W. A. Goddard III,  
 A. Golubeva-Zadorozhnaya,  S. R. Gwaltney,  G. Hawkins,  A. Heyden,  
 S. Hirata,  G. Kedziora,  F. J. Keil,  C. Kelley,  Jihan Kim,  R. A. King,  
 R. Z. Khaliullin,  P. P. Korambath,  W. Kurlancheek,  A. M. Lee,  M. S. Lee,  
 S. V. Levchenko,  Ching Yeh Lin,  D. Liotard,  R. C. Lochan,  I. Lotan,  
 P. E. Maslen,  N. Nair,  D. P. O'Neill,  D. Neuhauser,  E. Neuscamman,  
 C. M. Oana,  R. Olson,  B. Peters,  R. Peverati,  P. A. Pieniazek,  
 Y. M. Rhee,  J. Ritchie,  M. A. Rohrdanz,  E. Rosta,  N. J. Russ,  
 H. F. Schaefer III,  N. E. Schultz,  N. Shenvi,  A. C. Simmonett,  A. Sodt,  
 D. Stuck,  K. S. Thanthiriwatte,  V. Vanovschi,  Tao Wang,  A. Warshel,  
 C. F. Williams,  Q. Wu,  X. Xu,  W. Zhang

 Please cite Q-Chem as follows:
 Y. Shao et al., Mol. Phys. 113, 184-215 (2015)
 DOI: 10.1080/00268976.2014.952696

 Q-Chem 5.2.2 for Intel X86 EM64T Linux

 Parts of Q-Chem use Armadillo 9.800.1 (Horizon Scraper).
 http://arma.sourceforge.net/

 Q-Chem begins on Thu Mar 11 13:37:30 2021  

Host: n0067.mhg0
0

     Scratch files written to /local/scratch/users/ymao/r7.00_frame_0074_almo_B3LYP_dp.in20210311133728//

Checking the input file for inconsistencies... 	...done.

--------------------------------------------------------------
User input:
--------------------------------------------------------------
$molecule
0 1
--
0 1
C    29.18900   25.93400   27.49300  
C    27.88700   26.75100   27.53600  
C    26.71600   25.84500   27.95200  
C    26.98100   25.14000   29.29200  
C    28.28900   24.33400   29.23300  
C    29.53300   25.07900   28.72400  
H    25.79900   26.42800   27.80500  
H    28.13200   27.49700   28.30100  
H    29.10600   25.29500   26.60500  
H    30.00900   26.63600   27.29900  
H    27.05500   25.95700   30.02000  
H    26.15600   24.56500   29.73100  
H    28.46900   24.07400   30.28400  
H    28.10800   23.42700   28.64400  
H    29.77800   25.76700   29.54300  
H    30.41100   24.44800   28.53500  
H    26.63400   25.09600   27.15500  
N    27.73600   27.35900   26.21500  
H    27.47800   26.71800   25.47400  
C    27.93700   28.68600   25.90000  
H    27.72500   28.91500   24.84000  
O    28.30700   29.48200   26.74400  
--
0 1
C    25.00600   30.79200   25.68500  
H    24.38300   31.46000   26.28600  
H    24.85200   29.82800   26.17600  
H    25.99800   31.24100   25.58400  
S    24.24000   30.47500   24.07900  
C    23.97700   32.20000   23.61300  
H    23.23400   32.54600   24.33600  
H    24.93400   32.72800   23.63400  
H    23.56200   32.21900   22.60200  
O    22.91200   30.17600   24.70200  
C    23.40900   24.28200   33.61300  
H    24.46200   24.39000   33.33900  
H    23.24500   24.58700   34.64900  
H    23.05100   23.27700   33.37400  
S    22.50400   25.50800   32.64200  
C    23.18300   24.94300   31.06600  
H    24.22900   24.70300   31.27300  
H    22.61800   24.10500   30.65000  
H    23.20700   25.68100   30.26000  
O    23.29700   26.76900   32.78900  
C    30.13700   27.48000   33.99000  
H    29.81500   28.45200   34.37300  
H    30.80200   26.92200   34.65400  
H    30.72500   27.60700   33.07700  
S    28.72600   26.39700   33.67300  
C    27.75800   27.52000   32.63900  
H    28.34400   27.82700   31.76900  
H    26.80400   27.05700   32.37300  
H    27.64600   28.45700   33.19000  
O    27.87000   26.07000   34.85600  
C    32.05900   22.82900   33.30600  
H    31.35600   21.99300   33.24700  
H    31.68100   23.75200   32.86000  
H    32.92800   22.53200   32.71300  
S    32.71900   23.07000   34.97100  
C    31.24700   23.93700   35.55900  
H    30.47100   23.16800   35.59600  
H    31.42200   24.39600   36.53600  
H    31.06100   24.71900   34.81800  
O    33.73300   24.12400   34.65200  
C    26.44700   29.32300   19.56100  
H    26.87600   28.33400   19.73800  
H    25.68700   29.18600   18.78800  
H    27.24900   29.91700   19.11400  
S    25.92100   30.08700   21.11200  
C    25.37000   31.61700   20.32400  
H    26.22600   32.02200   19.77800  
H    24.54800   31.40100   19.63700  
H    25.11000   32.27500   21.15700  
O    27.18700   30.52200   21.78300  
C    30.88600   20.61500   29.33000  
H    31.05200   21.68800   29.45500  
H    31.87400   20.16600   29.45700  
H    30.44000   20.48300   28.34100  
S    29.67400   20.02300   30.53300  
C    30.87600   19.47100   31.76400  
H    30.26100   19.00700   32.53900  
H    31.59200   18.72000   31.41900  
H    31.38300   20.37400   32.11400  
O    29.08900   18.78700   29.92300  
C    29.59400   35.92600   27.82100  
H    28.50700   35.82300   27.86800  
H    29.81900   36.87900   28.30800  
H    29.86900   36.14400   26.78600  
S    30.57200   34.58900   28.54200  
C    30.29100   33.24700   27.36500  
H    30.26500   32.30500   27.91900  
H    29.28300   33.42400   26.98400  
H    30.99100   33.29300   26.52700  
O    29.81500   34.24900   29.78900  
C    27.25500   22.79900   35.20800  
H    26.68700   21.87500   35.34400  
H    27.96500   22.96900   36.02200  
H    26.63200   23.69500   35.13800  
S    28.42100   22.64600   33.83600  
C    27.19900   22.11500   32.61500  
H    26.73300   21.16000   32.87000  
H    26.47400   22.93000   32.67900  
H    27.65000   22.01000   31.62500  
O    29.15000   21.35400   34.03500  
C    22.33700   21.85300   28.48700  
H    22.63400   22.47000   29.33900  
H    22.04100   22.52200   27.67400  
H    21.58900   21.07900   28.67800  
S    23.91400   21.14300   27.96600  
C    23.48800   19.92500   26.70100  
H    24.32600   19.27400   26.43900  
H    22.76600   19.18400   27.05200  
H    23.18900   20.35700   25.74200  
O    24.30500   20.22300   29.08100  
C    35.87400   22.67000   30.37200  
H    36.65600   23.22900   30.89200  
H    35.03400   22.49800   31.05000  
H    36.27300   21.71800   30.01300  
S    35.22800   23.53100   28.92100  
C    34.31500   22.08900   28.32700  
H    33.82800   22.20400   27.35600  
H    34.99100   21.24000   28.20000  
H    33.55100   21.92600   29.09200  
O    36.32100   23.42900   27.90200  
C    33.42300   24.81400   25.52300  
H    33.46800   25.90300   25.44100  
H    33.42500   24.50900   26.57300  
H    34.31000   24.29700   25.14900  
S    31.92600   24.22300   24.70200  
C    32.17600   22.43400   24.65000  
H    31.81500   21.98600   25.57900  
H    31.53300   22.17400   23.80500  
H    33.23500   22.28700   24.42500  
O    32.37300   24.71500   23.36000  
C    21.15800   25.38200   28.44600  
H    21.11500   24.84400   29.39600  
H    20.79900   24.71400   27.65900  
H    22.07000   25.84900   28.06500  
S    19.87700   26.65300   28.54200  
C    19.19500   26.14400   30.13600  
H    18.43900   26.88200   30.41600  
H    18.83600   25.11200   30.10300  
H    20.04800   26.20700   30.81600  
O    18.85100   26.24700   27.53000  
C    29.83700   32.96800   23.41000  
H    30.19000   33.98000   23.62000  
H    30.38300   32.27600   24.05700  
H    29.87600   32.82600   22.32700  
S    28.10800   33.01000   23.93500  
C    27.57900   33.89900   22.45400  
H    26.59500   34.35400   22.59500  
H    28.20600   34.77800   22.28200  
H    27.64200   33.25600   21.57300  
O    28.24100   34.13200   24.91700  
C    30.46000   28.76500   19.85500  
H    29.91000   28.92900   18.92500  
H    31.29400   28.10000   19.61300  
H    29.77000   28.27000   20.54300  
S    30.85000   30.39200   20.53700  
C    31.88700   30.88200   19.14100  
H    32.35600   31.76700   19.57900  
H    32.43000   29.97500   18.86400  
H    31.26700   31.18900   18.29500  
O    31.76200   30.09600   21.68700  
C    27.16700   26.24200   22.35100  
H    27.47800   26.90800   21.54100  
H    26.35400   25.60000   22.00200  
H    26.69100   26.82800   23.14000  
S    28.48400   25.29300   23.14400  
C    28.85200   24.17000   21.77800  
H    28.03900   23.47700   21.54500  
H    29.02400   24.79600   20.89900  
H    29.76300   23.65300   22.08900  
O    27.78600   24.47700   24.18800  
C    30.49400   31.18100   33.83700  
H    29.75500   31.28100   33.03700  
H    30.35900   30.36300   34.54800  
H    30.59000   32.13800   34.35600  
S    32.11800   30.93900   33.08200  
C    31.89200   32.19400   31.80100  
H    31.56500   31.75700   30.85400  
H    31.23900   33.02600   32.07700  
H    32.89500   32.58100   31.60100  
O    32.10200   29.61800   32.37900  
C    24.70900   29.77900   34.46300  
H    24.86200   30.07200   35.50500  
H    23.74500   29.26300   34.43200  
H    25.51100   29.08700   34.19700  
S    24.50000   31.15000   33.30400  
C    25.93400   32.13000   33.80200  
H    26.79100   31.56200   33.43400  
H    25.99000   33.12100   33.34400  
H    25.95500   32.22200   34.89100  
O    23.30500   31.86500   33.85400  
C    26.34700   34.89200   29.07300  
H    25.76800   34.63000   29.96200  
H    27.34000   34.44600   29.17100  
H    26.36600   35.98400   29.11200  
S    25.51600   34.30400   27.58000  
C    24.32700   35.65900   27.45400  
H    24.81500   36.49400   26.94500  
H    23.54400   35.32200   26.77000  
H    23.88600   35.94700   28.41200  
O    24.71500   33.19800   28.19200  
C    24.27400   27.17900   24.84300  
H    25.28700   27.34500   25.21800  
H    24.31500   27.23200   23.75200  
H    23.59900   27.91200   25.29300  
S    23.65000   25.65500   25.58600  
C    24.44600   24.42500   24.52900  
H    24.10000   24.71200   23.53200  
H    25.53900   24.41600   24.52900  
H    24.05800   23.43600   24.78300  
O    22.17300   25.57500   25.35600  
C    22.15700   29.21000   27.65200  
H    21.22100   29.71900   27.89600  
H    22.79400   29.74900   26.94500  
H    21.77300   28.36700   27.07300  
S    22.96700   28.46600   29.08600  
C    23.63000   29.98700   29.80200  
H    22.82700   30.51200   30.32500  
H    24.30300   29.64500   30.59200  
H    24.11300   30.62600   29.05800  
O    24.18800   27.83800   28.48900  
C    31.72800   29.79500   26.32700  
H    32.44400   30.29600   26.98400  
H    30.84200   30.40900   26.14200  
H    31.46100   28.80400   26.70300  
S    32.59400   29.41900   24.78600  
C    31.26000   28.45200   24.04200  
H    31.54700   28.31400   22.99700  
H    31.22500   27.47500   24.53100  
H    30.27900   28.93300   24.06600  
O    33.68200   28.53900   25.31600  
C    22.09000   28.84000   21.54300  
H    21.03600   28.55200   21.49800  
H    22.26800   28.80600   22.62100  
H    22.33200   29.82500   21.13500  
S    23.12100   27.61000   20.71300  
C    22.35900   26.21500   21.57200  
H    21.40700   25.92200   21.12300  
H    22.96900   25.32200   21.41200  
H    22.15700   26.48900   22.61000  
O    24.42400   27.56700   21.44900  
C    27.53700   20.22500   27.07500  
H    26.46200   20.41100   27.14800  
H    27.68300   19.16900   26.83300  
H    27.87900   20.39000   28.10000  
S    28.31600   21.38700   25.93200  
C    27.79700   20.57700   24.40200  
H    28.22500   21.18200   23.59800  
H    28.23500   19.58000   24.30700  
H    26.71000   20.52600   24.30200  
O    29.74800   20.95900   26.01800  
C    27.43300   31.31500   29.16600  
H    27.84900   31.74200   28.25000  
H    26.99400   30.36500   28.85100  
H    26.64900   31.99000   29.51700  
S    28.67100   31.16300   30.47400  
C    29.72000   29.92000   29.68600  
H    30.39800   30.42800   28.99600  
H    30.31300   29.34800   30.40400  
H    28.97300   29.35500   29.12200  
O    27.95100   30.47600   31.59300  
C    33.07400   27.39900   29.32200  
H    32.25200   27.60000   28.62900  
H    33.57000   28.37100   29.37800  
H    33.66000   26.57000   28.91600  
S    32.59400   26.78700   30.95300  
C    34.25800   26.29100   31.45100  
H    34.18300   25.72900   32.38600  
H    34.66500   25.54200   30.76600  
H    34.95300   27.13100   31.52400  
O    32.06900   25.45300   30.52500  
$end

$rem
JOBTYPE  SP
METHOD  B3LYP
BASIS  6-31+G(D)
SYMMETRY  FALSE
SYM_IGNORE  TRUE
MEM_TOTAL  16000
MEM_STATIC  8000
MAX_SUB_FILE_NUM  16000
BASIS_LIN_DEP_THRESH  6
THRESH  14
SCF_CONVERGENCE  8
GEN_SCFMAN  TRUE
SCF_GUESS  FRAGMO
FD_MAT_VEC_PROD  FALSE
XC_GRID  000075000302
NL_GRID  1
MAX_SCF_CYCLES  200
FRGM_METHOD  STOLL
SCFMI_MODE  1
$end

$development
almo_efield  1
$end

$rem_frgm
SCF_CONVERGENCE  4
$end

--------------------------------------------------------------
 ----------------------------------------------------------------
             Standard Nuclear Orientation (Angstroms)
    I     Atom           X                Y                Z
 ----------------------------------------------------------------
    1      C      29.1890000000    25.9340000000    27.4930000000
    2      C      27.8870000000    26.7510000000    27.5360000000
    3      C      26.7160000000    25.8450000000    27.9520000000
    4      C      26.9810000000    25.1400000000    29.2920000000
    5      C      28.2890000000    24.3340000000    29.2330000000
    6      C      29.5330000000    25.0790000000    28.7240000000
    7      H      25.7990000000    26.4280000000    27.8050000000
    8      H      28.1320000000    27.4970000000    28.3010000000
    9      H      29.1060000000    25.2950000000    26.6050000000
   10      H      30.0090000000    26.6360000000    27.2990000000
   11      H      27.0550000000    25.9570000000    30.0200000000
   12      H      26.1560000000    24.5650000000    29.7310000000
   13      H      28.4690000000    24.0740000000    30.2840000000
   14      H      28.1080000000    23.4270000000    28.6440000000
   15      H      29.7780000000    25.7670000000    29.5430000000
   16      H      30.4110000000    24.4480000000    28.5350000000
   17      H      26.6340000000    25.0960000000    27.1550000000
   18      N      27.7360000000    27.3590000000    26.2150000000
   19      H      27.4780000000    26.7180000000    25.4740000000
   20      C      27.9370000000    28.6860000000    25.9000000000
   21      H      27.7250000000    28.9150000000    24.8400000000
   22      O      28.3070000000    29.4820000000    26.7440000000
   23      C      25.0060000000    30.7920000000    25.6850000000
   24      H      24.3830000000    31.4600000000    26.2860000000
   25      H      24.8520000000    29.8280000000    26.1760000000
   26      H      25.9980000000    31.2410000000    25.5840000000
   27      S      24.2400000000    30.4750000000    24.0790000000
   28      C      23.9770000000    32.2000000000    23.6130000000
   29      H      23.2340000000    32.5460000000    24.3360000000
   30      H      24.9340000000    32.7280000000    23.6340000000
   31      H      23.5620000000    32.2190000000    22.6020000000
   32      O      22.9120000000    30.1760000000    24.7020000000
   33      C      23.4090000000    24.2820000000    33.6130000000
   34      H      24.4620000000    24.3900000000    33.3390000000
   35      H      23.2450000000    24.5870000000    34.6490000000
   36      H      23.0510000000    23.2770000000    33.3740000000
   37      S      22.5040000000    25.5080000000    32.6420000000
   38      C      23.1830000000    24.9430000000    31.0660000000
   39      H      24.2290000000    24.7030000000    31.2730000000
   40      H      22.6180000000    24.1050000000    30.6500000000
   41      H      23.2070000000    25.6810000000    30.2600000000
   42      O      23.2970000000    26.7690000000    32.7890000000
   43      C      30.1370000000    27.4800000000    33.9900000000
   44      H      29.8150000000    28.4520000000    34.3730000000
   45      H      30.8020000000    26.9220000000    34.6540000000
   46      H      30.7250000000    27.6070000000    33.0770000000
   47      S      28.7260000000    26.3970000000    33.6730000000
   48      C      27.7580000000    27.5200000000    32.6390000000
   49      H      28.3440000000    27.8270000000    31.7690000000
   50      H      26.8040000000    27.0570000000    32.3730000000
   51      H      27.6460000000    28.4570000000    33.1900000000
   52      O      27.8700000000    26.0700000000    34.8560000000
   53      C      32.0590000000    22.8290000000    33.3060000000
   54      H      31.3560000000    21.9930000000    33.2470000000
   55      H      31.6810000000    23.7520000000    32.8600000000
   56      H      32.9280000000    22.5320000000    32.7130000000
   57      S      32.7190000000    23.0700000000    34.9710000000
   58      C      31.2470000000    23.9370000000    35.5590000000
   59      H      30.4710000000    23.1680000000    35.5960000000
   60      H      31.4220000000    24.3960000000    36.5360000000
   61      H      31.0610000000    24.7190000000    34.8180000000
   62      O      33.7330000000    24.1240000000    34.6520000000
   63      C      26.4470000000    29.3230000000    19.5610000000
   64      H      26.8760000000    28.3340000000    19.7380000000
   65      H      25.6870000000    29.1860000000    18.7880000000
   66      H      27.2490000000    29.9170000000    19.1140000000
   67      S      25.9210000000    30.0870000000    21.1120000000
   68      C      25.3700000000    31.6170000000    20.3240000000
   69      H      26.2260000000    32.0220000000    19.7780000000
   70      H      24.5480000000    31.4010000000    19.6370000000
   71      H      25.1100000000    32.2750000000    21.1570000000
   72      O      27.1870000000    30.5220000000    21.7830000000
   73      C      30.8860000000    20.6150000000    29.3300000000
   74      H      31.0520000000    21.6880000000    29.4550000000
   75      H      31.8740000000    20.1660000000    29.4570000000
   76      H      30.4400000000    20.4830000000    28.3410000000
   77      S      29.6740000000    20.0230000000    30.5330000000
   78      C      30.8760000000    19.4710000000    31.7640000000
   79      H      30.2610000000    19.0070000000    32.5390000000
   80      H      31.5920000000    18.7200000000    31.4190000000
   81      H      31.3830000000    20.3740000000    32.1140000000
   82      O      29.0890000000    18.7870000000    29.9230000000
   83      C      29.5940000000    35.9260000000    27.8210000000
   84      H      28.5070000000    35.8230000000    27.8680000000
   85      H      29.8190000000    36.8790000000    28.3080000000
   86      H      29.8690000000    36.1440000000    26.7860000000
   87      S      30.5720000000    34.5890000000    28.5420000000
   88      C      30.2910000000    33.2470000000    27.3650000000
   89      H      30.2650000000    32.3050000000    27.9190000000
   90      H      29.2830000000    33.4240000000    26.9840000000
   91      H      30.9910000000    33.2930000000    26.5270000000
   92      O      29.8150000000    34.2490000000    29.7890000000
   93      C      27.2550000000    22.7990000000    35.2080000000
   94      H      26.6870000000    21.8750000000    35.3440000000
   95      H      27.9650000000    22.9690000000    36.0220000000
   96      H      26.6320000000    23.6950000000    35.1380000000
   97      S      28.4210000000    22.6460000000    33.8360000000
   98      C      27.1990000000    22.1150000000    32.6150000000
   99      H      26.7330000000    21.1600000000    32.8700000000
  100      H      26.4740000000    22.9300000000    32.6790000000
  101      H      27.6500000000    22.0100000000    31.6250000000
  102      O      29.1500000000    21.3540000000    34.0350000000
  103      C      22.3370000000    21.8530000000    28.4870000000
  104      H      22.6340000000    22.4700000000    29.3390000000
  105      H      22.0410000000    22.5220000000    27.6740000000
  106      H      21.5890000000    21.0790000000    28.6780000000
  107      S      23.9140000000    21.1430000000    27.9660000000
  108      C      23.4880000000    19.9250000000    26.7010000000
  109      H      24.3260000000    19.2740000000    26.4390000000
  110      H      22.7660000000    19.1840000000    27.0520000000
  111      H      23.1890000000    20.3570000000    25.7420000000
  112      O      24.3050000000    20.2230000000    29.0810000000
  113      C      35.8740000000    22.6700000000    30.3720000000
  114      H      36.6560000000    23.2290000000    30.8920000000
  115      H      35.0340000000    22.4980000000    31.0500000000
  116      H      36.2730000000    21.7180000000    30.0130000000
  117      S      35.2280000000    23.5310000000    28.9210000000
  118      C      34.3150000000    22.0890000000    28.3270000000
  119      H      33.8280000000    22.2040000000    27.3560000000
  120      H      34.9910000000    21.2400000000    28.2000000000
  121      H      33.5510000000    21.9260000000    29.0920000000
  122      O      36.3210000000    23.4290000000    27.9020000000
  123      C      33.4230000000    24.8140000000    25.5230000000
  124      H      33.4680000000    25.9030000000    25.4410000000
  125      H      33.4250000000    24.5090000000    26.5730000000
  126      H      34.3100000000    24.2970000000    25.1490000000
  127      S      31.9260000000    24.2230000000    24.7020000000
  128      C      32.1760000000    22.4340000000    24.6500000000
  129      H      31.8150000000    21.9860000000    25.5790000000
  130      H      31.5330000000    22.1740000000    23.8050000000
  131      H      33.2350000000    22.2870000000    24.4250000000
  132      O      32.3730000000    24.7150000000    23.3600000000
  133      C      21.1580000000    25.3820000000    28.4460000000
  134      H      21.1150000000    24.8440000000    29.3960000000
  135      H      20.7990000000    24.7140000000    27.6590000000
  136      H      22.0700000000    25.8490000000    28.0650000000
  137      S      19.8770000000    26.6530000000    28.5420000000
  138      C      19.1950000000    26.1440000000    30.1360000000
  139      H      18.4390000000    26.8820000000    30.4160000000
  140      H      18.8360000000    25.1120000000    30.1030000000
  141      H      20.0480000000    26.2070000000    30.8160000000
  142      O      18.8510000000    26.2470000000    27.5300000000
  143      C      29.8370000000    32.9680000000    23.4100000000
  144      H      30.1900000000    33.9800000000    23.6200000000
  145      H      30.3830000000    32.2760000000    24.0570000000
  146      H      29.8760000000    32.8260000000    22.3270000000
  147      S      28.1080000000    33.0100000000    23.9350000000
  148      C      27.5790000000    33.8990000000    22.4540000000
  149      H      26.5950000000    34.3540000000    22.5950000000
  150      H      28.2060000000    34.7780000000    22.2820000000
  151      H      27.6420000000    33.2560000000    21.5730000000
  152      O      28.2410000000    34.1320000000    24.9170000000
  153      C      30.4600000000    28.7650000000    19.8550000000
  154      H      29.9100000000    28.9290000000    18.9250000000
  155      H      31.2940000000    28.1000000000    19.6130000000
  156      H      29.7700000000    28.2700000000    20.5430000000
  157      S      30.8500000000    30.3920000000    20.5370000000
  158      C      31.8870000000    30.8820000000    19.1410000000
  159      H      32.3560000000    31.7670000000    19.5790000000
  160      H      32.4300000000    29.9750000000    18.8640000000
  161      H      31.2670000000    31.1890000000    18.2950000000
  162      O      31.7620000000    30.0960000000    21.6870000000
  163      C      27.1670000000    26.2420000000    22.3510000000
  164      H      27.4780000000    26.9080000000    21.5410000000
  165      H      26.3540000000    25.6000000000    22.0020000000
  166      H      26.6910000000    26.8280000000    23.1400000000
  167      S      28.4840000000    25.2930000000    23.1440000000
  168      C      28.8520000000    24.1700000000    21.7780000000
  169      H      28.0390000000    23.4770000000    21.5450000000
  170      H      29.0240000000    24.7960000000    20.8990000000
  171      H      29.7630000000    23.6530000000    22.0890000000
  172      O      27.7860000000    24.4770000000    24.1880000000
  173      C      30.4940000000    31.1810000000    33.8370000000
  174      H      29.7550000000    31.2810000000    33.0370000000
  175      H      30.3590000000    30.3630000000    34.5480000000
  176      H      30.5900000000    32.1380000000    34.3560000000
  177      S      32.1180000000    30.9390000000    33.0820000000
  178      C      31.8920000000    32.1940000000    31.8010000000
  179      H      31.5650000000    31.7570000000    30.8540000000
  180      H      31.2390000000    33.0260000000    32.0770000000
  181      H      32.8950000000    32.5810000000    31.6010000000
  182      O      32.1020000000    29.6180000000    32.3790000000
  183      C      24.7090000000    29.7790000000    34.4630000000
  184      H      24.8620000000    30.0720000000    35.5050000000
  185      H      23.7450000000    29.2630000000    34.4320000000
  186      H      25.5110000000    29.0870000000    34.1970000000
  187      S      24.5000000000    31.1500000000    33.3040000000
  188      C      25.9340000000    32.1300000000    33.8020000000
  189      H      26.7910000000    31.5620000000    33.4340000000
  190      H      25.9900000000    33.1210000000    33.3440000000
  191      H      25.9550000000    32.2220000000    34.8910000000
  192      O      23.3050000000    31.8650000000    33.8540000000
  193      C      26.3470000000    34.8920000000    29.0730000000
  194      H      25.7680000000    34.6300000000    29.9620000000
  195      H      27.3400000000    34.4460000000    29.1710000000
  196      H      26.3660000000    35.9840000000    29.1120000000
  197      S      25.5160000000    34.3040000000    27.5800000000
  198      C      24.3270000000    35.6590000000    27.4540000000
  199      H      24.8150000000    36.4940000000    26.9450000000
  200      H      23.5440000000    35.3220000000    26.7700000000
  201      H      23.8860000000    35.9470000000    28.4120000000
  202      O      24.7150000000    33.1980000000    28.1920000000
  203      C      24.2740000000    27.1790000000    24.8430000000
  204      H      25.2870000000    27.3450000000    25.2180000000
  205      H      24.3150000000    27.2320000000    23.7520000000
  206      H      23.5990000000    27.9120000000    25.2930000000
  207      S      23.6500000000    25.6550000000    25.5860000000
  208      C      24.4460000000    24.4250000000    24.5290000000
  209      H      24.1000000000    24.7120000000    23.5320000000
  210      H      25.5390000000    24.4160000000    24.5290000000
  211      H      24.0580000000    23.4360000000    24.7830000000
  212      O      22.1730000000    25.5750000000    25.3560000000
  213      C      22.1570000000    29.2100000000    27.6520000000
  214      H      21.2210000000    29.7190000000    27.8960000000
  215      H      22.7940000000    29.7490000000    26.9450000000
  216      H      21.7730000000    28.3670000000    27.0730000000
  217      S      22.9670000000    28.4660000000    29.0860000000
  218      C      23.6300000000    29.9870000000    29.8020000000
  219      H      22.8270000000    30.5120000000    30.3250000000
  220      H      24.3030000000    29.6450000000    30.5920000000
  221      H      24.1130000000    30.6260000000    29.0580000000
  222      O      24.1880000000    27.8380000000    28.4890000000
  223      C      31.7280000000    29.7950000000    26.3270000000
  224      H      32.4440000000    30.2960000000    26.9840000000
  225      H      30.8420000000    30.4090000000    26.1420000000
  226      H      31.4610000000    28.8040000000    26.7030000000
  227      S      32.5940000000    29.4190000000    24.7860000000
  228      C      31.2600000000    28.4520000000    24.0420000000
  229      H      31.5470000000    28.3140000000    22.9970000000
  230      H      31.2250000000    27.4750000000    24.5310000000
  231      H      30.2790000000    28.9330000000    24.0660000000
  232      O      33.6820000000    28.5390000000    25.3160000000
  233      C      22.0900000000    28.8400000000    21.5430000000
  234      H      21.0360000000    28.5520000000    21.4980000000
  235      H      22.2680000000    28.8060000000    22.6210000000
  236      H      22.3320000000    29.8250000000    21.1350000000
  237      S      23.1210000000    27.6100000000    20.7130000000
  238      C      22.3590000000    26.2150000000    21.5720000000
  239      H      21.4070000000    25.9220000000    21.1230000000
  240      H      22.9690000000    25.3220000000    21.4120000000
  241      H      22.1570000000    26.4890000000    22.6100000000
  242      O      24.4240000000    27.5670000000    21.4490000000
  243      C      27.5370000000    20.2250000000    27.0750000000
  244      H      26.4620000000    20.4110000000    27.1480000000
  245      H      27.6830000000    19.1690000000    26.8330000000
  246      H      27.8790000000    20.3900000000    28.1000000000
  247      S      28.3160000000    21.3870000000    25.9320000000
  248      C      27.7970000000    20.5770000000    24.4020000000
  249      H      28.2250000000    21.1820000000    23.5980000000
  250      H      28.2350000000    19.5800000000    24.3070000000
  251      H      26.7100000000    20.5260000000    24.3020000000
  252      O      29.7480000000    20.9590000000    26.0180000000
  253      C      27.4330000000    31.3150000000    29.1660000000
  254      H      27.8490000000    31.7420000000    28.2500000000
  255      H      26.9940000000    30.3650000000    28.8510000000
  256      H      26.6490000000    31.9900000000    29.5170000000
  257      S      28.6710000000    31.1630000000    30.4740000000
  258      C      29.7200000000    29.9200000000    29.6860000000
  259      H      30.3980000000    30.4280000000    28.9960000000
  260      H      30.3130000000    29.3480000000    30.4040000000
  261      H      28.9730000000    29.3550000000    29.1220000000
  262      O      27.9510000000    30.4760000000    31.5930000000
  263      C      33.0740000000    27.3990000000    29.3220000000
  264      H      32.2520000000    27.6000000000    28.6290000000
  265      H      33.5700000000    28.3710000000    29.3780000000
  266      H      33.6600000000    26.5700000000    28.9160000000
  267      S      32.5940000000    26.7870000000    30.9530000000
  268      C      34.2580000000    26.2910000000    31.4510000000
  269      H      34.1830000000    25.7290000000    32.3860000000
  270      H      34.6650000000    25.5420000000    30.7660000000
  271      H      34.9530000000    27.1310000000    31.5240000000
  272      O      32.0690000000    25.4530000000    30.5250000000
 ----------------------------------------------------------------
 Nuclear Repulsion Energy =       42791.55032351 hartrees
 There are      560 alpha and      560 beta electrons
 Requested basis set is 6-31+G(d)
 There are 896 shells and 2497 basis functions

 Total QAlloc Memory Limit  16000 MB
 Mega-Array Size      7821 MB
 MEM_STATIC part      8000 MB
 A cutoff of  1.0D-14 yielded 158976 shell pairs
 There are   1381648 function pairs
 Smallest overlap matrix eigenvalue = 8.20E-07
 Linear dependence detected in AO basis
 Tighter screening thresholds may be required for diffuse basis sets
 Use S2THRESH > 14 and THRESH = 14 in case of SCF convergence issues
 Number of orthogonalized atomic orbitals = 2496
 Maximum deviation from orthogonality = 1.602E-10

 Scale SEOQF with 1.000000e-03/1.000000e-03/1.000000e-03

 Standard Electronic Orientation quadrupole field applied
 Nucleus-field energy     =    -0.0000000313 hartrees
Attempting to make child job directory: /local/scratch/users/ymao/r7.00_frame_0074_almo_B3LYP_dp.in20210311133728//Frg1/
Attempting to make child job directory: /local/scratch/users/ymao/r7.00_frame_0074_almo_B3LYP_dp.in20210311133728//Frg2/
Creating input file /local/scratch/users/ymao/r7.00_frame_0074_almo_B3LYP_dp.in20210311133728/Frg1.input
using default PutDataFrgm: nothing
calling putenv with: QCSCRATCH=/local/scratch/users/ymao/r7.00_frame_0074_almo_B3LYP_dp.in20210311133728/ 
Spawning Job For Fragment 0
Done Job For Fragment 0
calling putenv with: QCSCRATCH=/local/scratch/users/ymao 
calling putenv with: QCTHREADS=8 
Creating input file /local/scratch/users/ymao/r7.00_frame_0074_almo_B3LYP_dp.in20210311133728/Frg2.input
using default PutDataFrgm: nothing
calling putenv with: QCSCRATCH=/local/scratch/users/ymao/r7.00_frame_0074_almo_B3LYP_dp.in20210311133728/ 
Spawning Job For Fragment 1
Done Job For Fragment 1
calling putenv with: QCSCRATCH=/local/scratch/users/ymao 
calling putenv with: QCTHREADS=8 
 Time for running child jobs:  CPU 1.10 s  wall 18036.54 s

 -----------------------------------------------------------------------
  General SCF calculation program by
  Eric Jon Sundstrom, Paul Horn, Yuezhi Mao, Dmitri Zuev, Alec White,
  David Stuck, Shaama M.S., Shane Yost, Joonho Lee, David Small,
  Daniel Levine, Susi Lehtola, Hugh Burton, Evgeny Epifanovsky,
  Bang C. Huynh
 -----------------------------------------------------------------------
Performing Restricted Closed Shell SCFMI
Doing General SCFMI
 Exchange:     0.2000 Hartree-Fock + 0.0800 Slater + 0.7200 B88
 Correlation:  0.1900 VWN1RPA + 0.8100 LYP
 Using Euler-Maclaurin-Lebedev (75,302) quadrature formula
performing fock build before subrot guess so that all methods have access
Printing subrot_rss_gen Method Specification:
Occupied Subspace Method is 0
Virtual Subspace Method is 0
Energy prior to optimization (guess energy) = -14234.331025233419
Begin Timing: Total SCF Calculation
begin iterations for algorithm: DIIS         
the SCF tolerance is set to 1.00e-08
    1  -14234.3310252334      4.29e-05     00000 
    2  -14234.3302222605      6.62e-05     00000 
    3  -14234.3394018585      1.59e-05     00000 
    4  -14234.3399311048      6.35e-06     00000 
    5  -14234.3400327518      3.00e-06     00000 
    6  -14234.3400522615      1.72e-06     00000 
    7  -14234.3400579062      1.08e-06     00000 
    8  -14234.3400604151      5.08e-07     00000 
    9  -14234.3400609028      2.99e-07     00000 
   10  -14234.3400610548      1.80e-07     00000 
   11  -14234.3400611045      1.18e-07     00000 
   12  -14234.3400611309      5.67e-08     00000 
   13  -14234.3400611377      2.68e-08     00000 
   14  -14234.3400611390      1.89e-08     00000 
   15  -14234.3400611397      1.15e-08     00000 
   16  -14234.3400611399      4.56e-09     00000 Convergence criterion met
write pseudocanon occs and virts to disk
write pseudocanon orbital energies to disk
Timing for Total SCF: 44542.00s (wall), 353338.02s (cpu)
SCFMI Energy  -14234.3400611399
<S^2>            0.00000
 Total energy in the final basis set =   -14234.3400611399
    ==================================================
        The end of Object-Oriented SCFman: SCFMI      
    ==================================================
 
 --------------------------------------------------------------
 
                    Orbital Energies (a.u.)
 --------------------------------------------------------------
 
 Alpha MOs
 -- Occupied --
-89.0292 -89.0291 -89.0204 -89.0197 -89.0162 -89.0127 -89.0094 -89.0082
-89.0074 -89.0047 -88.9963 -88.9947 -88.9898 -88.9896 -88.9862 -88.9854
-88.9851 -88.9826 -88.9812 -88.9805 -88.9789 -88.9775 -88.9751 -88.9747
-88.9707 -19.1507 -19.1416 -19.1387 -19.1370 -19.1354 -19.1275 -19.1235
-19.1192 -19.1177 -19.1167 -19.1167 -19.1133 -19.1119 -19.1081 -19.1074
-19.1057 -19.1025 -19.1011 -19.0998 -19.0957 -19.0932 -19.0927 -19.0909
-19.0873 -19.0848 -19.0826 -14.3729 -10.3032 -10.2520 -10.2477 -10.2420
-10.2398 -10.2394 -10.2391 -10.2361 -10.2353 -10.2341 -10.2331 -10.2310
-10.2308 -10.2279 -10.2251 -10.2241 -10.2238 -10.2235 -10.2190 -10.2169
-10.2161 -10.2161 -10.2142 -10.2120 -10.2114 -10.2103 -10.2100 -10.2076
-10.2064 -10.2053 -10.2045 -10.2043 -10.2025 -10.2023 -10.2017 -10.2010
-10.2002 -10.1996 -10.1971 -10.1959 -10.1956 -10.1948 -10.1938 -10.1930
-10.1912 -10.1909 -10.1907 -10.1904 -10.1885 -10.1880 -10.1853 -10.1838
-10.1777 -10.1700 -10.1685 -10.1652 -10.1634  -8.0754  -8.0746  -8.0662
 -8.0656  -8.0620  -8.0592  -8.0553  -8.0542  -8.0532  -8.0507  -8.0420
 -8.0411  -8.0358  -8.0357  -8.0324  -8.0312  -8.0308  -8.0291  -8.0270
 -8.0268  -8.0246  -8.0233  -8.0215  -8.0213  -8.0165  -6.0397  -6.0389
 -6.0383  -6.0377  -6.0330  -6.0317  -6.0304  -6.0299  -6.0292  -6.0288
 -6.0265  -6.0253  -6.0239  -6.0234  -6.0231  -6.0222  -6.0196  -6.0191
 -6.0186  -6.0185  -6.0175  -6.0175  -6.0169  -6.0167  -6.0149  -6.0138
 -6.0128  -6.0112  -6.0105  -6.0083  -6.0063  -6.0055  -6.0051  -6.0041
 -6.0002  -5.9999  -5.9993  -5.9991  -5.9988  -5.9983  -5.9967  -5.9958
 -5.9954  -5.9952  -5.9943  -5.9939  -5.9934  -5.9933  -5.9927  -5.9922
 -5.9912  -5.9910  -5.9900  -5.9898  -5.9898  -5.9889  -5.9884  -5.9883
 -5.9878  -5.9876  -5.9865  -5.9864  -5.9859  -5.9857  -5.9846  -5.9845
 -5.9845  -5.9843  -5.9818  -5.9809  -5.9807  -5.9798  -5.9789  -5.9783
 -5.9739  -1.0584  -1.0554  -1.0547  -1.0443  -1.0437  -1.0432  -1.0407
 -1.0316  -1.0314  -1.0247  -1.0242  -1.0232  -1.0203  -1.0194  -1.0157
 -1.0134  -1.0113  -1.0068  -1.0064  -1.0057  -1.0048  -1.0044  -1.0038
 -1.0001  -0.9995  -0.9909  -0.9304  -0.8339  -0.8277  -0.8251  -0.8176
 -0.8161  -0.8143  -0.8074  -0.8064  -0.8050  -0.8046  -0.8026  -0.8010
 -0.7967  -0.7929  -0.7906  -0.7899  -0.7879  -0.7879  -0.7848  -0.7836
 -0.7808  -0.7791  -0.7768  -0.7725  -0.7695  -0.7680  -0.7614  -0.7515
 -0.7475  -0.7468  -0.7453  -0.7437  -0.7406  -0.7402  -0.7381  -0.7352
 -0.7309  -0.7291  -0.7270  -0.7237  -0.7212  -0.7188  -0.7154  -0.7145
 -0.7140  -0.7114  -0.7085  -0.7072  -0.7068  -0.7054  -0.7049  -0.7042
 -0.6989  -0.6486  -0.6412  -0.6355  -0.6351  -0.6321  -0.6296  -0.6269
 -0.6240  -0.6213  -0.6213  -0.6179  -0.6094  -0.6092  -0.6071  -0.6047
 -0.6044  -0.6001  -0.5975  -0.5973  -0.5958  -0.5936  -0.5926  -0.5921
 -0.5916  -0.5894  -0.5878  -0.5847  -0.5833  -0.5593  -0.5261  -0.5198
 -0.5124  -0.5115  -0.5040  -0.4999  -0.4979  -0.4964  -0.4964  -0.4940
 -0.4935  -0.4911  -0.4905  -0.4901  -0.4882  -0.4881  -0.4864  -0.4842
 -0.4838  -0.4823  -0.4820  -0.4818  -0.4799  -0.4789  -0.4777  -0.4775
 -0.4768  -0.4768  -0.4761  -0.4750  -0.4725  -0.4718  -0.4712  -0.4692
 -0.4690  -0.4685  -0.4672  -0.4672  -0.4661  -0.4658  -0.4645  -0.4638
 -0.4635  -0.4614  -0.4609  -0.4604  -0.4597  -0.4593  -0.4587  -0.4582
 -0.4571  -0.4565  -0.4556  -0.4547  -0.4544  -0.4533  -0.4527  -0.4524
 -0.4521  -0.4512  -0.4509  -0.4504  -0.4502  -0.4498  -0.4490  -0.4484
 -0.4482  -0.4476  -0.4469  -0.4463  -0.4454  -0.4451  -0.4445  -0.4443
 -0.4441  -0.4435  -0.4433  -0.4429  -0.4411  -0.4409  -0.4392  -0.4385
 -0.4377  -0.4366  -0.4364  -0.4358  -0.4350  -0.4347  -0.4336  -0.4330
 -0.4324  -0.4312  -0.4296  -0.4287  -0.4283  -0.4275  -0.4246  -0.4235
 -0.4221  -0.4211  -0.4209  -0.4208  -0.4202  -0.4197  -0.4178  -0.4172
 -0.4169  -0.4164  -0.4157  -0.4152  -0.4147  -0.4136  -0.4126  -0.4123
 -0.4118  -0.4110  -0.4106  -0.4090  -0.4067  -0.4062  -0.4059  -0.4052
 -0.4042  -0.4032  -0.4022  -0.4015  -0.4003  -0.3994  -0.3989  -0.3983
 -0.3979  -0.3976  -0.3964  -0.3962  -0.3943  -0.3941  -0.3928  -0.3925
 -0.3924  -0.3920  -0.3912  -0.3906  -0.3896  -0.3892  -0.3885  -0.3881
 -0.3874  -0.3857  -0.3851  -0.3841  -0.3835  -0.3808  -0.3808  -0.3802
 -0.3794  -0.3772  -0.3757  -0.3747  -0.3741  -0.3730  -0.3729  -0.3722
 -0.3710  -0.3698  -0.3696  -0.3686  -0.3672  -0.3649  -0.3646  -0.3639
 -0.3628  -0.3570  -0.3550  -0.3532  -0.3518  -0.3505  -0.3494  -0.3469
 -0.3443  -0.3435  -0.3424  -0.3399  -0.3393  -0.3377  -0.3346  -0.3329
 -0.3236  -0.3129  -0.3067  -0.3046  -0.3028  -0.2994  -0.2951  -0.2942
 -0.2897  -0.2859  -0.2816  -0.2800  -0.2784  -0.2782  -0.2772  -0.2754
 -0.2749  -0.2723  -0.2714  -0.2685  -0.2681  -0.2664  -0.2630  -0.2625
 -0.2619  -0.2608  -0.2599  -0.2576  -0.2556  -0.2554  -0.2536  -0.2532
 -0.2516  -0.2499  -0.2478  -0.2477  -0.2446  -0.2442  -0.2432  -0.2431
 -0.2389  -0.2378  -0.2365  -0.2321  -0.2299  -0.2277  -0.2271  -0.2251
 -0.2224  -0.2196  -0.2190  -0.2179  -0.2167  -0.2137  -0.2136  -0.2080
 -- Virtual --
 -0.0473  -0.0401  -0.0334  -0.0307  -0.0262  -0.0237  -0.0209  -0.0190
 -0.0184  -0.0160  -0.0138  -0.0129  -0.0115  -0.0109  -0.0103  -0.0088
 -0.0065  -0.0059  -0.0052  -0.0044  -0.0032  -0.0029  -0.0018  -0.0010
 -0.0006   0.0017   0.0022   0.0026   0.0032   0.0039   0.0056   0.0070
  0.0078   0.0082   0.0088   0.0098   0.0105   0.0112   0.0123   0.0131
  0.0148   0.0148   0.0154   0.0164   0.0172   0.0188   0.0194   0.0208
  0.0212   0.0220   0.0230   0.0239   0.0243   0.0253   0.0257   0.0262
  0.0273   0.0277   0.0283   0.0285   0.0288   0.0296   0.0308   0.0310
  0.0312   0.0317   0.0323   0.0331   0.0334   0.0343   0.0346   0.0355
  0.0369   0.0371   0.0389   0.0391   0.0395   0.0398   0.0412   0.0413
  0.0423   0.0431   0.0434   0.0445   0.0451   0.0457   0.0458   0.0464
  0.0471   0.0479   0.0481   0.0486   0.0497   0.0501   0.0502   0.0511
  0.0518   0.0526   0.0537   0.0542   0.0552   0.0558   0.0563   0.0566
  0.0571   0.0575   0.0586   0.0595   0.0598   0.0612   0.0616   0.0622
  0.0628   0.0640   0.0644   0.0648   0.0651   0.0661   0.0666   0.0671
  0.0681   0.0687   0.0694   0.0698   0.0710   0.0718   0.0722   0.0730
  0.0735   0.0740   0.0746   0.0752   0.0762   0.0767   0.0771   0.0776
  0.0787   0.0795   0.0809   0.0811   0.0813   0.0822   0.0824   0.0833
  0.0844   0.0848   0.0857   0.0861   0.0877   0.0880   0.0885   0.0887
  0.0896   0.0907   0.0915   0.0918   0.0928   0.0938   0.0942   0.0958
  0.0965   0.0971   0.0974   0.0988   0.0989   0.0993   0.1006   0.1013
  0.1021   0.1022   0.1029   0.1037   0.1044   0.1046   0.1057   0.1060
  0.1066   0.1070   0.1071   0.1082   0.1087   0.1096   0.1104   0.1119
  0.1121   0.1128   0.1135   0.1143   0.1155   0.1157   0.1166   0.1168
  0.1170   0.1177   0.1186   0.1188   0.1199   0.1200   0.1211   0.1217
  0.1225   0.1230   0.1233   0.1239   0.1250   0.1252   0.1256   0.1266
  0.1273   0.1280   0.1292   0.1296   0.1303   0.1309   0.1313   0.1319
  0.1325   0.1339   0.1343   0.1346   0.1354   0.1362   0.1371   0.1378
  0.1383   0.1397   0.1402   0.1408   0.1420   0.1421   0.1427   0.1432
  0.1440   0.1447   0.1454   0.1458   0.1469   0.1472   0.1479   0.1486
  0.1496   0.1501   0.1505   0.1515   0.1527   0.1530   0.1535   0.1538
  0.1542   0.1544   0.1560   0.1565   0.1574   0.1577   0.1581   0.1591
  0.1595   0.1599   0.1607   0.1615   0.1619   0.1626   0.1632   0.1635
  0.1644   0.1656   0.1658   0.1668   0.1678   0.1682   0.1684   0.1687
  0.1705   0.1712   0.1714   0.1722   0.1727   0.1735   0.1740   0.1748
  0.1752   0.1754   0.1764   0.1769   0.1775   0.1781   0.1784   0.1793
  0.1797   0.1802   0.1811   0.1819   0.1826   0.1838   0.1839   0.1853
  0.1860   0.1866   0.1868   0.1870   0.1884   0.1893   0.1898   0.1902
  0.1907   0.1915   0.1919   0.1925   0.1929   0.1938   0.1941   0.1948
  0.1953   0.1958   0.1968   0.1974   0.1975   0.1979   0.1992   0.1994
  0.2000   0.2012   0.2014   0.2020   0.2025   0.2038   0.2042   0.2048
  0.2054   0.2067   0.2069   0.2074   0.2082   0.2094   0.2098   0.2100
  0.2109   0.2117   0.2122   0.2129   0.2135   0.2147   0.2150   0.2158
  0.2160   0.2166   0.2173   0.2177   0.2183   0.2191   0.2198   0.2203
  0.2213   0.2215   0.2218   0.2228   0.2239   0.2245   0.2249   0.2257
  0.2261   0.2270   0.2281   0.2285   0.2291   0.2296   0.2311   0.2314
  0.2322   0.2324   0.2334   0.2342   0.2346   0.2354   0.2366   0.2369
  0.2375   0.2378   0.2383   0.2395   0.2401   0.2412   0.2422   0.2425
  0.2428   0.2440   0.2445   0.2453   0.2453   0.2460   0.2471   0.2472
  0.2485   0.2489   0.2503   0.2507   0.2517   0.2520   0.2538   0.2542
  0.2554   0.2555   0.2563   0.2570   0.2572   0.2582   0.2594   0.2597
  0.2602   0.2610   0.2615   0.2616   0.2628   0.2640   0.2647   0.2652
  0.2663   0.2672   0.2679   0.2685   0.2689   0.2697   0.2704   0.2712
  0.2717   0.2723   0.2737   0.2746   0.2754   0.2763   0.2776   0.2781
  0.2794   0.2798   0.2810   0.2819   0.2823   0.2828   0.2840   0.2841
  0.2857   0.2875   0.2881   0.2884   0.2903   0.2904   0.2909   0.2921
  0.2925   0.2928   0.2938   0.2947   0.2963   0.2965   0.2970   0.2981
  0.2985   0.2994   0.2996   0.3010   0.3024   0.3032   0.3056   0.3057
  0.3064   0.3077   0.3081   0.3089   0.3095   0.3098   0.3112   0.3119
  0.3127   0.3142   0.3151   0.3156   0.3165   0.3177   0.3181   0.3200
  0.3204   0.3216   0.3225   0.3228   0.3236   0.3238   0.3249   0.3263
  0.3270   0.3278   0.3283   0.3286   0.3297   0.3299   0.3320   0.3328
  0.3334   0.3353   0.3357   0.3368   0.3382   0.3390   0.3393   0.3402
  0.3415   0.3427   0.3434   0.3444   0.3452   0.3463   0.3469   0.3477
  0.3486   0.3494   0.3507   0.3516   0.3527   0.3530   0.3542   0.3546
  0.3567   0.3567   0.3580   0.3599   0.3606   0.3612   0.3615   0.3634
  0.3636   0.3658   0.3660   0.3668   0.3674   0.3686   0.3687   0.3701
  0.3710   0.3720   0.3733   0.3739   0.3750   0.3756   0.3770   0.3777
  0.3782   0.3790   0.3801   0.3817   0.3824   0.3834   0.3837   0.3841
  0.3858   0.3872   0.3886   0.3888   0.3890   0.3893   0.3908   0.3920
  0.3934   0.3938   0.3944   0.3953   0.3968   0.3971   0.3981   0.3991
  0.4000   0.4007   0.4009   0.4019   0.4037   0.4042   0.4049   0.4062
  0.4065   0.4086   0.4089   0.4094   0.4107   0.4112   0.4120   0.4135
  0.4145   0.4151   0.4164   0.4174   0.4186   0.4193   0.4201   0.4209
  0.4212   0.4227   0.4241   0.4250   0.4267   0.4270   0.4282   0.4290
  0.4305   0.4309   0.4334   0.4344   0.4358   0.4369   0.4375   0.4386
  0.4399   0.4407   0.4421   0.4431   0.4440   0.4445   0.4463   0.4489
  0.4489   0.4498   0.4529   0.4543   0.4557   0.4562   0.4569   0.4579
  0.4596   0.4602   0.4610   0.4625   0.4634   0.4643   0.4646   0.4670
  0.4685   0.4696   0.4699   0.4722   0.4742   0.4752   0.4762   0.4778
  0.4780   0.4797   0.4812   0.4846   0.4862   0.4865   0.4875   0.4894
  0.4918   0.4923   0.4931   0.4949   0.4977   0.4998   0.5016   0.5024
  0.5040   0.5073   0.5079   0.5095   0.5112   0.5125   0.5142   0.5171
  0.5189   0.5200   0.5236   0.5243   0.5257   0.5270   0.5281   0.5289
  0.5324   0.5329   0.5336   0.5358   0.5382   0.5400   0.5403   0.5412
  0.5442   0.5466   0.5473   0.5486   0.5513   0.5522   0.5523   0.5538
  0.5546   0.5584   0.5589   0.5618   0.5632   0.5651   0.5662   0.5676
  0.5679   0.5702   0.5715   0.5746   0.5763   0.5789   0.5794   0.5816
  0.5819   0.5832   0.5860   0.5872   0.5888   0.5894   0.5908   0.5921
  0.5937   0.5959   0.5978   0.5982   0.5995   0.6014   0.6029   0.6040
  0.6051   0.6080   0.6081   0.6089   0.6105   0.6121   0.6135   0.6145
  0.6152   0.6172   0.6183   0.6202   0.6222   0.6225   0.6248   0.6258
  0.6269   0.6286   0.6298   0.6306   0.6322   0.6330   0.6346   0.6349
  0.6369   0.6380   0.6387   0.6407   0.6419   0.6426   0.6429   0.6460
  0.6481   0.6484   0.6503   0.6514   0.6522   0.6536   0.6553   0.6564
  0.6575   0.6589   0.6607   0.6610   0.6629   0.6645   0.6651   0.6660
  0.6669   0.6688   0.6690   0.6702   0.6716   0.6735   0.6752   0.6765
  0.6781   0.6792   0.6806   0.6811   0.6819   0.6836   0.6837   0.6856
  0.6866   0.6882   0.6886   0.6896   0.6909   0.6922   0.6940   0.6940
  0.6947   0.6957   0.6967   0.6993   0.7004   0.7020   0.7024   0.7039
  0.7040   0.7053   0.7092   0.7093   0.7110   0.7111   0.7115   0.7141
  0.7153   0.7169   0.7179   0.7182   0.7202   0.7205   0.7225   0.7243
  0.7249   0.7268   0.7278   0.7300   0.7306   0.7321   0.7329   0.7341
  0.7345   0.7364   0.7375   0.7395   0.7410   0.7421   0.7431   0.7448
  0.7450   0.7477   0.7498   0.7503   0.7527   0.7539   0.7552   0.7565
  0.7567   0.7590   0.7603   0.7606   0.7614   0.7648   0.7659   0.7679
  0.7699   0.7703   0.7726   0.7730   0.7734   0.7763   0.7797   0.7815
  0.7836   0.7846   0.7864   0.7871   0.7877   0.7907   0.7920   0.7925
  0.7936   0.7952   0.7983   0.8003   0.8030   0.8048   0.8066   0.8072
  0.8107   0.8119   0.8123   0.8145   0.8171   0.8181   0.8186   0.8201
  0.8210   0.8232   0.8252   0.8265   0.8271   0.8288   0.8303   0.8318
  0.8335   0.8359   0.8362   0.8377   0.8396   0.8414   0.8431   0.8451
  0.8470   0.8488   0.8504   0.8510   0.8519   0.8528   0.8540   0.8551
  0.8563   0.8566   0.8582   0.8605   0.8619   0.8629   0.8633   0.8665
  0.8674   0.8699   0.8706   0.8726   0.8730   0.8740   0.8760   0.8765
  0.8776   0.8784   0.8788   0.8819   0.8828   0.8839   0.8845   0.8872
  0.8884   0.8888   0.8899   0.8905   0.8917   0.8930   0.8939   0.8965
  0.8973   0.8976   0.8985   0.9012   0.9029   0.9045   0.9063   0.9073
  0.9084   0.9098   0.9106   0.9127   0.9131   0.9141   0.9147   0.9147
  0.9176   0.9189   0.9205   0.9213   0.9224   0.9237   0.9244   0.9256
  0.9264   0.9271   0.9292   0.9310   0.9318   0.9337   0.9355   0.9369
  0.9383   0.9395   0.9400   0.9410   0.9421   0.9433   0.9439   0.9449
  0.9473   0.9476   0.9492   0.9508   0.9514   0.9521   0.9541   0.9560
  0.9572   0.9576   0.9592   0.9597   0.9621   0.9628   0.9633   0.9648
  0.9661   0.9667   0.9674   0.9692   0.9707   0.9712   0.9738   0.9757
  0.9761   0.9777   0.9783   0.9800   0.9806   0.9816   0.9821   0.9832
  0.9844   0.9858   0.9871   0.9881   0.9892   0.9907   0.9924   0.9928
  0.9954   0.9966   0.9973   0.9978   0.9993   0.9999   1.0015   1.0036
  1.0054   1.0059   1.0079   1.0094   1.0096   1.0101   1.0112   1.0131
  1.0138   1.0148   1.0162   1.0171   1.0180   1.0200   1.0205   1.0218
  1.0222   1.0234   1.0243   1.0254   1.0268   1.0288   1.0299   1.0300
  1.0333   1.0338   1.0348   1.0360   1.0366   1.0384   1.0403   1.0409
  1.0416   1.0433   1.0447   1.0456   1.0477   1.0482   1.0487   1.0502
  1.0508   1.0537   1.0538   1.0551   1.0560   1.0570   1.0582   1.0589
  1.0595   1.0611   1.0627   1.0650   1.0659   1.0673   1.0679   1.0697
  1.0705   1.0721   1.0729   1.0736   1.0753   1.0766   1.0780   1.0800
  1.0813   1.0825   1.0836   1.0856   1.0857   1.0867   1.0887   1.0896
  1.0915   1.0919   1.0940   1.0954   1.0972   1.0981   1.0997   1.1016
  1.1027   1.1034   1.1059   1.1072   1.1089   1.1101   1.1118   1.1146
  1.1154   1.1160   1.1185   1.1194   1.1210   1.1219   1.1244   1.1248
  1.1258   1.1277   1.1287   1.1313   1.1323   1.1328   1.1350   1.1362
  1.1383   1.1402   1.1414   1.1418   1.1429   1.1448   1.1463   1.1474
  1.1488   1.1499   1.1506   1.1513   1.1544   1.1557   1.1573   1.1595
  1.1600   1.1610   1.1623   1.1636   1.1658   1.1670   1.1679   1.1691
  1.1703   1.1721   1.1764   1.1770   1.1779   1.1786   1.1801   1.1827
  1.1843   1.1857   1.1885   1.1903   1.1909   1.1928   1.1952   1.1959
  1.1976   1.2005   1.2017   1.2022   1.2037   1.2056   1.2074   1.2089
  1.2119   1.2133   1.2161   1.2172   1.2179   1.2218   1.2226   1.2236
  1.2260   1.2301   1.2312   1.2325   1.2346   1.2366   1.2394   1.2424
  1.2438   1.2459   1.2478   1.2500   1.2522   1.2547   1.2557   1.2575
  1.2593   1.2639   1.2650   1.2674   1.2688   1.2724   1.2750   1.2775
  1.2787   1.2807   1.2853   1.2877   1.2906   1.2908   1.2925   1.2970
  1.2978   1.3009   1.3034   1.3063   1.3098   1.3133   1.3147   1.3159
  1.3187   1.3202   1.3232   1.3270   1.3282   1.3311   1.3324   1.3342
  1.3357   1.3385   1.3397   1.3426   1.3434   1.3493   1.3501   1.3513
  1.3541   1.3548   1.3579   1.3593   1.3620   1.3626   1.3660   1.3670
  1.3682   1.3691   1.3702   1.3741   1.3746   1.3774   1.3779   1.3811
  1.3822   1.3850   1.3857   1.3872   1.3887   1.3902   1.3929   1.3946
  1.3966   1.3974   1.3984   1.3992   1.4025   1.4036   1.4040   1.4054
  1.4069   1.4086   1.4109   1.4125   1.4134   1.4144   1.4151   1.4170
  1.4180   1.4185   1.4207   1.4217   1.4237   1.4246   1.4260   1.4268
  1.4286   1.4292   1.4298   1.4325   1.4331   1.4343   1.4361   1.4379
  1.4391   1.4408   1.4428   1.4436   1.4460   1.4472   1.4480   1.4486
  1.4518   1.4530   1.4549   1.4560   1.4588   1.4597   1.4626   1.4641
  1.4665   1.4683   1.4705   1.4719   1.4738   1.4754   1.4792   1.4810
  1.4818   1.4841   1.4871   1.4876   1.4898   1.4914   1.4927   1.4952
  1.4987   1.4995   1.5016   1.5058   1.5063   1.5085   1.5095   1.5127
  1.5153   1.5166   1.5176   1.5182   1.5223   1.5239   1.5259   1.5276
  1.5288   1.5329   1.5355   1.5409   1.5446   1.5464   1.5480   1.5514
  1.5560   1.5565   1.5587   1.5599   1.5617   1.5651   1.5675   1.5711
  1.5751   1.5776   1.5814   1.5848   1.5882   1.5927   1.5993   1.6013
  1.6068   1.6101   1.6119   1.6130   1.6206   1.6263   1.6327   1.6370
  1.6394   1.6483   1.6513   1.6527   1.6567   1.6574   1.6602   1.6620
  1.6642   1.6653   1.6666   1.6677   1.6697   1.6703   1.6729   1.6741
  1.6760   1.6765   1.6804   1.6821   1.6833   1.6848   1.6867   1.6874
  1.6892   1.6900   1.6920   1.6938   1.6948   1.6967   1.6982   1.6999
  1.7008   1.7021   1.7043   1.7050   1.7060   1.7063   1.7083   1.7095
  1.7103   1.7111   1.7124   1.7136   1.7160   1.7182   1.7191   1.7211
  1.7216   1.7235   1.7257   1.7259   1.7271   1.7280   1.7282   1.7307
  1.7316   1.7334   1.7335   1.7354   1.7379   1.7386   1.7397   1.7407
  1.7435   1.7453   1.7470   1.7488   1.7492   1.7520   1.7537   1.7552
  1.7563   1.7581   1.7604   1.7617   1.7646   1.7657   1.7693   1.7706
  1.7751   1.7755   1.7768   1.7776   1.7795   1.7810   1.7821   1.7826
  1.7845   1.7851   1.7891   1.7898   1.7905   1.7911   1.7950   1.7972
  1.8003   1.8008   1.8040   1.8055   1.8079   1.8096   1.8150   1.8181
  1.8226   1.8251   1.8271   1.8291   1.8301   1.8331   1.8370   1.8387
  1.8418   1.8463   1.8506   1.8562   1.8574   1.8600   1.8615   1.8638
  1.8651   1.8686   1.8707   1.8722   1.8758   1.8762   1.8806   1.8815
  1.8833   1.8840   1.8854   1.8874   1.8878   1.8887   1.8904   1.8914
  1.8925   1.8948   1.8962   1.8977   1.8999   1.9005   1.9023   1.9054
  1.9061   1.9077   1.9085   1.9093   1.9103   1.9115   1.9131   1.9132
  1.9145   1.9161   1.9175   1.9200   1.9210   1.9220   1.9231   1.9241
  1.9261   1.9272   1.9289   1.9304   1.9345   1.9351   1.9388   1.9392
  1.9411   1.9427   1.9445   1.9470   1.9485   1.9521   1.9524   1.9549
  1.9557   1.9571   1.9623   1.9632   1.9661   1.9683   1.9711   1.9732
  1.9776   1.9789   1.9892   1.9918   2.0033   2.0153   2.0220   2.0321
  2.0326   2.0353   2.0459   2.0467   2.0480   2.0506   2.0509   2.0537
  2.0597   2.0608   2.0628   2.0646   2.0674   2.0692   2.0705   2.0724
  2.0743   2.0757   2.0768   2.0792   2.0847   2.0853   2.0870   2.0876
  2.0893   2.0907   2.0911   2.0915   2.0929   2.0933   2.0944   2.0948
  2.0955   2.0966   2.0975   2.0984   2.1005   2.1010   2.1032   2.1064
  2.1075   2.1088   2.1102   2.1125   2.1143   2.1148   2.1161   2.1173
  2.1221   2.1226   2.1244   2.1259   2.1265   2.1325   2.1329   2.1385
  2.1453   2.1471   2.1520   2.1583   2.1604   2.1639   2.1647   2.1666
  2.1675   2.1776   2.1816   2.1835   2.1900   2.1924   2.1939   2.1971
  2.1994   2.2016   2.2043   2.2066   2.2086   2.2095   2.2105   2.2120
  2.2136   2.2154   2.2182   2.2206   2.2220   2.2222   2.2249   2.2263
  2.2278   2.2298   2.2308   2.2319   2.2327   2.2345   2.2356   2.2373
  2.2389   2.2402   2.2411   2.2422   2.2441   2.2445   2.2459   2.2474
  2.2496   2.2500   2.2515   2.2526   2.2550   2.2557   2.2574   2.2578
  2.2582   2.2594   2.2598   2.2605   2.2607   2.2617   2.2628   2.2653
  2.2672   2.2674   2.2683   2.2689   2.2708   2.2716   2.2734   2.2746
  2.2748   2.2763   2.2773   2.2782   2.2786   2.2798   2.2810   2.2817
  2.2840   2.2843   2.2846   2.2860   2.2863   2.2869   2.2881   2.2888
  2.2895   2.2905   2.2911   2.2930   2.2935   2.2942   2.2949   2.2954
  2.2982   2.2994   2.3005   2.3030   2.3036   2.3046   2.3053   2.3075
  2.3095   2.3099   2.3113   2.3136   2.3146   2.3169   2.3176   2.3186
  2.3202   2.3210   2.3224   2.3250   2.3265   2.3266   2.3276   2.3288
  2.3296   2.3305   2.3326   2.3333   2.3342   2.3348   2.3360   2.3384
  2.3390   2.3407   2.3410   2.3423   2.3434   2.3455   2.3464   2.3476
  2.3490   2.3518   2.3534   2.3562   2.3577   2.3583   2.3604   2.3637
  2.3645   2.3651   2.3687   2.3704   2.3718   2.3736   2.3759   2.3761
  2.3846   2.3902   2.3914   2.3974   2.4001   2.4045   2.4084   2.4121
  2.4146   2.4489   2.4640   2.4892   2.5389   2.5466   2.5876   2.6590
  2.7311   2.7523   2.7994   2.8033   2.8237   2.8271   2.8303   2.8367
  2.8402   2.8427   2.8471   2.8474   2.8504   2.8511   2.8539   2.8554
  2.8580   2.8594   2.8602   2.8626   2.8642   2.8646   2.8673   2.8690
  2.8730   2.8755   2.8786   2.8836   2.8910   2.8947   2.8980   2.9137
  2.9401   3.1052   3.2487   3.9546   3.9572   3.9618   3.9705   3.9718
  3.9724   3.9734   3.9797   3.9820   3.9839   3.9848   3.9873   3.9883
  3.9899   3.9939   4.0000   4.0025   4.0038   4.0078   4.0088   4.0199
  4.0242   4.0323   4.0339   4.0480   4.2000   4.2152   4.2347   4.2392
  4.2451   4.2486   4.2520   4.2550   4.2564   4.2585   4.2601   4.2611
  4.2655   4.2669   4.2710   4.2725   4.2736   4.2744   4.2782   4.2796
  4.2817   4.2886   4.2900   4.2934   4.2945   4.2967   4.3007   4.3020
  4.3059   4.3081   4.3124   4.3131   4.3172   4.3197   4.3215   4.3229
  4.3255   4.3293   4.3303   4.3337   4.3392   4.3410   4.3448   4.3470
  4.3512   4.3516   4.3554   4.3568   4.3599   4.3618   4.3672   4.3689
  4.3720   4.3745   4.3825   4.3831   4.3850   4.3888   4.3905   4.3943
  4.4036   4.4046   4.4102   4.4162   4.4200   4.4285   4.4389   4.4407
  4.4515   4.4848   4.4907   4.5019   4.5135   4.5218   4.5583   4.5897
  4.5966   4.6037   4.6482   4.6575   4.7048   4.7295   4.7929   4.9266
 --------------------------------------------------------------
 
          Ground-State Mulliken Net Atomic Charges

     Atom                 Charge (a.u.)
  ----------------------------------------
      1 C                    -0.180891
      2 C                    -0.575187
      3 C                    -0.210319
      4 C                    -0.574057
      5 C                    -0.491642
      6 C                    -0.320505
      7 H                     0.281009
      8 H                     0.203418
      9 H                     0.234217
     10 H                     0.188748
     11 H                     0.203639
     12 H                     0.184430
     13 H                     0.196090
     14 H                     0.193227
     15 H                     0.223347
     16 H                     0.210176
     17 H                     0.201125
     18 N                    -0.396357
     19 H                     0.430002
     20 C                     0.363017
     21 H                     0.173480
     22 O                    -0.536966
     23 C                    -1.196673
     24 H                     0.331792
     25 H                     0.292917
     26 H                     0.249900
     27 S                     1.596667
     28 C                    -1.097822
     29 H                     0.284497
     30 H                     0.244940
     31 H                     0.231890
     32 O                    -0.706463
     33 C                    -0.690183
     34 H                     0.244144
     35 H                     0.254115
     36 H                     0.240496
     37 S                     0.725986
     38 C                    -0.841490
     39 H                     0.243033
     40 H                     0.201666
     41 H                     0.306548
     42 O                    -0.679138
     43 C                    -0.827423
     44 H                     0.214582
     45 H                     0.249241
     46 H                     0.303970
     47 S                     0.716225
     48 C                    -0.771120
     49 H                     0.260056
     50 H                     0.258369
     51 H                     0.263299
     52 O                    -0.627648
     53 C                    -0.910573
     54 H                     0.267838
     55 H                     0.298284
     56 H                     0.227679
     57 S                     0.818430
     58 C                    -0.738749
     59 H                     0.238146
     60 H                     0.246843
     61 H                     0.232207
     62 O                    -0.700215
     63 C                    -0.934270
     64 H                     0.269428
     65 H                     0.258448
     66 H                     0.250073
     67 S                     0.445209
     68 C                    -0.653993
     69 H                     0.259942
     70 H                     0.239825
     71 H                     0.248948
     72 O                    -0.543088
     73 C                    -0.964260
     74 H                     0.253650
     75 H                     0.233465
     76 H                     0.305877
     77 S                     1.010869
     78 C                    -0.904285
     79 H                     0.273341
     80 H                     0.251140
     81 H                     0.222450
     82 O                    -0.704802
     83 C                    -0.918493
     84 H                     0.257906
     85 H                     0.252763
     86 H                     0.258213
     87 S                     0.918131
     88 C                    -0.906154
     89 H                     0.259293
     90 H                     0.309274
     91 H                     0.242740
     92 O                    -0.651716
     93 C                    -0.845355
     94 H                     0.243980
     95 H                     0.249977
     96 H                     0.280813
     97 S                     0.982451
     98 C                    -0.886989
     99 H                     0.274243
    100 H                     0.193391
    101 H                     0.267673
    102 O                    -0.739048
    103 C                    -0.839100
    104 H                     0.241730
    105 H                     0.245429
    106 H                     0.253592
    107 S                     1.042833
    108 C                    -0.927831
    109 H                     0.267978
    110 H                     0.260191
    111 H                     0.226245
    112 O                    -0.720154
    113 C                    -0.917006
    114 H                     0.262521
    115 H                     0.235865
    116 H                     0.247753
    117 S                     1.077363
    118 C                    -0.847073
    119 H                     0.251160
    120 H                     0.256043
    121 H                     0.204283
    122 O                    -0.739632
    123 C                    -0.935456
    124 H                     0.307817
    125 H                     0.209705
    126 H                     0.269088
    127 S                     1.017751
    128 C                    -0.901216
    129 H                     0.293421
    130 H                     0.235822
    131 H                     0.242029
    132 O                    -0.745250
    133 C                    -1.074586
    134 H                     0.220210
    135 H                     0.297555
    136 H                     0.285690
    137 S                     1.234894
    138 C                    -0.985686
    139 H                     0.250785
    140 H                     0.256915
    141 H                     0.232911
    142 O                    -0.696020
    143 C                    -1.055049
    144 H                     0.280283
    145 H                     0.264234
    146 H                     0.233983
    147 S                     1.268147
    148 C                    -1.010495
    149 H                     0.242618
    150 H                     0.263191
    151 H                     0.258194
    152 O                    -0.720860
    153 C                    -0.950838
    154 H                     0.231144
    155 H                     0.270908
    156 H                     0.254624
    157 S                     0.920022
    158 C                    -0.768775
    159 H                     0.247562
    160 H                     0.243854
    161 H                     0.238186
    162 O                    -0.676278
    163 C                    -1.000891
    164 H                     0.222802
    165 H                     0.282889
    166 H                     0.272214
    167 S                     0.849258
    168 C                    -0.816197
    169 H                     0.254161
    170 H                     0.232236
    171 H                     0.287281
    172 O                    -0.659429
    173 C                    -0.799217
    174 H                     0.290272
    175 H                     0.231961
    176 H                     0.241176
    177 S                     0.870355
    178 C                    -0.860937
    179 H                     0.278950
    180 H                     0.282897
    181 H                     0.242168
    182 O                    -0.722342
    183 C                    -0.842871
    184 H                     0.240256
    185 H                     0.273658
    186 H                     0.248623
    187 S                     0.910428
    188 C                    -0.870221
    189 H                     0.283731
    190 H                     0.240428
    191 H                     0.236335
    192 O                    -0.722879
    193 C                    -1.068031
    194 H                     0.287551
    195 H                     0.300257
    196 H                     0.237283
    197 S                     1.244357
    198 C                    -0.974322
    199 H                     0.238331
    200 H                     0.248852
    201 H                     0.260738
    202 O                    -0.755967
    203 C                    -1.038708
    204 H                     0.263864
    205 H                     0.308593
    206 H                     0.299294
    207 S                     0.823676
    208 C                    -0.946210
    209 H                     0.230185
    210 H                     0.316457
    211 H                     0.234490
    212 O                    -0.625391
    213 C                    -0.716366
    214 H                     0.255464
    215 H                     0.295484
    216 H                     0.286211
    217 S                     0.315233
    218 C                    -0.727307
    219 H                     0.251429
    220 H                     0.271256
    221 H                     0.284253
    222 O                    -0.573866
    223 C                    -0.627474
    224 H                     0.244255
    225 H                     0.241223
    226 H                     0.257484
    227 S                     0.255321
    228 C                    -0.627532
    229 H                     0.288006
    230 H                     0.267559
    231 H                     0.240291
    232 O                    -0.634208
    233 C                    -0.866176
    234 H                     0.259261
    235 H                     0.320421
    236 H                     0.228338
    237 S                     0.976850
    238 C                    -0.873077
    239 H                     0.242185
    240 H                     0.248316
    241 H                     0.300789
    242 O                    -0.713222
    243 C                    -0.881601
    244 H                     0.218725
    245 H                     0.261185
    246 H                     0.275307
    247 S                     1.067101
    248 C                    -0.907300
    249 H                     0.244874
    250 H                     0.268016
    251 H                     0.221504
    252 O                    -0.733770
    253 C                    -0.538264
    254 H                     0.258042
    255 H                     0.291955
    256 H                     0.283053
    257 S                    -0.038086
    258 C                    -0.654648
    259 H                     0.225853
    260 H                     0.311799
    261 H                     0.269278
    262 O                    -0.537842
    263 C                    -0.672092
    264 H                     0.248968
    265 H                     0.234352
    266 H                     0.250946
    267 S                     0.666416
    268 C                    -0.781855
    269 H                     0.304898
    270 H                     0.234824
    271 H                     0.236680
    272 O                    -0.711666
  ----------------------------------------
  Sum of atomic charges =     0.000000

 -----------------------------------------------------------------
                    Cartesian Multipole Moments
 -----------------------------------------------------------------
    Charge (ESU x 10^10)
                 0.0000
    Dipole Moment (Debye)
         X      -8.1000      Y      13.1110      Z     -23.8959
       Tot      28.4345
    Quadrupole Moments (Debye-Ang)
        XX   -1479.5050     XY     206.8914     YY    -117.4631
        XZ    -833.4360     YZ    -339.8820     ZZ   -2081.9889
    Octopole Moments (Debye-Ang^2)
       XXX -104965.4405    XXY  -26662.6541    XYY   -5945.1929
       YYY  -37467.6714    XXZ  -56543.4801    XYZ  -12053.9845
       YYZ  -24689.9372    XZZ  -61330.1667    YZZ  -49201.6278
       ZZZ -120266.7353
    Hexadecapole Moments (Debye-Ang^3)
      XXXX ************   XXXY ************   XXYY ************
      XYYY ************   YYYY ************   XXXZ ************
      XXYZ ************   XYYZ -705536.7390   YYYZ ************
      XXZZ ************   XYZZ ************   YYZZ ************
      XZZZ ************   YZZZ ************   ZZZZ ************
 -----------------------------------------------------------------
Archival summary:
[...]
    2   0.0495052  -0.0020223  -0.0281671   0.0200474   0.0006165  -0.0950766
    3  -0.0159194  -0.0055257   0.0123729  -0.0153267  -0.0279203   0.0123907
          103         104         105         106         107         108
    1  -0.0059782   0.0006927  -0.0176958  -0.0204578   0.0367397  -0.0041753
    2   0.0024322   0.0127575   0.0225629  -0.0201980   0.0405865  -0.0074307
    3  -0.0003115   0.0276919  -0.0210415   0.0121418  -0.0182396  -0.0062243
          109         110         111         112         113         114
    1   0.0346676  -0.0273492  -0.0164338   0.0313152   0.0027968   0.0219570
    2  -0.0110155  -0.0148726   0.0154988  -0.0683262  -0.0059709   0.0178853
    3   0.0027538   0.0158857  -0.0272964   0.0823359   0.0048276   0.0119232
          115         116         117         118         119         120
    1  -0.0209953   0.0160534  -0.0284032  -0.0054648  -0.0125878   0.0234629
    2  -0.0074057  -0.0264300   0.0418718  -0.0070961   0.0139878  -0.0209661
    3   0.0266075  -0.0076955   0.0072663  -0.0004394  -0.0259401   0.0007737
          121         122         123         124         125         126
    1  -0.0294053   0.0795152   0.0085300   0.0051497  -0.0025392   0.0250084
    2  -0.0175591  -0.0071694   0.0027130   0.0297027   0.0004311  -0.0066536
    3   0.0163530  -0.0771002   0.0062841  -0.0067134   0.0383181  -0.0237135
          127         128         129         130         131         132
    1  -0.0453507   0.0004269  -0.0165403  -0.0147239   0.0285105   0.0350674
    2   0.0146283  -0.0066750  -0.0215192  -0.0216093  -0.0126599   0.0387822
    3   0.0258912   0.0022168   0.0221781  -0.0213477  -0.0097542  -0.0968730
          133         134         135         136         137         138
    1   0.0025608   0.0138236  -0.0105870   0.0329726   0.0216795  -0.0008474
    2  -0.0065516  -0.0158347  -0.0144622   0.0037515   0.0522013  -0.0015815
    3  -0.0062457   0.0213919  -0.0269638  -0.0031176   0.0021642   0.0043483
          139         140         141         142         143         144
    1  -0.0247551  -0.0175779   0.0182990  -0.0745421   0.0080469   0.0079616
    2   0.0150082  -0.0273143   0.0035446  -0.0282849   0.0031157   0.0308041
    3   0.0103402  -0.0044600   0.0315639  -0.0760874  -0.0045752   0.0079996
          145         146         147         148         149         150
    1   0.0217230   0.0129148  -0.0230284  -0.0006087  -0.0323131   0.0252618
    2  -0.0233242  -0.0177372  -0.0461272   0.0045484   0.0061449   0.0236331
    3   0.0026435  -0.0296792   0.0050629  -0.0086583   0.0040123   0.0007656
          151         152         153         154         155         156
    1  -0.0045751   0.0097287  -0.0024625  -0.0194408   0.0303968  -0.0164890
    2  -0.0213142   0.0837380  -0.0080535   0.0010021  -0.0151772  -0.0163512
    3  -0.0254551   0.0700324  -0.0018542  -0.0296186   0.0034208   0.0220372
          157         158         159         160         161         162
    1  -0.0476072   0.0036105   0.0348507   0.0351395  -0.0182761   0.0651185
    2   0.0312742   0.0005036   0.0203054  -0.0135592   0.0108607  -0.0211868
    3   0.0034778  -0.0035434  -0.0007963  -0.0075780  -0.0262569   0.0857567
          163         164         165         166         167         168
    1  -0.0095242   0.0096617  -0.0214605  -0.0115448   0.0462506   0.0022503
    2   0.0027703   0.0189522  -0.0187698   0.0226174   0.0374460  -0.0057139
    3   0.0016118  -0.0174849  -0.0101481   0.0255577   0.0138649  -0.0037487
          169         170         171         172         173         174
    1  -0.0255151   0.0131573   0.0278857  -0.0483241  -0.0080987  -0.0303589
    2  -0.0202491   0.0129986  -0.0152064  -0.0545389   0.0011322  -0.0086515
    3   0.0012463  -0.0283929   0.0006780   0.0828569   0.0002990  -0.0126991
          175         176         177         178         179         180
    1  -0.0124740  -0.0053372   0.0414682  -0.0003115  -0.0131511  -0.0202300
    2  -0.0193048   0.0275244   0.0169113   0.0064603  -0.0155317   0.0238606
    3   0.0200349   0.0222447   0.0394058  -0.0071280  -0.0191654   0.0045510
          181         182         183         184         185         186
    1   0.0285538   0.0026833  -0.0005992   0.0022800  -0.0246493   0.0199734
    2   0.0170140  -0.0984817  -0.0089279   0.0170906  -0.0212450  -0.0240406
    3  -0.0070893  -0.0483390   0.0061522   0.0294617  -0.0032710  -0.0117780
          187         188         189         190         191         192
    1   0.0035262   0.0079290   0.0319807  -0.0072542  -0.0010040  -0.0895776
    2  -0.0171822   0.0005714  -0.0152198   0.0273185   0.0047074   0.0524876
    3  -0.0539652   0.0036604  -0.0104290  -0.0138425   0.0319616   0.0391283
          193         194         195         196         197         198
    1   0.0042902  -0.0242233   0.0293872   0.0101730   0.0312846  -0.0060411
    2   0.0030611  -0.0179958  -0.0067986   0.0347696  -0.0033128   0.0053080
    3   0.0108991   0.0196431   0.0089944   0.0003631  -0.0430054  -0.0006284
          199         200         201         202         203         204
    1   0.0124277  -0.0274309  -0.0129023  -0.0603752   0.0021178   0.0332641
    2   0.0312601  -0.0108655   0.0051799  -0.0800303   0.0070330   0.0027416
    3  -0.0113503  -0.0155166   0.0282078   0.0469634  -0.0052442   0.0166077
          205         206         207         208         209         210
    1  -0.0036866  -0.0160364   0.0286593   0.0077230  -0.0066244   0.0388811
    2  -0.0000893   0.0265841  -0.0031673  -0.0028143  -0.0012761   0.0044018
    3  -0.0340181   0.0042483   0.0618426  -0.0066698  -0.0321414   0.0066196
          211         212         213         214         215         216
    1  -0.0102254  -0.1082513  -0.0036089  -0.0233157   0.0151174  -0.0092111
    2  -0.0265072  -0.0060937   0.0025372   0.0236184   0.0183499  -0.0262503
    3   0.0078088  -0.0118578  -0.0111856   0.0095923  -0.0140083  -0.0221934
          217         218         219         220         221         222
    1  -0.0365462   0.0036738  -0.0233438   0.0246264   0.0129535   0.0918324
    2  -0.0231788   0.0066026   0.0216552  -0.0055594   0.0173692  -0.0512125
    3   0.0336537   0.0051428   0.0147450   0.0206336  -0.0183334  -0.0431215
          223         224         225         226         227         228
    1   0.0024871   0.0242840  -0.0203218  -0.0056067   0.0119729  -0.0030968
    2  -0.0030221   0.0110367   0.0146395  -0.0289229   0.0504581  -0.0118292
    3   0.0014851   0.0193886  -0.0036650   0.0180282  -0.0344253  -0.0085920
          229         230         231         232         233         234
    1   0.0064906  -0.0021727  -0.0292343   0.0845621  -0.0032581  -0.0337829
    2  -0.0049405  -0.0323057   0.0147000  -0.0620627   0.0037283  -0.0003769
    3  -0.0296201   0.0106192  -0.0013962   0.0368818   0.0107488  -0.0110069
          235         236         237         238         239         240
    1   0.0141852  -0.0026249  -0.0077734  -0.0057262  -0.0339997   0.0250217
    2   0.0050677   0.0293941  -0.0020766  -0.0077824  -0.0059661  -0.0209301
    3   0.0332365  -0.0081573  -0.0518912   0.0061843  -0.0118518   0.0048459
          241         242         243         244         245         246
    1   0.0013825   0.0957265  -0.0050677  -0.0316533   0.0125547   0.0143139
    2  -0.0016530  -0.0048621  -0.0062605   0.0046343  -0.0283795   0.0002061
    3   0.0339279   0.0533507   0.0086581   0.0030058  -0.0065687   0.0268850
          247         248         249         250         251         252
    1  -0.0203892   0.0000254   0.0080601   0.0156802  -0.0326050   0.1044292
    2   0.0532903  -0.0035573   0.0184288  -0.0278286   0.0003981  -0.0303386
    3   0.0068815  -0.0058724  -0.0244035   0.0054676  -0.0052390   0.0063564
          253         254         255         256         257         258
    1  -0.0121280   0.0107784  -0.0208942  -0.0288775   0.0313990   0.0045362
    2   0.0029846   0.0202377  -0.0303556   0.0169954   0.0561196  -0.0102145
    3  -0.0001931  -0.0206200   0.0065200   0.0130233   0.0117263   0.0036026
          259         260         261         262         263         264
    1   0.0257946   0.0156384  -0.0057206  -0.0530548   0.0048781  -0.0307638
    2   0.0094789  -0.0173273  -0.0369396  -0.0494465  -0.0006816  -0.0071207
    3  -0.0180594   0.0287509  -0.0092585   0.0842746  -0.0075771  -0.0119312
          265         266         267         268         269         270
    1   0.0280296   0.0197747  -0.0259635   0.0090161  -0.0036042   0.0037473
    2   0.0234198  -0.0180235   0.0345670  -0.0054751  -0.0094529  -0.0164020
    3   0.0019457  -0.0178475   0.0335177   0.0034161   0.0345171  -0.0284932
          271         272
    1   0.0215152  -0.0412338
    2   0.0242229  -0.0984749
    3   0.0075336  -0.0323649
  --- DONE ESP SUMMARY ---
Archival summary:
1\1\n0067.mhg0\SP\ProcedureUnspecified\6-31+G*\252550h22\ymao\FriMar1208:46:042021FriMar1208:46:042021\0\\#,ProcedureUnspecified,6-31+G*,\\0,1\S\O,1,1.49751\C,1,1.80732,2,106.819\H,3,1.09263,1,108.405,2,-169.198,0\H,3,1.09287,1,112.859,2,-48.6652,0\H,3,1.09331,1,100.589,2,75.6451,0\C,1,1.80738,2,104.479,3,103.237,0\H,7,1.09247,1,108.12,2,65.649,0\H,7,1.0929,1,112.253,2,-175.918,0\H,7,1.09291,1,114.244,2,-57.1263,0\H,4,2.16812,3,132.698,1,-25.6648,0\C,11,1.09314,4,175.082,3,161.677,0\H,12,1.09204,11,107.13,4,159.617,0\H,12,1.09287,11,116.111,4,38.2624,0\S,12,1.807,11,108.275,4,-88.1892,0\O,15,1.49788,12,107.163,11,-37.263,0\C,15,1.80663,12,101.858,11,-145.155,0\H,17,1.09287,15,112.914,12,-55.5756,0\H,17,1.09288,15,116.841,12,70.6431,0\H,17,1.09362,15,110.843,12,-168.454,0\Gh,6,2.19852,3,152.966,1,-143.326,0\Gh,21,1.09625,6,157.1,3,-104.344,0\Gh,22,1.46202,21,111.753,6,-29.0545,0\Gh,23,1.01318,22,115.088,21,-178.029,0\Gh,23,1.37861,22,126.277,21,3.38847,0\Gh,25,1.10498,23,112.998,22,-177.892,0\Gh,25,1.21772,23,121.007,22,1.90099,0\Gh,22,1.53771,21,101.06,6,83.8137,0\Gh,28,1.09674,22,107.333,21,-55.0726,0\Gh,28,1.09716,22,105.547,21,-168.527,0\Gh,28,1.53777,22,117.544,21,68.4965,0\Gh,31,1.09733,28,107.386,22,-69.0075,0\Gh,31,1.09762,28,111.145,22,172.971,0\Gh,31,1.53676,28,110.708,22,43.5991,0\Gh,34,1.09651,31,110.898,28,81.2356,0\Gh,34,1.09754,31,107.413,28,-158.277,0\Gh,34,1.53752,31,116.566,28,-43.2689,0\Gh,37,1.09679,34,111.012,31,-64.7436,0\Gh,37,1.09726,34,112.351,31,-175.919,0\Gh,37,1.53716,34,110.71,31,50.7199,0\Gh,40,1.09653,37,120.323,34,177.213,0\Gh,40,1.09678,37,109.46,34,60.0665,0\H,19,2.22617,17,127.219,15,16.668,0\C,43,1.09296,19,99.8682,17,164.961,0\H,44,1.0928,43,108.095,19,-155.034,0\H,44,1.09286,43,112.877,19,-42.1551,0\S,44,1.80703,43,111.046,19,83.5813,0\O,47,1.49646,44,98.5545,43,95.885,0\C,47,1.8071,44,96.6726,43,-159.502,0\H,49,1.09291,47,108.153,44,83.5908,0\H,49,1.09294,47,106.488,44,-163.655,0\H,49,1.09325,47,113.693,44,-42.4669,0\O,41,2.2475,40,153.15,37,38.6575,0\S,53,1.49721,41,165.709,40,-83.2869,0\C,54,1.80712,53,102.229,41,138.389,0\H,55,1.09269,54,108.93,53,-176.766,0\H,55,1.0927,54,104.418,53,-65.1334,0\H,55,1.09323,54,112.607,53,58.7586,0\C,54,1.80721,53,102.815,41,-120.766,0\H,59,1.0924,54,105.095,53,71.0247,0\H,59,1.09303,54,113.478,53,179.485,0\H,59,1.09368,54,117.051,53,-43.789,0\H,62,2.1984,59,142.099,54,27.3172,0\C,63,1.09275,62,108.712,59,-162.263,0\H,64,1.09341,63,102.221,62,33.5341,0\H,64,1.09356,63,122.11,62,154.772,0\S,64,1.80734,63,100.65,62,-80.6318,0\O,67,1.49704,64,92.3617,63,59.6728,0\C,67,1.80609,64,97.0923,63,159.783,0\H,69,1.09293,67,103.337,64,-66.5851,0\H,69,1.09303,67,108.092,64,176.415,0\H,69,1.09319,67,109.2,64,56.7806,0\H,71,2.11836,69,110.729,67,-89.0282,0\C,73,1.09291,71,132.675,69,121.99,0\H,74,1.09284,73,114.784,71,52.081,0\H,74,1.0931,73,110.117,71,177.364,0\S,74,1.80705,73,104.473,71,-68.0212,0\O,77,1.49741,74,101.961,73,-67.1979,0\C,77,1.8072,74,94.154,73,-173.649,0\H,79,1.09247,77,110.975,74,178.463,0\H,79,1.09266,77,117.24,74,-59.6863,0\H,79,1.09355,77,109.551,74,62.1706,0\H,24,2.29328,23,98.7402,22,106.138,0\C,83,1.09286,24,151.928,23,-164.879,0\H,84,1.09306,83,107.479,24,-66.8891,0\H,84,1.09335,83,109.22,24,169.365,0\S,84,1.80665,83,107.888,24,60.9312,0\O,87,1.49694,84,108.825,83,166.62,0\C,87,1.80659,84,100.458,83,-80.1565,0\H,89,1.09233,87,108.898,84,-172.915,0\H,89,1.09304,87,116.5,84,61.5373,0\H,89,1.09366,87,102.434,84,-56.7822,0\O,91,2.27355,89,171.141,87,-117.703,0\S,93,1.49766,91,125.436,89,27.4881,0\C,94,1.80624,93,106.462,91,-99.8601,0\H,95,1.09267,94,104.406,93,-81.4475,0\H,95,1.09275,94,106.513,93,160.306,0\H,95,1.09339,94,113.811,93,41.439,0\C,94,1.80664,93,104.621,91,3.51707,0\H,99,1.09201,94,106.409,93,58.4452,0\H,99,1.09313,94,111.95,93,-53.1351,0\H,99,1.09379,94,115.952,93,-179.649,0\O,85,2.32979,84,174.484,83,-74.1875,0\S,103,1.49712,85,116.703,84,-98.1307,0\C,104,1.80681,103,96.382,85,-42.8717,0\H,105,1.09239,104,109.638,103,68.9399,0\H,105,1.09259,104,112.281,103,-171.945,0\H,105,1.09323,104,109.012,103,-59.749,0\C,104,1.80686,103,106.879,85,53.0929,0\H,109,1.09313,104,109.811,103,-36.2722,0\H,109,1.09328,104,108.396,103,85.266,0\H,109,1.09357,104,110.596,103,-146.781,0\O,13,2.42064,12,137.958,11,-135.42,0\S,113,1.49696,13,112.283,12,81.4424,0\C,114,1.80652,113,101.243,13,-170.881,0\H,115,1.09251,114,110.767,113,167.653,0\H,115,1.09323,114,111.263,113,-64.9311,0\H,115,1.09332,114,110.896,113,47.4288,0\C,114,1.80744,113,97.0636,13,-76.32,0\H,119,1.09218,114,103.403,113,-24.5874,0\H,119,1.09297,114,108.964,113,-138.623,0\H,119,1.09343,114,108.694,113,90.1467,0\H,2,2.43193,1,126.167,3,164.122,0\C,123,1.09202,2,149.51,1,73.2553,0\H,124,1.09308,123,111.373,2,172.604,0\H,124,1.09315,123,106.866,2,-67.3758,0\S,124,1.80686,123,104.35,2,54.4409,0\O,127,1.49725,124,105.853,123,177.2,0\C,127,1.80737,124,98.2162,123,71.4762,0\H,129,1.09216,127,114.165,124,-75.2105,0\H,129,1.09317,127,115.095,124,49.6961,0\H,129,1.09385,127,103.754,124,165.119,0\H,130,2.44319,129,154.885,127,29.1157,0\C,133,1.09276,130,121.231,129,-138.517,0\H,134,1.09295,133,102.443,130,137.18,0\H,134,1.09327,133,113.352,130,14.9186,0\S,134,1.80757,133,107.408,130,-106.907,0\O,137,1.49638,134,106.359,133,67.2441,0\C,137,1.80674,134,98.406,133,-53.1471,0\H,139,1.09292,137,106.006,134,177.907,0\H,139,1.09323,137,111.37,134,52.3304,0\H,139,1.09336,137,110.067,134,-70.3808,0\H,141,1.99461,139,143.345,137,-156.633,0\C,143,1.09219,141,133.96,139,68.793,0\H,144,1.0929,143,110.949,141,167.528,0\H,144,1.09367,143,117.461,141,41.1469,0\S,144,1.8072,143,106.424,141,-80.3167,0\O,147,1.4965,144,107.749,143,61.0042,0\C,147,1.8075,144,95.2065,143,169.845,0\H,149,1.09303,147,111.953,144,-97.0103,0\H,149,1.09307,147,115.102,144,29.7761,0\H,149,1.09352,147,105.109,144,149.641,0\H,140,2.22423,139,128.413,137,28.6186,0\C,153,1.09325,140,141.101,139,-143.782,0\H,154,1.09312,153,113.914,140,121.64,0\H,154,1.09354,153,109.424,140,-4.91304,0\S,154,1.80671,153,105.146,140,-124.444,0\O,157,1.49695,154,106.461,153,49.0368,0\C,157,1.80718,154,93.801,153,-50.8153,0\H,159,1.09258,157,112.941,154,50.8403,0\H,159,1.09317,157,104.223,154,165.955,0\H,159,1.09389,157,112.726,154,-79.6775,0\H,162,1.97625,159,130.409,157,-122.954,0\C,163,1.09314,162,148.644,159,-172.799,0\H,164,1.09277,163,112.625,162,-34.6851,0\H,164,1.09347,163,111.387,162,-155.551,0\S,164,1.80689,163,105.921,162,78.1187,0\O,167,1.49734,164,106.575,163,173.239,0\C,167,1.80738,164,96.1674,163,65.4032,0\H,169,1.09265,167,113.228,164,21.7441,0\H,169,1.09291,167,106.804,164,149.495,0\H,169,1.09294,167,110.322,164,-95.148,0\O,162,2.42811,159,140.13,157,67.2559,0\S,173,1.49677,162,99.9149,159,41.6752,0\C,174,1.80703,173,106.643,162,-143.742,0\H,175,1.09311,174,110.988,173,-48.2461,0\H,175,1.09343,174,99.1722,173,69.7947,0\H,175,1.09355,174,112.854,173,-177.434,0\C,174,1.80723,173,99.5282,162,117.188,0\H,179,1.09268,174,100.948,173,163.373,0\H,179,1.0928,174,112.796,173,45.0946,0\H,179,1.09294,174,111.173,173,-75.9494,0\H,170,2.45828,169,107.781,167,-140.003,0\C,183,1.09338,170,133.416,169,-113.821,0\H,184,1.09235,183,109.033,170,62.1381,0\H,184,1.09266,183,113.44,170,-54.1427,0\S,184,1.80714,183,104.005,170,-173.906,0\O,187,1.4978,184,95.2047,183,170.782,0\C,187,1.80666,184,93.6901,183,65.6842,0\H,189,1.09288,187,106.371,184,48.3151,0\H,189,1.09289,187,113.218,184,169.133,0\H,189,1.0931,187,107.359,184,-69.7849,0\H,185,2.46749,184,116.951,183,96.7714,0\C,193,1.0934,185,124.444,184,148.6,0\H,194,1.09267,193,101.258,185,-44.5508,0\H,194,1.09301,193,110.481,185,-166.093,0\S,194,1.80675,193,110.282,185,73.3137,0\O,197,1.49761,194,93.0051,193,-175.217,0\C,197,1.80713,194,102.843,193,-69.1289,0\H,199,1.09257,197,105.855,194,-39.2553,0\H,199,1.09273,197,109.615,194,86.6852,0\H,199,1.09319,197,100.156,194,-156.067,0\O,201,2.34946,199,128.955,197,97.4195,0\S,203,1.49707,201,134.897,199,-57.7663,0\C,204,1.80653,203,101.083,201,-157.68,0\H,205,1.09308,204,111.179,203,65.5017,0\H,205,1.09317,204,115.068,203,-57.8779,0\H,205,1.09341,204,110.902,203,179.065,0\C,204,1.80731,203,101.256,201,102.688,0\H,209,1.09278,204,112.584,203,163.537,0\H,209,1.0931,204,111.548,203,38.8195,0\H,209,1.09345,204,105.194,203,-76.2388,0\H,39,2.47187,37,143.752,34,138.523,0\C,213,1.09296,39,129.806,37,91.5685,0\H,214,1.09294,213,113.482,39,79.1746,0\H,214,1.09309,213,105.479,39,-34.4839,0\S,214,1.80667,213,105.257,39,-157.791,0\O,217,1.49686,214,98.6278,213,66.5158,0\C,217,1.80692,214,93.9189,213,-38.9924,0\H,219,1.09234,217,104.183,214,170.623,0\H,219,1.0933,217,110.013,214,-66.1867,0\H,219,1.09341,217,106.3,214,53.5558,0\H,215,2.09228,214,109.188,213,-149.66,0\C,223,1.09261,215,131.818,214,66.0181,0\H,224,1.09292,223,108.193,215,110.115,0\H,224,1.09316,223,123.109,215,-14.7347,0\S,224,1.8071,223,105.797,215,-139.375,0\O,227,1.49722,224,105.019,223,-112.567,0\C,227,1.80694,224,96.6781,223,-4.88516,0\H,229,1.09269,227,103.774,224,58.2614,0\H,229,1.09297,227,107.269,224,174.655,0\H,229,1.09316,227,111.3,224,-59.1129,0\H,215,2.09576,214,146.338,213,-39.588,0\C,233,1.09307,215,157.801,214,-118.308,0\H,234,1.09319,233,116.704,215,-93.6976,0\H,234,1.09368,233,107.919,215,33.6833,0\S,234,1.80623,233,102.092,215,144.246,0\O,237,1.4975,234,104.755,233,67.7605,0\C,237,1.80699,234,105.133,233,172.353,0\H,239,1.0925,237,112.834,234,-55.4653,0\H,239,1.09302,237,112.863,234,-168.368,0\H,239,1.09348,237,114.339,234,73.5783,0\O,32,2.51229,31,114.644,28,-122.167,0\S,243,1.49612,32,108.686,31,146.419,0\C,244,1.80635,243,99.0497,32,-174.863,0\H,245,1.09268,244,113.157,243,162.488,0\H,245,1.09348,244,108.281,243,-72.174,0\H,245,1.09356,244,110.991,243,39.0886,0\C,244,1.80696,243,97.8737,32,-77.894,0\H,249,1.09267,244,112.062,243,-175.877,0\H,249,1.09338,244,102.753,243,-49.7348,0\H,249,1.09377,244,115.753,243,67.5547,0\H,252,2.40516,249,147.835,244,155.75,0\C,253,1.09304,252,130.465,249,-30.6627,0\H,254,1.0933,253,111.637,252,-2.54864,0\H,254,1.09372,253,111.671,252,-128.822,0\S,254,1.80721,253,102.811,252,111.938,0\O,257,1.49634,254,99.7156,253,-57.6103,0\C,257,1.80781,254,96.2354,253,55.5939,0\H,259,1.09245,257,105.509,254,168.54,0\H,259,1.09284,257,114.704,254,49.5565,0\H,259,1.0931,257,108.518,254,-74.9138,0\O,260,2.22213,259,119.212,257,-62.5094,0\S,263,1.49728,260,123.531,259,-112.644,0\C,264,1.80673,263,107.305,260,-135.149,0\H,265,1.09281,264,104.83,263,67.8359,0\H,265,1.09287,264,110.407,263,-175.395,0\H,265,1.09317,264,98.9878,263,-61.1178,0\C,264,1.80675,263,104.086,260,-35.8988,0\H,269,1.09284,264,107.141,263,-172.12,0\H,269,1.09292,264,107.849,263,73.4438,0\H,269,1.09378,264,117.802,263,-52,0\\\@

 Total job time:  70.61s(wall), 225.57s(cpu) 
 Fri Mar 12 08:46:04 2021

        *************************************************************
        *                                                           *
        *  Thank you very much for using Q-Chem.  Have a nice day.  *
        *                                                           *
        *************************************************************


