                  Welcome to Q-Chem
     A Quantum Leap Into The Future Of Chemistry


 Q-Chem 5.2 (devel), Q-Chem, Inc., Pleasanton, CA (2019)

 Yihan Shao,  Zhengting Gan,  E. Epifanovsky,  A. T. B. Gilbert,  M. Wormit,  
 J. Kussmann,  A. W. Lange,  A. Behn,  Jia Deng,  Xintian Feng,  D. Ghosh,  
 M. Goldey,  P. R. Horn,  L. D. Jacobson,  I. Kaliman,  T. Kus,  A. Landau,  
 Jie Liu,  E. I. Proynov,  R. M. Richard,  R. P. Steele,  E. J. Sundstrom,  
 H. L. Woodcock III,  P. M. Zimmerman,  D. Zuev,  B. Alam,  B. Albrecht,  
 E. Alguire,  S. A. Baeppler,  D. Barton,  Z. Benda,  Y. A. Bernard,  
 E. J. Berquist,  K. B. Bravaya,  H. Burton,  K. Carter-Fenk,  D. Casanova,  
 Chun-Min Chang,  Yunqing Chen,  A. Chien,  K. D. Closser,  M. P. Coons,  
 S. Coriani,  S. Dasgupta,  A. L. Dempwolff,  M. Diedenhofen,  Hainam Do,  
 R. G. Edgar,  Po-Tung Fang,  S. Faraji,  S. Fatehi,  Qingguo Feng,  
 J. Fosso-Tande,  J. Gayvert,  Qinghui Ge,  A. Ghysels,  G. Gidofalvi,  
 J. Gomes,  J. Gonthier,  A. Gunina,  D. Hait,  M. W. D. Hanson-Heine,  
 P. H. P. Harbach,  A. W. Hauser,  M. F. Herbst,  J. E. Herr,  
 E. G. Hohenstein,  Z. C. Holden,  Kerwin Hui,  B. C. Huynh,  T.-C. Jagau,  
 Hyunjun Ji,  B. Kaduk,  K. Khistyaev,  Jaehoon Kim,  P. Klunzinger,  K. Koh,  
 D. Kosenkov,  L. Koulias,  T. Kowalczyk,  C. M. Krauter,  A. Kunitsa,  
 Ka Un Lao,  A. Laurent,  K. V. Lawler,  Joonho Lee,  D. Lefrancois,  
 S. Lehtola,  D. S. Levine,  Yi-Pei Li,  You-Sheng Lin,  Fenglai Liu,  
 Kuan-Yu Liu,  E. Livshits,  M. Loipersberger,  A. Luenser,  P. Manohar,  
 E. Mansoor,  S. F. Manzer,  Shan-Ping Mao,  Yuezhi Mao,  N. Mardirossian,  
 A. V. Marenich,  T. Markovich,  L. A. Martinez-Martinez,  S. A. Maurer,  
 N. J. Mayhall,  S. C. McKenzie,  J.-M. Mewes,  P. Morgante,  A. F. Morrison,  
 J. W. Mullinax,  K. Nanda,  T. S. Nguyen-Beck,  R. Olivares-Amaya,  
 J. A. Parkhill,  S. K. Paul,  F. Pavosevic,  Zheng Pei,  T. M. Perrine,  
 F. Plasser,  P. Pokhilko,  S. Prager,  A. Prociuk,  E. Ramos,  B. Rana,  
 D. R. Rehn,  F. Rob,  M. Scheurer,  M. Schneider,  N. Sergueev,  
 S. M. Sharada,  S. Sharma,  D. W. Small,  T. Stauch,  C. J. Stein,  
 T. Stein,  Yu-Chuan Su,  S. P. Veccham,  Zhen Tao,  A. J. W. Thom,  
 A. Tkatchenko,  T. Tsuchimochi,  N. M. Tubman,  L. Vogt,  M. L. Vidal,  
 O. Vydrov,  M. A. Watson,  J. Wenzel,  M. de Wergifosse,  T. A. Wesolowski,  
 A. White,  J. Witte,  A. Yamada,  Jun Yang,  K. Yao,  S. Yeganeh,  
 S. R. Yost,  Zhi-Qiang You,  A. Zech,  Igor Ying Zhang,  Xing Zhang,  
 Yan Zhao,  Ying Zhu,  B. R. Brooks,  G. K. L. Chan,  C. J. Cramer,  
 M. S. Gordon,  W. J. Hehre,  A. Klamt,  M. W. Schmidt,  C. D. Sherrill,  
 D. G. Truhlar,  A. Aspuru-Guzik,  R. Baer,  A. T. Bell,  N. A. Besley,  
 Jeng-Da Chai,  A. E. DePrince, III,  R. A. DiStasio Jr.,  A. Dreuw,  
 B. D. Dunietz,  T. R. Furlani,  Chao-Ping Hsu,  Yousung Jung,  Jing Kong,  
 D. S. Lambrecht,  WanZhen Liang,  C. Ochsenfeld,  V. A. Rassolov,  
 L. V. Slipchenko,  J. E. Subotnik,  T. Van Voorhis,  J. M. Herbert,  
 A. I. Krylov,  P. M. W. Gill,  M. Head-Gordon

 Contributors to earlier versions of Q-Chem not listed above: 
 R. D. Adamson,  B. Austin,  J. Baker,  G. J. O. Beran,  K. Brandhorst,  
 S. T. Brown,  E. F. C. Byrd,  A. K. Chakraborty,  C.-L. Cheng,  
 Siu Hung Chien,  D. M. Chipman,  D. L. Crittenden,  H. Dachsel,  
 R. J. Doerksen,  A. D. Dutoi,  L. Fusti-Molnar,  W. A. Goddard III,  
 A. Golubeva-Zadorozhnaya,  S. R. Gwaltney,  G. Hawkins,  A. Heyden,  
 S. Hirata,  G. Kedziora,  F. J. Keil,  C. Kelley,  Jihan Kim,  R. A. King,  
 R. Z. Khaliullin,  P. P. Korambath,  W. Kurlancheek,  A. M. Lee,  M. S. Lee,  
 S. V. Levchenko,  Ching Yeh Lin,  D. Liotard,  R. C. Lochan,  I. Lotan,  
 P. E. Maslen,  N. Nair,  D. P. O'Neill,  D. Neuhauser,  E. Neuscamman,  
 C. M. Oana,  R. Olson,  B. Peters,  R. Peverati,  P. A. Pieniazek,  
 Y. M. Rhee,  J. Ritchie,  M. A. Rohrdanz,  E. Rosta,  N. J. Russ,  
 H. F. Schaefer III,  N. E. Schultz,  N. Shenvi,  A. C. Simmonett,  A. Sodt,  
 D. Stuck,  K. S. Thanthiriwatte,  V. Vanovschi,  Tao Wang,  A. Warshel,  
 C. F. Williams,  Q. Wu,  X. Xu,  W. Zhang

 Please cite Q-Chem as follows:
 Y. Shao et al., Mol. Phys. 113, 184-215 (2015)
 DOI: 10.1080/00268976.2014.952696

 Q-Chem 5.2.2 for Intel X86 EM64T Linux

 Parts of Q-Chem use Armadillo 9.800.1 (Horizon Scraper).
 http://arma.sourceforge.net/

 Q-Chem begins on Thu Mar 11 13:37:42 2021  

Host: n0093.mhg0
0

     Scratch files written to /local/scratch/users/ymao/r7.00_frame_0013_almo_B3LYP_dp.in20210311133739//

Checking the input file for inconsistencies... 	...done.

--------------------------------------------------------------
User input:
--------------------------------------------------------------
$molecule
0 1
--
0 1
C    21.93800   19.39900   30.87900  
C    22.90400   18.32300   30.35600  
C    23.33100   18.78200   28.95200  
C    24.09900   20.11500   28.96500  
C    23.31000   21.23100   29.66900  
C    22.68900   20.73600   30.98600  
H    23.89000   17.96600   28.47900  
H    23.85800   18.37100   30.89600  
H    21.08500   19.52600   30.20200  
H    21.55300   19.18800   31.88400  
H    25.01800   19.91100   29.52800  
H    24.27100   20.49500   27.95100  
H    23.91000   22.12300   29.88700  
H    22.43100   21.45700   29.05200  
H    23.40000   20.76400   31.82100  
H    21.98200   21.53800   31.23100  
H    22.49300   18.87500   28.25100  
N    22.17600   17.06100   30.24100  
H    21.18900   17.09900   30.01500  
C    22.81200   15.85100   30.05800  
H    22.15100   15.09600   29.59500  
O    23.99100   15.72700   30.33900  
--
0 1
C    25.65400   25.75700   27.46100  
H    25.91600   25.09100   26.63500  
H    24.99000   26.42600   26.90700  
H    26.51700   26.31300   27.83800  
S    24.79300   24.81700   28.74100  
C    24.43800   26.36800   29.59700  
H    23.46500   26.76400   29.29400  
H    24.42500   26.24100   30.68300  
H    25.21600   27.09600   29.35400  
O    25.85400   24.22500   29.61600  
C    18.57500   21.94100   25.39200  
H    19.29300   22.59100   25.89900  
H    18.55400   22.21100   24.33300  
H    17.64000   22.05000   25.94700  
S    19.29200   20.29700   25.61300  
C    19.89000   20.47600   27.30900  
H    19.25600   21.05500   27.98500  
H    19.76700   19.47900   27.74000  
H    20.91100   20.86800   27.32600  
O    20.60000   20.29800   24.88400  
C    27.10600   14.20200   29.68500  
H    26.22400   14.83800   29.79800  
H    27.93800   14.81700   30.03800  
H    27.34500   13.85900   28.67500  
S    26.92200   12.76800   30.76700  
C    27.38300   13.62700   32.28900  
H    26.57200   14.23700   32.69500  
H    27.62500   12.86900   33.03900  
H    28.35100   14.13200   32.26100  
O    28.09500   11.86300   30.54800  
C    20.84300   9.57200    27.53500  
H    21.45100   8.88600    28.13100  
H    20.31800   8.98100    26.78000  
H    21.52000   10.17400   26.92300  
S    19.69700   10.44500   28.62500  
C    18.95300   11.38700   27.27400  
H    18.35800   12.25900   27.55700  
H    19.79200   11.64700   26.62300  
H    18.30200   10.71200   26.71300  
O    20.48600   11.57700   29.20700  
C    30.52200   17.98900   27.61600  
H    31.00200   18.03200   26.63500  
H    30.18800   18.98000   27.93400  
H    31.15500   17.39600   28.28100  
S    28.99300   17.03000   27.51600  
C    28.48400   17.31200   29.22700  
H    28.24300   18.37400   29.32000  
H    27.58500   16.70800   29.36900  
H    29.18500   16.94900   29.98200  
O    29.39700   15.59000   27.57800  
C    26.02400   22.79000   36.28400  
H    25.64800   22.06100   35.56200  
H    25.26800   23.38900   36.79800  
H    26.72900   23.53000   35.89500  
S    26.94800   21.79300   37.47400  
C    25.39700   21.09800   38.08800  
H    24.82400   21.97800   38.39200  
H    24.92600   20.47200   37.32600  
H    25.69800   20.43100   38.90000  
O    27.22200   22.71100   38.62500  
C    22.12800   8.35300    30.90100  
H    22.48100   8.69700    29.92600  
H    22.97700   8.28100    31.58600  
H    21.67800   7.37000    30.74200  
S    20.88000   9.40400    31.67900  
C    21.96300   10.79200   32.08700  
H    22.67000   10.37100   32.80700  
H    22.35700   11.25600   31.17900  
H    21.49100   11.54500   32.72200  
O    20.82200   8.69000    32.99400  
C    18.16700   23.02800   34.08900  
H    17.73200   22.53200   33.21800  
H    17.53700   23.77100   34.58500  
H    19.13300   23.51400   33.92900  
S    18.41800   21.85400   35.44000  
C    19.07600   23.10100   36.57000  
H    19.77100   23.73300   36.01000  
H    18.35600   23.59300   37.22900  
H    19.73600   22.60300   37.28500  
O    19.59900   21.02800   35.03500  
C    27.33000   22.31000   31.93300  
H    26.24500   22.22800   31.82100  
H    27.51000   23.14200   32.61900  
H    27.83600   22.64200   31.02300  
S    28.04700   20.86600   32.74700  
C    27.12900   19.61100   31.82500  
H    26.06700   19.84500   31.92700  
H    27.32600   19.84800   30.77600  
H    27.35700   18.56400   32.03800  
O    27.39100   20.75300   34.08800  
C    24.75700   13.87100   26.40700  
H    25.65200   13.77100   27.02700  
H    24.77800   13.27400   25.49200  
H    24.54700   14.86200   25.99900  
S    23.33700   13.43800   27.43800  
C    23.69100   11.68300   27.69000  
H    22.90400   11.19300   28.26800  
H    23.76600   11.32300   26.66100  
H    24.63000   11.65200   28.24800  
O    22.16100   13.56400   26.52100  
C    29.42500   27.10100   27.82400  
H    30.42100   27.53100   27.95500  
H    28.99800   27.04900   26.81900  
H    28.72800   27.71900   28.39500  
S    29.31900   25.50800   28.67100  
C    29.96000   26.28900   30.16900  
H    30.92300   26.74300   29.92200  
H    29.16700   26.93900   30.54700  
H    30.14500   25.49300   30.89500  
O    30.48600   24.71700   28.16800  
C    23.84400   23.82500   33.03600  
H    24.24100   24.68900   32.49700  
H    24.72600   23.33200   33.45300  
H    23.25900   23.29000   32.28400  
S    22.89100   24.30100   34.49500  
C    22.51500   22.62300   35.04900  
H    23.38400   21.97800   34.89500  
H    22.27500   22.66800   36.11500  
H    21.67500   22.37000   34.39800  
O    21.56400   24.69100   33.92400  
C    29.50400   12.18500   27.79900  
H    30.17400   12.76100   27.15500  
H    29.16000   12.72000   28.68800  
H    29.98600   11.22000   27.97300  
S    28.05000   11.92900   26.75500  
C    27.73200   10.25800   27.36500  
H    26.99600   9.80600    26.69400  
H    28.60200   9.60500    27.46700  
H    27.28700   10.48700   28.33700  
O    28.56200   11.82100   25.35300  
C    23.59500   13.91900   33.03400  
H    22.85200   13.45300   32.38200  
H    23.02000   14.70600   33.52900  
H    24.50200   14.16700   32.47700  
S    24.03600   12.66500   34.25800  
C    24.86700   13.72500   35.46400  
H    24.08300   14.40300   35.80900  
H    25.14800   13.21400   36.38800  
H    25.74500   14.22700   35.05100  
O    25.12800   12.01100   33.47000  
C    31.09500   18.15300   31.94300  
H    30.51000   18.91400   31.42000  
H    31.75200   18.73000   32.59900  
H    31.56800   17.38100   31.33000  
S    29.87700   17.39600   33.04300  
C    31.10300   16.29800   33.78800  
H    31.71900   16.89800   34.46300  
H    30.55300   15.54200   34.35400  
H    31.66700   15.73700   33.03800  
O    29.00500   16.44800   32.28100  
C    20.11300   24.82000   30.54400  
H    21.01700   24.73000   31.15200  
H    20.00400   25.85900   30.22400  
H    19.19600   24.58600   31.09200  
S    20.19200   23.84500   29.02500  
C    18.53100   24.35300   28.52700  
H    18.52600   25.41900   28.28900  
H    18.09100   23.78200   27.70500  
H    17.88900   24.19300   29.39800  
O    20.06800   22.46900   29.60000  
C    17.42800   20.35100   30.24500  
H    17.99800   19.43900   30.05000  
H    16.64700   20.29700   29.48200  
H    18.07800   21.21800   30.10400  
S    16.92800   20.35100   31.98100  
C    18.60600   19.81900   32.38800  
H    19.23600   20.59500   31.94600  
H    18.63000   19.76100   33.47900  
H    18.87600   18.82400   32.02300  
O    16.21300   19.04900   32.16500  
C    27.14000   27.92500   34.83900  
H    26.38200   28.41800   34.22500  
H    26.73700   28.01900   35.85100  
H    28.16700   28.29200   34.76500  
S    27.17000   26.15800   34.46100  
C    27.30800   26.25800   32.66200  
H    26.70900   27.11800   32.35300  
H    28.35100   26.35200   32.34900  
H    26.92700   25.34700   32.19400  
O    25.76500   25.69300   34.68400  
C    19.65100   14.54400   32.41800  
H    20.43000   14.92700   31.75400  
H    19.69500   13.45400   32.49300  
H    18.68100   14.79800   31.98300  
S    19.71900   15.15300   34.11700  
C    20.32900   16.81200   33.73800  
H    20.71900   17.27300   34.64900  
H    21.08300   16.60000   32.97600  
H    19.47500   17.35900   33.33200  
O    20.87200   14.36800   34.66000  
C    22.79300   22.93600   23.60000  
H    23.31400   22.75700   22.65600  
H    22.11700   22.11800   23.86100  
H    22.39000   23.94900   23.68000  
S    23.99000   22.85800   24.95200  
C    22.72800   22.74900   26.24100  
H    22.70200   21.67300   26.43000  
H    23.26700   23.17100   27.09400  
H    21.78900   23.27800   26.06300  
O    24.56700   24.23900   24.96700  
C    20.95800   16.38000   25.89100  
H    21.21900   15.84000   26.80400  
H    21.43000   15.88300   25.04000  
H    21.31600   17.41200   25.84100  
S    19.17900   16.33500   25.57700  
C    19.08400   14.59500   25.09900  
H    19.39100   13.94400   25.92300  
H    18.03000   14.42200   24.86900  
H    19.64400   14.60400   24.16000  
O    18.99300   17.14900   24.33500  
C    24.66500   19.33200   34.52100  
H    25.08100   20.01500   33.77600  
H    24.19100   18.54600   33.92600  
H    24.00600   19.76300   35.27800  
S    25.94500   18.53400   35.51700  
C    25.94100   16.98800   34.58100  
H    24.89500   16.68900   34.47900  
H    26.38300   17.13900   33.59300  
H    26.48600   16.38300   35.31000  
O    25.18100   18.01100   36.69300  
C    24.81400   18.10500   22.62700  
H    24.68000   17.38800   21.81400  
H    24.77700   19.13200   22.25600  
H    25.76800   17.80500   23.06800  
S    23.47900   17.75100   23.79300  
C    23.71300   19.01500   25.06200  
H    24.67500   18.93900   25.57500  
H    23.63500   19.99100   24.57600  
H    22.83400   18.88200   25.69800  
O    23.73600   16.40100   24.38700  
C    21.83000   26.94000   24.41300  
H    21.12000   26.81400   23.59200  
H    22.33400   27.90600   24.34300  
H    22.58300   26.16200   24.56200  
S    20.78000   27.05800   25.87900  
C    22.20400   27.19400   26.98300  
H    22.95900   26.40700   26.92100  
H    22.76100   28.10700   26.75800  
H    21.76200   27.32100   27.97500  
O    20.39800   25.62100   26.05900  
C    29.12600   21.73400   26.24600  
H    29.48700   20.87100   26.81200  
H    29.31100   21.64100   25.17300  
H    29.49000   22.69900   26.60800  
S    27.32900   21.73500   26.43500  
C    27.45400   21.75700   28.23700  
H    27.97300   22.69500   28.44900  
H    26.51700   21.72100   28.79900  
H    28.11500   20.93800   28.53300  
O    27.00300   20.32100   26.06400  
C    29.43500   14.81400   23.79700  
H    28.67200   14.03300   23.74500  
H    30.28200   14.70800   23.11400  
H    29.81200   14.72900   24.82000  
S    28.54900   16.38600   23.70000  
C    27.06000   15.87500   24.58900  
H    26.45000   16.78200   24.57900  
H    26.67300   15.07800   23.94800  
H    27.19500   15.50700   25.60900  
O    28.14900   16.50000   22.26200  
C    16.91100   16.51700   29.63900  
H    16.27300   16.10100   28.85500  
H    17.11900   15.91900   30.52900  
H    16.58800   17.51600   29.94400  
S    18.46000   16.76900   28.74300  
C    18.80800   15.00100   28.60700  
H    18.85900   14.53600   29.59400  
H    17.96500   14.56000   28.06800  
H    19.79300   14.88900   28.14700  
O    19.48300   17.11100   29.78100  
C    32.04000   22.15200   28.74900  
H    31.73200   21.76600   27.77400  
H    32.27600   23.21600   28.67200  
H    32.84000   21.53000   29.15900  
S    30.72200   22.11800   29.98400  
C    31.76400   22.03000   31.45800  
H    32.22500   23.01700   31.54500  
H    31.04500   21.81700   32.25200  
H    32.34700   21.13400   31.22800  
O    30.23700   20.70300   29.93100  
$end

$rem
JOBTYPE  SP
METHOD  B3LYP
BASIS  6-31+G(D)
SYMMETRY  FALSE
SYM_IGNORE  TRUE
MEM_TOTAL  16000
MEM_STATIC  8000
MAX_SUB_FILE_NUM  16000
BASIS_LIN_DEP_THRESH  6
THRESH  14
SCF_CONVERGENCE  8
GEN_SCFMAN  TRUE
SCF_GUESS  FRAGMO
FD_MAT_VEC_PROD  FALSE
XC_GRID  000075000302
NL_GRID  1
MAX_SCF_CYCLES  200
FRGM_METHOD  STOLL
SCFMI_MODE  1
$end

$development
almo_efield  1
$end

$rem_frgm
SCF_CONVERGENCE  4
$end

--------------------------------------------------------------
 ----------------------------------------------------------------
             Standard Nuclear Orientation (Angstroms)
    I     Atom           X                Y                Z
 ----------------------------------------------------------------
    1      C      21.9380000000    19.3990000000    30.8790000000
    2      C      22.9040000000    18.3230000000    30.3560000000
    3      C      23.3310000000    18.7820000000    28.9520000000
    4      C      24.0990000000    20.1150000000    28.9650000000
    5      C      23.3100000000    21.2310000000    29.6690000000
    6      C      22.6890000000    20.7360000000    30.9860000000
    7      H      23.8900000000    17.9660000000    28.4790000000
    8      H      23.8580000000    18.3710000000    30.8960000000
    9      H      21.0850000000    19.5260000000    30.2020000000
   10      H      21.5530000000    19.1880000000    31.8840000000
   11      H      25.0180000000    19.9110000000    29.5280000000
   12      H      24.2710000000    20.4950000000    27.9510000000
   13      H      23.9100000000    22.1230000000    29.8870000000
   14      H      22.4310000000    21.4570000000    29.0520000000
   15      H      23.4000000000    20.7640000000    31.8210000000
   16      H      21.9820000000    21.5380000000    31.2310000000
   17      H      22.4930000000    18.8750000000    28.2510000000
   18      N      22.1760000000    17.0610000000    30.2410000000
   19      H      21.1890000000    17.0990000000    30.0150000000
   20      C      22.8120000000    15.8510000000    30.0580000000
   21      H      22.1510000000    15.0960000000    29.5950000000
   22      O      23.9910000000    15.7270000000    30.3390000000
   23      C      25.6540000000    25.7570000000    27.4610000000
   24      H      25.9160000000    25.0910000000    26.6350000000
   25      H      24.9900000000    26.4260000000    26.9070000000
   26      H      26.5170000000    26.3130000000    27.8380000000
   27      S      24.7930000000    24.8170000000    28.7410000000
   28      C      24.4380000000    26.3680000000    29.5970000000
   29      H      23.4650000000    26.7640000000    29.2940000000
   30      H      24.4250000000    26.2410000000    30.6830000000
   31      H      25.2160000000    27.0960000000    29.3540000000
   32      O      25.8540000000    24.2250000000    29.6160000000
   33      C      18.5750000000    21.9410000000    25.3920000000
   34      H      19.2930000000    22.5910000000    25.8990000000
   35      H      18.5540000000    22.2110000000    24.3330000000
   36      H      17.6400000000    22.0500000000    25.9470000000
   37      S      19.2920000000    20.2970000000    25.6130000000
   38      C      19.8900000000    20.4760000000    27.3090000000
   39      H      19.2560000000    21.0550000000    27.9850000000
   40      H      19.7670000000    19.4790000000    27.7400000000
   41      H      20.9110000000    20.8680000000    27.3260000000
   42      O      20.6000000000    20.2980000000    24.8840000000
   43      C      27.1060000000    14.2020000000    29.6850000000
   44      H      26.2240000000    14.8380000000    29.7980000000
   45      H      27.9380000000    14.8170000000    30.0380000000
   46      H      27.3450000000    13.8590000000    28.6750000000
   47      S      26.9220000000    12.7680000000    30.7670000000
   48      C      27.3830000000    13.6270000000    32.2890000000
   49      H      26.5720000000    14.2370000000    32.6950000000
   50      H      27.6250000000    12.8690000000    33.0390000000
   51      H      28.3510000000    14.1320000000    32.2610000000
   52      O      28.0950000000    11.8630000000    30.5480000000
   53      C      20.8430000000     9.5720000000    27.5350000000
   54      H      21.4510000000     8.8860000000    28.1310000000
   55      H      20.3180000000     8.9810000000    26.7800000000
   56      H      21.5200000000    10.1740000000    26.9230000000
   57      S      19.6970000000    10.4450000000    28.6250000000
   58      C      18.9530000000    11.3870000000    27.2740000000
   59      H      18.3580000000    12.2590000000    27.5570000000
   60      H      19.7920000000    11.6470000000    26.6230000000
   61      H      18.3020000000    10.7120000000    26.7130000000
   62      O      20.4860000000    11.5770000000    29.2070000000
   63      C      30.5220000000    17.9890000000    27.6160000000
   64      H      31.0020000000    18.0320000000    26.6350000000
   65      H      30.1880000000    18.9800000000    27.9340000000
   66      H      31.1550000000    17.3960000000    28.2810000000
   67      S      28.9930000000    17.0300000000    27.5160000000
   68      C      28.4840000000    17.3120000000    29.2270000000
   69      H      28.2430000000    18.3740000000    29.3200000000
   70      H      27.5850000000    16.7080000000    29.3690000000
   71      H      29.1850000000    16.9490000000    29.9820000000
   72      O      29.3970000000    15.5900000000    27.5780000000
   73      C      26.0240000000    22.7900000000    36.2840000000
   74      H      25.6480000000    22.0610000000    35.5620000000
   75      H      25.2680000000    23.3890000000    36.7980000000
   76      H      26.7290000000    23.5300000000    35.8950000000
   77      S      26.9480000000    21.7930000000    37.4740000000
   78      C      25.3970000000    21.0980000000    38.0880000000
   79      H      24.8240000000    21.9780000000    38.3920000000
   80      H      24.9260000000    20.4720000000    37.3260000000
   81      H      25.6980000000    20.4310000000    38.9000000000
   82      O      27.2220000000    22.7110000000    38.6250000000
   83      C      22.1280000000     8.3530000000    30.9010000000
   84      H      22.4810000000     8.6970000000    29.9260000000
   85      H      22.9770000000     8.2810000000    31.5860000000
   86      H      21.6780000000     7.3700000000    30.7420000000
   87      S      20.8800000000     9.4040000000    31.6790000000
   88      C      21.9630000000    10.7920000000    32.0870000000
   89      H      22.6700000000    10.3710000000    32.8070000000
   90      H      22.3570000000    11.2560000000    31.1790000000
   91      H      21.4910000000    11.5450000000    32.7220000000
   92      O      20.8220000000     8.6900000000    32.9940000000
   93      C      18.1670000000    23.0280000000    34.0890000000
   94      H      17.7320000000    22.5320000000    33.2180000000
   95      H      17.5370000000    23.7710000000    34.5850000000
   96      H      19.1330000000    23.5140000000    33.9290000000
   97      S      18.4180000000    21.8540000000    35.4400000000
   98      C      19.0760000000    23.1010000000    36.5700000000
   99      H      19.7710000000    23.7330000000    36.0100000000
  100      H      18.3560000000    23.5930000000    37.2290000000
  101      H      19.7360000000    22.6030000000    37.2850000000
  102      O      19.5990000000    21.0280000000    35.0350000000
  103      C      27.3300000000    22.3100000000    31.9330000000
  104      H      26.2450000000    22.2280000000    31.8210000000
  105      H      27.5100000000    23.1420000000    32.6190000000
  106      H      27.8360000000    22.6420000000    31.0230000000
  107      S      28.0470000000    20.8660000000    32.7470000000
  108      C      27.1290000000    19.6110000000    31.8250000000
  109      H      26.0670000000    19.8450000000    31.9270000000
  110      H      27.3260000000    19.8480000000    30.7760000000
  111      H      27.3570000000    18.5640000000    32.0380000000
  112      O      27.3910000000    20.7530000000    34.0880000000
  113      C      24.7570000000    13.8710000000    26.4070000000
  114      H      25.6520000000    13.7710000000    27.0270000000
  115      H      24.7780000000    13.2740000000    25.4920000000
  116      H      24.5470000000    14.8620000000    25.9990000000
  117      S      23.3370000000    13.4380000000    27.4380000000
  118      C      23.6910000000    11.6830000000    27.6900000000
  119      H      22.9040000000    11.1930000000    28.2680000000
  120      H      23.7660000000    11.3230000000    26.6610000000
  121      H      24.6300000000    11.6520000000    28.2480000000
  122      O      22.1610000000    13.5640000000    26.5210000000
  123      C      29.4250000000    27.1010000000    27.8240000000
  124      H      30.4210000000    27.5310000000    27.9550000000
  125      H      28.9980000000    27.0490000000    26.8190000000
  126      H      28.7280000000    27.7190000000    28.3950000000
  127      S      29.3190000000    25.5080000000    28.6710000000
  128      C      29.9600000000    26.2890000000    30.1690000000
  129      H      30.9230000000    26.7430000000    29.9220000000
  130      H      29.1670000000    26.9390000000    30.5470000000
  131      H      30.1450000000    25.4930000000    30.8950000000
  132      O      30.4860000000    24.7170000000    28.1680000000
  133      C      23.8440000000    23.8250000000    33.0360000000
  134      H      24.2410000000    24.6890000000    32.4970000000
  135      H      24.7260000000    23.3320000000    33.4530000000
  136      H      23.2590000000    23.2900000000    32.2840000000
  137      S      22.8910000000    24.3010000000    34.4950000000
  138      C      22.5150000000    22.6230000000    35.0490000000
  139      H      23.3840000000    21.9780000000    34.8950000000
  140      H      22.2750000000    22.6680000000    36.1150000000
  141      H      21.6750000000    22.3700000000    34.3980000000
  142      O      21.5640000000    24.6910000000    33.9240000000
  143      C      29.5040000000    12.1850000000    27.7990000000
  144      H      30.1740000000    12.7610000000    27.1550000000
  145      H      29.1600000000    12.7200000000    28.6880000000
  146      H      29.9860000000    11.2200000000    27.9730000000
  147      S      28.0500000000    11.9290000000    26.7550000000
  148      C      27.7320000000    10.2580000000    27.3650000000
  149      H      26.9960000000     9.8060000000    26.6940000000
  150      H      28.6020000000     9.6050000000    27.4670000000
  151      H      27.2870000000    10.4870000000    28.3370000000
  152      O      28.5620000000    11.8210000000    25.3530000000
  153      C      23.5950000000    13.9190000000    33.0340000000
  154      H      22.8520000000    13.4530000000    32.3820000000
  155      H      23.0200000000    14.7060000000    33.5290000000
  156      H      24.5020000000    14.1670000000    32.4770000000
  157      S      24.0360000000    12.6650000000    34.2580000000
  158      C      24.8670000000    13.7250000000    35.4640000000
  159      H      24.0830000000    14.4030000000    35.8090000000
  160      H      25.1480000000    13.2140000000    36.3880000000
  161      H      25.7450000000    14.2270000000    35.0510000000
  162      O      25.1280000000    12.0110000000    33.4700000000
  163      C      31.0950000000    18.1530000000    31.9430000000
  164      H      30.5100000000    18.9140000000    31.4200000000
  165      H      31.7520000000    18.7300000000    32.5990000000
  166      H      31.5680000000    17.3810000000    31.3300000000
  167      S      29.8770000000    17.3960000000    33.0430000000
  168      C      31.1030000000    16.2980000000    33.7880000000
  169      H      31.7190000000    16.8980000000    34.4630000000
  170      H      30.5530000000    15.5420000000    34.3540000000
  171      H      31.6670000000    15.7370000000    33.0380000000
  172      O      29.0050000000    16.4480000000    32.2810000000
  173      C      20.1130000000    24.8200000000    30.5440000000
  174      H      21.0170000000    24.7300000000    31.1520000000
  175      H      20.0040000000    25.8590000000    30.2240000000
  176      H      19.1960000000    24.5860000000    31.0920000000
  177      S      20.1920000000    23.8450000000    29.0250000000
  178      C      18.5310000000    24.3530000000    28.5270000000
  179      H      18.5260000000    25.4190000000    28.2890000000
  180      H      18.0910000000    23.7820000000    27.7050000000
  181      H      17.8890000000    24.1930000000    29.3980000000
  182      O      20.0680000000    22.4690000000    29.6000000000
  183      C      17.4280000000    20.3510000000    30.2450000000
  184      H      17.9980000000    19.4390000000    30.0500000000
  185      H      16.6470000000    20.2970000000    29.4820000000
  186      H      18.0780000000    21.2180000000    30.1040000000
  187      S      16.9280000000    20.3510000000    31.9810000000
  188      C      18.6060000000    19.8190000000    32.3880000000
  189      H      19.2360000000    20.5950000000    31.9460000000
  190      H      18.6300000000    19.7610000000    33.4790000000
  191      H      18.8760000000    18.8240000000    32.0230000000
  192      O      16.2130000000    19.0490000000    32.1650000000
  193      C      27.1400000000    27.9250000000    34.8390000000
  194      H      26.3820000000    28.4180000000    34.2250000000
  195      H      26.7370000000    28.0190000000    35.8510000000
  196      H      28.1670000000    28.2920000000    34.7650000000
  197      S      27.1700000000    26.1580000000    34.4610000000
  198      C      27.3080000000    26.2580000000    32.6620000000
  199      H      26.7090000000    27.1180000000    32.3530000000
  200      H      28.3510000000    26.3520000000    32.3490000000
  201      H      26.9270000000    25.3470000000    32.1940000000
  202      O      25.7650000000    25.6930000000    34.6840000000
  203      C      19.6510000000    14.5440000000    32.4180000000
  204      H      20.4300000000    14.9270000000    31.7540000000
  205      H      19.6950000000    13.4540000000    32.4930000000
  206      H      18.6810000000    14.7980000000    31.9830000000
  207      S      19.7190000000    15.1530000000    34.1170000000
  208      C      20.3290000000    16.8120000000    33.7380000000
  209      H      20.7190000000    17.2730000000    34.6490000000
  210      H      21.0830000000    16.6000000000    32.9760000000
  211      H      19.4750000000    17.3590000000    33.3320000000
  212      O      20.8720000000    14.3680000000    34.6600000000
  213      C      22.7930000000    22.9360000000    23.6000000000
  214      H      23.3140000000    22.7570000000    22.6560000000
  215      H      22.1170000000    22.1180000000    23.8610000000
  216      H      22.3900000000    23.9490000000    23.6800000000
  217      S      23.9900000000    22.8580000000    24.9520000000
  218      C      22.7280000000    22.7490000000    26.2410000000
  219      H      22.7020000000    21.6730000000    26.4300000000
  220      H      23.2670000000    23.1710000000    27.0940000000
  221      H      21.7890000000    23.2780000000    26.0630000000
  222      O      24.5670000000    24.2390000000    24.9670000000
  223      C      20.9580000000    16.3800000000    25.8910000000
  224      H      21.2190000000    15.8400000000    26.8040000000
  225      H      21.4300000000    15.8830000000    25.0400000000
  226      H      21.3160000000    17.4120000000    25.8410000000
  227      S      19.1790000000    16.3350000000    25.5770000000
  228      C      19.0840000000    14.5950000000    25.0990000000
  229      H      19.3910000000    13.9440000000    25.9230000000
  230      H      18.0300000000    14.4220000000    24.8690000000
  231      H      19.6440000000    14.6040000000    24.1600000000
  232      O      18.9930000000    17.1490000000    24.3350000000
  233      C      24.6650000000    19.3320000000    34.5210000000
  234      H      25.0810000000    20.0150000000    33.7760000000
  235      H      24.1910000000    18.5460000000    33.9260000000
  236      H      24.0060000000    19.7630000000    35.2780000000
  237      S      25.9450000000    18.5340000000    35.5170000000
  238      C      25.9410000000    16.9880000000    34.5810000000
  239      H      24.8950000000    16.6890000000    34.4790000000
  240      H      26.3830000000    17.1390000000    33.5930000000
  241      H      26.4860000000    16.3830000000    35.3100000000
  242      O      25.1810000000    18.0110000000    36.6930000000
  243      C      24.8140000000    18.1050000000    22.6270000000
  244      H      24.6800000000    17.3880000000    21.8140000000
  245      H      24.7770000000    19.1320000000    22.2560000000
  246      H      25.7680000000    17.8050000000    23.0680000000
  247      S      23.4790000000    17.7510000000    23.7930000000
  248      C      23.7130000000    19.0150000000    25.0620000000
  249      H      24.6750000000    18.9390000000    25.5750000000
  250      H      23.6350000000    19.9910000000    24.5760000000
  251      H      22.8340000000    18.8820000000    25.6980000000
  252      O      23.7360000000    16.4010000000    24.3870000000
  253      C      21.8300000000    26.9400000000    24.4130000000
  254      H      21.1200000000    26.8140000000    23.5920000000
  255      H      22.3340000000    27.9060000000    24.3430000000
  256      H      22.5830000000    26.1620000000    24.5620000000
  257      S      20.7800000000    27.0580000000    25.8790000000
  258      C      22.2040000000    27.1940000000    26.9830000000
  259      H      22.9590000000    26.4070000000    26.9210000000
  260      H      22.7610000000    28.1070000000    26.7580000000
  261      H      21.7620000000    27.3210000000    27.9750000000
  262      O      20.3980000000    25.6210000000    26.0590000000
  263      C      29.1260000000    21.7340000000    26.2460000000
  264      H      29.4870000000    20.8710000000    26.8120000000
  265      H      29.3110000000    21.6410000000    25.1730000000
  266      H      29.4900000000    22.6990000000    26.6080000000
  267      S      27.3290000000    21.7350000000    26.4350000000
  268      C      27.4540000000    21.7570000000    28.2370000000
  269      H      27.9730000000    22.6950000000    28.4490000000
  270      H      26.5170000000    21.7210000000    28.7990000000
  271      H      28.1150000000    20.9380000000    28.5330000000
  272      O      27.0030000000    20.3210000000    26.0640000000
  273      C      29.4350000000    14.8140000000    23.7970000000
  274      H      28.6720000000    14.0330000000    23.7450000000
  275      H      30.2820000000    14.7080000000    23.1140000000
  276      H      29.8120000000    14.7290000000    24.8200000000
  277      S      28.5490000000    16.3860000000    23.7000000000
  278      C      27.0600000000    15.8750000000    24.5890000000
  279      H      26.4500000000    16.7820000000    24.5790000000
  280      H      26.6730000000    15.0780000000    23.9480000000
  281      H      27.1950000000    15.5070000000    25.6090000000
  282      O      28.1490000000    16.5000000000    22.2620000000
  283      C      16.9110000000    16.5170000000    29.6390000000
  284      H      16.2730000000    16.1010000000    28.8550000000
  285      H      17.1190000000    15.9190000000    30.5290000000
  286      H      16.5880000000    17.5160000000    29.9440000000
  287      S      18.4600000000    16.7690000000    28.7430000000
  288      C      18.8080000000    15.0010000000    28.6070000000
  289      H      18.8590000000    14.5360000000    29.5940000000
  290      H      17.9650000000    14.5600000000    28.0680000000
  291      H      19.7930000000    14.8890000000    28.1470000000
  292      O      19.4830000000    17.1110000000    29.7810000000
  293      C      32.0400000000    22.1520000000    28.7490000000
  294      H      31.7320000000    21.7660000000    27.7740000000
  295      H      32.2760000000    23.2160000000    28.6720000000
  296      H      32.8400000000    21.5300000000    29.1590000000
  297      S      30.7220000000    22.1180000000    29.9840000000
  298      C      31.7640000000    22.0300000000    31.4580000000
  299      H      32.2250000000    23.0170000000    31.5450000000
  300      H      31.0450000000    21.8170000000    32.2520000000
  301      H      32.3470000000    21.1340000000    31.2280000000
  302      O      30.2370000000    20.7030000000    29.9310000000
 ----------------------------------------------------------------
 Nuclear Repulsion Energy =       51432.26217732 hartrees
 There are      623 alpha and      623 beta electrons
 Requested basis set is 6-31+G(d)
 There are 995 shells and 2773 basis functions

 Total QAlloc Memory Limit  16000 MB
 Mega-Array Size      7821 MB
 MEM_STATIC part      8000 MB
 A cutoff of  1.0D-14 yielded 189149 shell pairs
 There are   1637054 function pairs
 Smallest overlap matrix eigenvalue = 4.59E-07
 Linear dependence detected in AO basis
 Tighter screening thresholds may be required for diffuse basis sets
 Use S2THRESH > 14 and THRESH = 14 in case of SCF convergence issues
 Number of orthogonalized atomic orbitals = 2771
 Maximum deviation from orthogonality = 2.477E-10

 Scale SEOQF with 1.000000e-03/1.000000e-03/1.000000e-03

 Standard Electronic Orientation quadrupole field applied
 Nucleus-field energy     =    -0.0000006061 hartrees
Attempting to make child job directory: /local/scratch/users/ymao/r7.00_frame_0013_almo_B3LYP_dp.in20210311133739//Frg1/
Attempting to make child job directory: /local/scratch/users/ymao/r7.00_frame_0013_almo_B3LYP_dp.in20210311133739//Frg2/
Creating input file /local/scratch/users/ymao/r7.00_frame_0013_almo_B3LYP_dp.in20210311133739/Frg1.input
using default PutDataFrgm: nothing
calling putenv with: QCSCRATCH=/local/scratch/users/ymao/r7.00_frame_0013_almo_B3LYP_dp.in20210311133739/ 
Spawning Job For Fragment 0
Done Job For Fragment 0
calling putenv with: QCSCRATCH=/local/scratch/users/ymao 
calling putenv with: QCTHREADS=8 
Creating input file /local/scratch/users/ymao/r7.00_frame_0013_almo_B3LYP_dp.in20210311133739/Frg2.input
using default PutDataFrgm: nothing
calling putenv with: QCSCRATCH=/local/scratch/users/ymao/r7.00_frame_0013_almo_B3LYP_dp.in20210311133739/ 
Spawning Job For Fragment 1
Done Job For Fragment 1
calling putenv with: QCSCRATCH=/local/scratch/users/ymao 
calling putenv with: QCTHREADS=8 
 Time for running child jobs:  CPU 0.96 s  wall 31082.05 s

 -----------------------------------------------------------------------
  General SCF calculation program by
  Eric Jon Sundstrom, Paul Horn, Yuezhi Mao, Dmitri Zuev, Alec White,
  David Stuck, Shaama M.S., Shane Yost, Joonho Lee, David Small,
  Daniel Levine, Susi Lehtola, Hugh Burton, Evgeny Epifanovsky,
  Bang C. Huynh
 -----------------------------------------------------------------------
Performing Restricted Closed Shell SCFMI
Doing General SCFMI
 Exchange:     0.2000 Hartree-Fock + 0.0800 Slater + 0.7200 B88
 Correlation:  0.1900 VWN1RPA + 0.8100 LYP
 Using Euler-Maclaurin-Lebedev (75,302) quadrature formula
performing fock build before subrot guess so that all methods have access
Printing subrot_rss_gen Method Specification:
Occupied Subspace Method is 0
Virtual Subspace Method is 0
Energy prior to optimization (guess energy) = -15893.858879175204
Begin Timing: Total SCF Calculation
begin iterations for algorithm: DIIS         
the SCF tolerance is set to 1.00e-08
    1  -15893.8588791752      4.86e-05     00000 
    2  -15893.8580713757      7.19e-05     00000 
    3  -15893.8722552677      1.94e-05     00000 
    4  -15893.8731975515      7.73e-06     00000 
    5  -15893.8733962896      2.86e-06     00000 
    6  -15893.8734213409      1.79e-06     00000 
    7  -15893.8734302201      1.15e-06     00000 
    8  -15893.8734338694      6.05e-07     00000 
    9  -15893.8734348409      3.22e-07     00000 
   10  -15893.8734350569      2.24e-07     00000 
   11  -15893.8734351561      1.49e-07     00000 
   12  -15893.8734352104      8.03e-08     00000 
   13  -15893.8734352266      4.40e-08     00000 
   14  -15893.8734352312      2.66e-08     00000 
   15  -15893.8734352325      1.92e-08     00000 
   16  -15893.8734352335      7.67e-09     00000 Convergence criterion met
write pseudocanon occs and virts to disk
write pseudocanon orbital energies to disk
Timing for Total SCF: 52040.00s (wall), 397564.08s (cpu)
SCFMI Energy  -15893.8734352335
<S^2>            0.00000
 Total energy in the final basis set =   -15893.8734352335
    ==================================================
        The end of Object-Oriented SCFman: SCFMI      
    ==================================================
 
 --------------------------------------------------------------
 
                    Orbital Energies (a.u.)
 --------------------------------------------------------------
 
 Alpha MOs
 -- Occupied --
-89.0469 -89.0438 -89.0392 -89.0307 -89.0257 -89.0244 -89.0202 -89.0120
-89.0112 -89.0100 -89.0055 -89.0040 -89.0040 -89.0005 -88.9973 -88.9950
-88.9858 -88.9846 -88.9793 -88.9760 -88.9757 -88.9743 -88.9731 -88.9705
-88.9651 -88.9643 -88.9626 -88.9593 -19.1616 -19.1573 -19.1483 -19.1427
-19.1410 -19.1361 -19.1314 -19.1304 -19.1302 -19.1286 -19.1209 -19.1194
-19.1177 -19.1152 -19.1142 -19.1121 -19.1085 -19.1003 -19.1002 -19.0984
-19.0967 -19.0951 -19.0922 -19.0874 -19.0831 -19.0816 -19.0807 -19.0792
-19.0729 -14.3453 -10.2806 -10.2673 -10.2636 -10.2579 -10.2551 -10.2547
-10.2520 -10.2513 -10.2475 -10.2445 -10.2389 -10.2388 -10.2364 -10.2352
-10.2290 -10.2273 -10.2268 -10.2267 -10.2259 -10.2248 -10.2232 -10.2221
-10.2217 -10.2216 -10.2208 -10.2206 -10.2205 -10.2204 -10.2194 -10.2158
-10.2111 -10.2107 -10.2090 -10.2085 -10.2067 -10.2060 -10.2047 -10.2040
-10.2017 -10.2017 -10.1979 -10.1974 -10.1968 -10.1960 -10.1954 -10.1921
-10.1892 -10.1880 -10.1867 -10.1866 -10.1864 -10.1858 -10.1837 -10.1836
-10.1835 -10.1828 -10.1805 -10.1799 -10.1791 -10.1760 -10.1715 -10.1701
-10.1686  -8.0926  -8.0886  -8.0855  -8.0767  -8.0721  -8.0697  -8.0649
 -8.0584  -8.0568  -8.0560  -8.0518  -8.0502  -8.0494  -8.0467  -8.0434
 -8.0408  -8.0320  -8.0305  -8.0260  -8.0219  -8.0217  -8.0208  -8.0195
 -8.0167  -8.0112  -8.0105  -8.0078  -8.0055  -6.0570  -6.0555  -6.0530
 -6.0516  -6.0502  -6.0497  -6.0485  -6.0464  -6.0432  -6.0410  -6.0400
 -6.0366  -6.0350  -6.0342  -6.0340  -6.0327  -6.0295  -6.0293  -6.0282
 -6.0273  -6.0230  -6.0224  -6.0212  -6.0210  -6.0204  -6.0199  -6.0190
 -6.0163  -6.0158  -6.0147  -6.0146  -6.0143  -6.0137  -6.0135  -6.0132
 -6.0124  -6.0110  -6.0094  -6.0091  -6.0079  -6.0075  -6.0070  -6.0064
 -6.0052  -6.0046  -6.0042  -6.0007  -5.9979  -5.9963  -5.9952  -5.9949
 -5.9935  -5.9901  -5.9893  -5.9891  -5.9878  -5.9863  -5.9860  -5.9851
 -5.9850  -5.9848  -5.9840  -5.9837  -5.9834  -5.9824  -5.9812  -5.9800
 -5.9795  -5.9788  -5.9782  -5.9773  -5.9755  -5.9750  -5.9743  -5.9734
 -5.9734  -5.9723  -5.9709  -5.9698  -5.9687  -5.9686  -5.9681  -5.9651
 -5.9628  -1.0715  -1.0662  -1.0607  -1.0552  -1.0529  -1.0491  -1.0458
 -1.0407  -1.0385  -1.0380  -1.0355  -1.0313  -1.0291  -1.0260  -1.0248
 -1.0211  -1.0206  -1.0105  -1.0100  -1.0080  -1.0050  -1.0014  -1.0010
 -0.9986  -0.9950  -0.9897  -0.9889  -0.9876  -0.9857  -0.9143  -0.8572
 -0.8441  -0.8385  -0.8343  -0.8307  -0.8293  -0.8257  -0.8179  -0.8175
 -0.8171  -0.8144  -0.8103  -0.8086  -0.8067  -0.8011  -0.7992  -0.7984
 -0.7908  -0.7888  -0.7853  -0.7837  -0.7810  -0.7796  -0.7773  -0.7727
 -0.7699  -0.7683  -0.7661  -0.7640  -0.7631  -0.7628  -0.7615  -0.7579
 -0.7577  -0.7470  -0.7465  -0.7445  -0.7437  -0.7370  -0.7363  -0.7350
 -0.7325  -0.7324  -0.7301  -0.7286  -0.7278  -0.7194  -0.7164  -0.7161
 -0.7122  -0.7107  -0.7084  -0.7054  -0.7049  -0.6989  -0.6975  -0.6904
 -0.6881  -0.6856  -0.6606  -0.6581  -0.6513  -0.6453  -0.6379  -0.6356
 -0.6336  -0.6330  -0.6288  -0.6259  -0.6201  -0.6192  -0.6177  -0.6162
 -0.6155  -0.6139  -0.6099  -0.6096  -0.5983  -0.5968  -0.5967  -0.5902
 -0.5894  -0.5866  -0.5854  -0.5836  -0.5798  -0.5785  -0.5760  -0.5729
 -0.5692  -0.5651  -0.5399  -0.5286  -0.5247  -0.5209  -0.5197  -0.5193
 -0.5162  -0.5128  -0.5065  -0.5053  -0.5040  -0.5027  -0.5010  -0.4996
 -0.4988  -0.4977  -0.4969  -0.4941  -0.4939  -0.4930  -0.4919  -0.4908
 -0.4900  -0.4894  -0.4885  -0.4861  -0.4850  -0.4841  -0.4829  -0.4810
 -0.4805  -0.4801  -0.4794  -0.4789  -0.4783  -0.4770  -0.4766  -0.4753
 -0.4750  -0.4742  -0.4735  -0.4732  -0.4725  -0.4719  -0.4716  -0.4711
 -0.4688  -0.4678  -0.4675  -0.4668  -0.4668  -0.4665  -0.4649  -0.4639
 -0.4630  -0.4624  -0.4619  -0.4618  -0.4616  -0.4604  -0.4592  -0.4587
 -0.4582  -0.4579  -0.4573  -0.4571  -0.4559  -0.4551  -0.4547  -0.4543
 -0.4541  -0.4525  -0.4521  -0.4519  -0.4510  -0.4492  -0.4490  -0.4487
 -0.4482  -0.4469  -0.4455  -0.4449  -0.4444  -0.4436  -0.4432  -0.4422
 -0.4418  -0.4414  -0.4412  -0.4406  -0.4405  -0.4388  -0.4374  -0.4365
 -0.4360  -0.4357  -0.4356  -0.4351  -0.4344  -0.4336  -0.4331  -0.4325
 -0.4324  -0.4319  -0.4315  -0.4307  -0.4298  -0.4290  -0.4282  -0.4279
 -0.4273  -0.4269  -0.4261  -0.4245  -0.4235  -0.4230  -0.4229  -0.4210
 -0.4207  -0.4196  -0.4186  -0.4183  -0.4177  -0.4169  -0.4167  -0.4161
 -0.4146  -0.4142  -0.4134  -0.4124  -0.4118  -0.4111  -0.4110  -0.4100
 -0.4095  -0.4093  -0.4082  -0.4068  -0.4065  -0.4051  -0.4042  -0.4040
 -0.4033  -0.4023  -0.4012  -0.4003  -0.3995  -0.3992  -0.3974  -0.3969
 -0.3966  -0.3960  -0.3958  -0.3940  -0.3938  -0.3932  -0.3915  -0.3903
 -0.3902  -0.3900  -0.3874  -0.3865  -0.3857  -0.3856  -0.3833  -0.3831
 -0.3812  -0.3808  -0.3804  -0.3798  -0.3793  -0.3791  -0.3775  -0.3772
 -0.3731  -0.3725  -0.3721  -0.3717  -0.3709  -0.3708  -0.3701  -0.3686
 -0.3677  -0.3672  -0.3656  -0.3644  -0.3627  -0.3622  -0.3611  -0.3604
 -0.3591  -0.3589  -0.3519  -0.3518  -0.3512  -0.3472  -0.3462  -0.3457
 -0.3432  -0.3425  -0.3413  -0.3400  -0.3347  -0.3326  -0.3318  -0.3303
 -0.3275  -0.3265  -0.3218  -0.3216  -0.3195  -0.3162  -0.3066  -0.3056
 -0.3025  -0.3024  -0.2966  -0.2943  -0.2928  -0.2917  -0.2892  -0.2886
 -0.2847  -0.2819  -0.2808  -0.2789  -0.2758  -0.2747  -0.2737  -0.2683
 -0.2678  -0.2666  -0.2651  -0.2635  -0.2621  -0.2612  -0.2607  -0.2602
 -0.2578  -0.2574  -0.2551  -0.2542  -0.2539  -0.2529  -0.2481  -0.2460
 -0.2446  -0.2438  -0.2434  -0.2428  -0.2415  -0.2415  -0.2414  -0.2391
 -0.2385  -0.2360  -0.2336  -0.2263  -0.2244  -0.2215  -0.2183  -0.2174
 -0.2126  -0.2119  -0.2081  -0.2077  -0.2054  -0.1999  -0.1992
 -- Virtual --
 -0.0566  -0.0499  -0.0457  -0.0399  -0.0363  -0.0339  -0.0319  -0.0308
 -0.0283  -0.0253  -0.0237  -0.0222  -0.0213  -0.0190  -0.0173  -0.0165
 -0.0147  -0.0139  -0.0124  -0.0109  -0.0100  -0.0098  -0.0089  -0.0082
 -0.0078  -0.0073  -0.0065  -0.0054  -0.0029  -0.0021  -0.0018  -0.0007
  0.0001   0.0010   0.0021   0.0035   0.0049   0.0059   0.0068   0.0071
  0.0088   0.0092   0.0104   0.0112   0.0116   0.0124   0.0133   0.0138
  0.0141   0.0143   0.0147   0.0158   0.0159   0.0179   0.0188   0.0199
  0.0204   0.0211   0.0218   0.0229   0.0237   0.0245   0.0251   0.0254
  0.0267   0.0273   0.0279   0.0295   0.0298   0.0300   0.0306   0.0310
  0.0317   0.0321   0.0326   0.0331   0.0338   0.0345   0.0357   0.0362
  0.0363   0.0367   0.0375   0.0384   0.0387   0.0397   0.0401   0.0406
  0.0413   0.0419   0.0427   0.0435   0.0439   0.0445   0.0450   0.0457
  0.0461   0.0473   0.0474   0.0481   0.0486   0.0487   0.0500   0.0503
  0.0504   0.0510   0.0512   0.0527   0.0533   0.0537   0.0544   0.0556
  0.0558   0.0565   0.0578   0.0583   0.0586   0.0595   0.0604   0.0610
  0.0616   0.0623   0.0626   0.0632   0.0645   0.0650   0.0658   0.0667
  0.0669   0.0676   0.0679   0.0685   0.0688   0.0700   0.0701   0.0710
  0.0713   0.0720   0.0721   0.0731   0.0737   0.0738   0.0744   0.0758
  0.0760   0.0764   0.0768   0.0771   0.0781   0.0787   0.0796   0.0799
  0.0802   0.0810   0.0814   0.0816   0.0825   0.0827   0.0836   0.0842
  0.0849   0.0858   0.0865   0.0867   0.0872   0.0882   0.0891   0.0894
  0.0897   0.0905   0.0911   0.0912   0.0913   0.0924   0.0936   0.0940
  0.0942   0.0944   0.0948   0.0952   0.0961   0.0970   0.0980   0.0982
  0.1000   0.1001   0.1009   0.1019   0.1023   0.1027   0.1038   0.1047
  0.1052   0.1058   0.1061   0.1062   0.1069   0.1072   0.1077   0.1081
  0.1091   0.1100   0.1102   0.1108   0.1112   0.1119   0.1127   0.1127
  0.1136   0.1141   0.1145   0.1154   0.1161   0.1176   0.1177   0.1179
  0.1181   0.1191   0.1198   0.1201   0.1211   0.1214   0.1220   0.1225
  0.1235   0.1236   0.1245   0.1252   0.1256   0.1264   0.1272   0.1283
  0.1287   0.1294   0.1298   0.1305   0.1310   0.1315   0.1318   0.1324
  0.1328   0.1338   0.1346   0.1351   0.1357   0.1365   0.1375   0.1381
  0.1385   0.1389   0.1403   0.1409   0.1415   0.1420   0.1425   0.1429
  0.1434   0.1446   0.1453   0.1457   0.1463   0.1467   0.1470   0.1471
  0.1481   0.1489   0.1494   0.1498   0.1502   0.1509   0.1511   0.1522
  0.1527   0.1532   0.1540   0.1547   0.1550   0.1563   0.1569   0.1574
  0.1578   0.1583   0.1595   0.1601   0.1606   0.1609   0.1621   0.1627
  0.1629   0.1637   0.1639   0.1647   0.1652   0.1658   0.1665   0.1669
  0.1674   0.1678   0.1688   0.1688   0.1695   0.1701   0.1714   0.1717
  0.1723   0.1732   0.1735   0.1737   0.1746   0.1750   0.1758   0.1763
  0.1769   0.1775   0.1782   0.1787   0.1790   0.1799   0.1806   0.1808
  0.1815   0.1823   0.1825   0.1828   0.1845   0.1848   0.1856   0.1857
  0.1868   0.1871   0.1876   0.1884   0.1886   0.1891   0.1897   0.1900
  0.1906   0.1911   0.1915   0.1923   0.1927   0.1935   0.1944   0.1947
  0.1952   0.1963   0.1968   0.1971   0.1982   0.1983   0.1994   0.1997
  0.2000   0.2006   0.2009   0.2018   0.2019   0.2030   0.2035   0.2043
  0.2050   0.2054   0.2062   0.2066   0.2074   0.2077   0.2081   0.2087
  0.2097   0.2105   0.2110   0.2116   0.2124   0.2127   0.2129   0.2139
  0.2144   0.2146   0.2157   0.2159   0.2164   0.2169   0.2177   0.2182
  0.2195   0.2204   0.2206   0.2207   0.2217   0.2221   0.2229   0.2240
  0.2243   0.2248   0.2256   0.2258   0.2261   0.2268   0.2275   0.2282
  0.2293   0.2294   0.2298   0.2302   0.2307   0.2319   0.2323   0.2330
  0.2343   0.2346   0.2353   0.2366   0.2368   0.2374   0.2378   0.2383
  0.2384   0.2386   0.2401   0.2406   0.2416   0.2422   0.2431   0.2436
  0.2438   0.2446   0.2456   0.2466   0.2473   0.2476   0.2485   0.2490
  0.2495   0.2508   0.2510   0.2515   0.2526   0.2532   0.2537   0.2545
  0.2549   0.2555   0.2559   0.2579   0.2584   0.2590   0.2594   0.2601
  0.2602   0.2606   0.2619   0.2629   0.2643   0.2644   0.2645   0.2657
  0.2660   0.2665   0.2671   0.2680   0.2692   0.2696   0.2699   0.2708
  0.2711   0.2717   0.2718   0.2727   0.2731   0.2735   0.2746   0.2757
  0.2757   0.2771   0.2773   0.2777   0.2779   0.2788   0.2802   0.2809
  0.2812   0.2814   0.2832   0.2842   0.2846   0.2849   0.2855   0.2862
  0.2867   0.2890   0.2898   0.2904   0.2910   0.2922   0.2928   0.2939
  0.2944   0.2948   0.2956   0.2965   0.2967   0.2972   0.2984   0.2990
  0.3002   0.3007   0.3020   0.3023   0.3029   0.3030   0.3054   0.3055
  0.3063   0.3070   0.3072   0.3079   0.3091   0.3100   0.3110   0.3129
  0.3132   0.3141   0.3147   0.3155   0.3157   0.3168   0.3174   0.3188
  0.3191   0.3204   0.3213   0.3220   0.3231   0.3240   0.3244   0.3248
  0.3262   0.3268   0.3271   0.3289   0.3297   0.3305   0.3315   0.3330
  0.3333   0.3342   0.3345   0.3350   0.3352   0.3358   0.3378   0.3393
  0.3400   0.3405   0.3414   0.3419   0.3431   0.3440   0.3447   0.3454
  0.3461   0.3467   0.3473   0.3487   0.3494   0.3507   0.3514   0.3520
  0.3522   0.3534   0.3540   0.3543   0.3546   0.3569   0.3572   0.3578
  0.3586   0.3591   0.3605   0.3608   0.3618   0.3627   0.3632   0.3640
  0.3649   0.3661   0.3666   0.3675   0.3676   0.3683   0.3693   0.3711
  0.3714   0.3722   0.3724   0.3731   0.3755   0.3759   0.3765   0.3770
  0.3789   0.3791   0.3801   0.3808   0.3812   0.3826   0.3835   0.3844
  0.3857   0.3860   0.3870   0.3878   0.3886   0.3892   0.3898   0.3911
  0.3919   0.3924   0.3929   0.3943   0.3947   0.3961   0.3965   0.3988
  0.3991   0.3996   0.4009   0.4019   0.4026   0.4034   0.4040   0.4048
  0.4056   0.4062   0.4076   0.4087   0.4096   0.4103   0.4116   0.4120
  0.4128   0.4143   0.4160   0.4162   0.4169   0.4175   0.4187   0.4196
  0.4206   0.4209   0.4226   0.4235   0.4243   0.4249   0.4259   0.4271
  0.4274   0.4288   0.4292   0.4309   0.4311   0.4331   0.4339   0.4350
  0.4355   0.4365   0.4370   0.4379   0.4394   0.4400   0.4404   0.4423
  0.4431   0.4437   0.4443   0.4465   0.4471   0.4479   0.4496   0.4509
  0.4511   0.4523   0.4534   0.4549   0.4561   0.4564   0.4571   0.4580
  0.4592   0.4600   0.4609   0.4618   0.4629   0.4645   0.4650   0.4658
  0.4668   0.4682   0.4691   0.4700   0.4707   0.4720   0.4730   0.4743
  0.4761   0.4772   0.4776   0.4802   0.4818   0.4832   0.4849   0.4859
  0.4868   0.4886   0.4889   0.4908   0.4926   0.4930   0.4947   0.4952
  0.4964   0.4966   0.4987   0.5002   0.5018   0.5023   0.5050   0.5058
  0.5065   0.5079   0.5104   0.5119   0.5125   0.5141   0.5144   0.5164
  0.5172   0.5193   0.5202   0.5227   0.5239   0.5252   0.5259   0.5265
  0.5281   0.5302   0.5317   0.5325   0.5352   0.5356   0.5379   0.5396
  0.5405   0.5428   0.5447   0.5465   0.5474   0.5478   0.5506   0.5514
  0.5542   0.5553   0.5575   0.5580   0.5591   0.5601   0.5621   0.5647
  0.5655   0.5662   0.5672   0.5697   0.5719   0.5728   0.5745   0.5763
  0.5778   0.5795   0.5820   0.5828   0.5837   0.5851   0.5865   0.5890
  0.5896   0.5910   0.5926   0.5938   0.5943   0.5954   0.5969   0.5990
  0.6003   0.6022   0.6026   0.6038   0.6051   0.6054   0.6077   0.6098
  0.6104   0.6120   0.6124   0.6135   0.6144   0.6173   0.6180   0.6195
  0.6204   0.6212   0.6232   0.6249   0.6256   0.6269   0.6278   0.6283
  0.6290   0.6322   0.6331   0.6344   0.6348   0.6360   0.6375   0.6388
  0.6401   0.6415   0.6428   0.6435   0.6439   0.6451   0.6470   0.6481
  0.6495   0.6510   0.6518   0.6531   0.6532   0.6542   0.6554   0.6569
  0.6585   0.6595   0.6609   0.6625   0.6645   0.6648   0.6655   0.6658
  0.6670   0.6687   0.6692   0.6704   0.6711   0.6721   0.6726   0.6730
  0.6741   0.6756   0.6759   0.6781   0.6790   0.6794   0.6802   0.6812
  0.6817   0.6829   0.6842   0.6851   0.6859   0.6865   0.6877   0.6882
  0.6898   0.6914   0.6927   0.6930   0.6937   0.6943   0.6968   0.6975
  0.6991   0.7002   0.7008   0.7028   0.7033   0.7053   0.7061   0.7077
  0.7084   0.7099   0.7106   0.7126   0.7138   0.7141   0.7160   0.7171
  0.7184   0.7187   0.7193   0.7207   0.7218   0.7225   0.7247   0.7249
  0.7263   0.7276   0.7285   0.7300   0.7311   0.7325   0.7328   0.7355
  0.7357   0.7371   0.7381   0.7400   0.7419   0.7433   0.7448   0.7451
  0.7470   0.7481   0.7492   0.7501   0.7505   0.7518   0.7549   0.7559
  0.7565   0.7590   0.7594   0.7615   0.7636   0.7651   0.7665   0.7672
  0.7690   0.7700   0.7713   0.7735   0.7748   0.7757   0.7765   0.7785
  0.7803   0.7811   0.7822   0.7853   0.7872   0.7876   0.7889   0.7891
  0.7906   0.7922   0.7940   0.7951   0.7970   0.7983   0.7998   0.8011
  0.8039   0.8053   0.8058   0.8063   0.8070   0.8080   0.8098   0.8116
  0.8140   0.8159   0.8162   0.8180   0.8187   0.8207   0.8213   0.8230
  0.8243   0.8250   0.8258   0.8266   0.8274   0.8301   0.8308   0.8319
  0.8331   0.8370   0.8391   0.8407   0.8421   0.8430   0.8435   0.8456
  0.8472   0.8487   0.8498   0.8503   0.8514   0.8525   0.8554   0.8570
  0.8581   0.8585   0.8607   0.8623   0.8632   0.8652   0.8658   0.8668
  0.8683   0.8695   0.8700   0.8718   0.8725   0.8748   0.8757   0.8767
  0.8780   0.8807   0.8810   0.8813   0.8838   0.8846   0.8853   0.8877
  0.8878   0.8909   0.8918   0.8937   0.8945   0.8949   0.8955   0.8970
  0.8976   0.9001   0.9015   0.9021   0.9034   0.9042   0.9063   0.9068
  0.9077   0.9089   0.9102   0.9109   0.9123   0.9131   0.9145   0.9150
  0.9161   0.9173   0.9179   0.9187   0.9205   0.9209   0.9221   0.9235
  0.9241   0.9261   0.9274   0.9291   0.9296   0.9305   0.9316   0.9340
  0.9344   0.9355   0.9364   0.9372   0.9385   0.9401   0.9410   0.9419
  0.9428   0.9441   0.9448   0.9454   0.9462   0.9465   0.9478   0.9496
  0.9514   0.9522   0.9537   0.9552   0.9565   0.9566   0.9576   0.9581
  0.9598   0.9612   0.9641   0.9644   0.9666   0.9676   0.9679   0.9688
  0.9701   0.9709   0.9720   0.9730   0.9745   0.9757   0.9759   0.9768
  0.9791   0.9797   0.9811   0.9820   0.9827   0.9837   0.9851   0.9855
  0.9875   0.9887   0.9901   0.9904   0.9914   0.9918   0.9926   0.9948
  0.9963   0.9968   0.9981   0.9984   0.9991   1.0015   1.0034   1.0041
  1.0044   1.0057   1.0064   1.0071   1.0085   1.0099   1.0106   1.0111
  1.0130   1.0134   1.0154   1.0168   1.0171   1.0189   1.0200   1.0205
  1.0210   1.0228   1.0231   1.0250   1.0256   1.0270   1.0284   1.0289
  1.0296   1.0307   1.0320   1.0328   1.0341   1.0354   1.0377   1.0382
  1.0389   1.0404   1.0410   1.0419   1.0425   1.0438   1.0451   1.0464
  1.0466   1.0482   1.0494   1.0504   1.0508   1.0514   1.0540   1.0548
  1.0554   1.0564   1.0574   1.0583   1.0595   1.0627   1.0629   1.0633
  1.0641   1.0654   1.0669   1.0685   1.0702   1.0710   1.0719   1.0741
  1.0741   1.0754   1.0762   1.0776   1.0784   1.0798   1.0806   1.0810
  1.0821   1.0825   1.0849   1.0862   1.0870   1.0874   1.0895   1.0895
  1.0903   1.0926   1.0941   1.0954   1.0974   1.0978   1.0985   1.0988
  1.1005   1.1015   1.1037   1.1052   1.1059   1.1080   1.1082   1.1091
  1.1109   1.1145   1.1158   1.1167   1.1193   1.1194   1.1213   1.1219
  1.1235   1.1251   1.1273   1.1286   1.1291   1.1308   1.1315   1.1329
  1.1334   1.1354   1.1357   1.1373   1.1394   1.1404   1.1409   1.1416
  1.1428   1.1437   1.1464   1.1470   1.1485   1.1510   1.1515   1.1522
  1.1543   1.1556   1.1568   1.1580   1.1591   1.1616   1.1644   1.1647
  1.1667   1.1692   1.1700   1.1707   1.1712   1.1730   1.1745   1.1754
  1.1765   1.1781   1.1795   1.1807   1.1817   1.1829   1.1856   1.1865
  1.1880   1.1891   1.1916   1.1917   1.1935   1.1946   1.1951   1.1971
  1.1974   1.1980   1.1987   1.2000   1.2033   1.2051   1.2056   1.2087
  1.2117   1.2127   1.2145   1.2173   1.2191   1.2198   1.2209   1.2240
  1.2253   1.2274   1.2280   1.2295   1.2334   1.2342   1.2352   1.2362
  1.2392   1.2407   1.2420   1.2430   1.2442   1.2462   1.2474   1.2516
  1.2533   1.2543   1.2555   1.2585   1.2589   1.2617   1.2627   1.2638
  1.2672   1.2682   1.2693   1.2704   1.2716   1.2742   1.2762   1.2776
  1.2804   1.2828   1.2845   1.2861   1.2876   1.2887   1.2915   1.2921
  1.2935   1.2977   1.3004   1.3019   1.3035   1.3046   1.3052   1.3069
  1.3093   1.3138   1.3170   1.3188   1.3215   1.3238   1.3252   1.3264
  1.3279   1.3300   1.3326   1.3339   1.3352   1.3363   1.3397   1.3416
  1.3437   1.3449   1.3481   1.3488   1.3499   1.3531   1.3543   1.3568
  1.3579   1.3584   1.3616   1.3624   1.3635   1.3663   1.3685   1.3688
  1.3703   1.3708   1.3735   1.3754   1.3771   1.3780   1.3791   1.3792
  1.3845   1.3860   1.3872   1.3888   1.3892   1.3907   1.3933   1.3954
  1.3957   1.3969   1.3992   1.3996   1.4021   1.4037   1.4049   1.4058
  1.4077   1.4088   1.4110   1.4117   1.4123   1.4144   1.4163   1.4185
  1.4191   1.4202   1.4208   1.4224   1.4257   1.4267   1.4283   1.4287
  1.4310   1.4313   1.4334   1.4345   1.4358   1.4380   1.4387   1.4400
  1.4411   1.4434   1.4439   1.4446   1.4477   1.4490   1.4495   1.4518
  1.4524   1.4537   1.4558   1.4566   1.4585   1.4590   1.4601   1.4629
  1.4653   1.4664   1.4685   1.4691   1.4713   1.4728   1.4736   1.4761
  1.4791   1.4804   1.4812   1.4829   1.4844   1.4853   1.4870   1.4889
  1.4899   1.4915   1.4933   1.4942   1.4978   1.4995   1.4998   1.5023
  1.5027   1.5054   1.5076   1.5081   1.5116   1.5127   1.5139   1.5163
  1.5195   1.5215   1.5233   1.5238   1.5280   1.5291   1.5302   1.5343
  1.5357   1.5369   1.5387   1.5415   1.5424   1.5440   1.5454   1.5495
  1.5520   1.5547   1.5557   1.5586   1.5621   1.5642   1.5655   1.5705
  1.5736   1.5774   1.5793   1.5833   1.5845   1.5878   1.5910   1.5962
  1.5973   1.5999   1.6027   1.6075   1.6105   1.6162   1.6179   1.6195
  1.6209   1.6230   1.6307   1.6324   1.6341   1.6368   1.6401   1.6488
  1.6521   1.6545   1.6558   1.6580   1.6589   1.6598   1.6625   1.6638
  1.6675   1.6687   1.6694   1.6705   1.6732   1.6744   1.6767   1.6774
  1.6803   1.6815   1.6836   1.6862   1.6880   1.6894   1.6906   1.6922
  1.6934   1.6950   1.6953   1.6972   1.6983   1.7004   1.7009   1.7020
  1.7029   1.7034   1.7062   1.7076   1.7083   1.7088   1.7105   1.7119
  1.7130   1.7146   1.7160   1.7166   1.7171   1.7195   1.7199   1.7205
  1.7223   1.7242   1.7256   1.7271   1.7276   1.7290   1.7299   1.7320
  1.7327   1.7349   1.7361   1.7373   1.7383   1.7391   1.7394   1.7406
  1.7416   1.7428   1.7444   1.7463   1.7480   1.7489   1.7498   1.7510
  1.7540   1.7546   1.7562   1.7574   1.7577   1.7592   1.7613   1.7622
  1.7644   1.7646   1.7661   1.7691   1.7709   1.7714   1.7738   1.7750
  1.7766   1.7783   1.7806   1.7828   1.7842   1.7853   1.7869   1.7879
  1.7914   1.7932   1.7942   1.7958   1.7967   1.7990   1.8001   1.8032
  1.8043   1.8074   1.8081   1.8116   1.8143   1.8162   1.8166   1.8185
  1.8212   1.8233   1.8239   1.8263   1.8275   1.8310   1.8337   1.8359
  1.8381   1.8400   1.8461   1.8472   1.8494   1.8533   1.8548   1.8558
  1.8588   1.8600   1.8617   1.8626   1.8652   1.8663   1.8677   1.8696
  1.8708   1.8742   1.8758   1.8765   1.8781   1.8806   1.8842   1.8852
  1.8874   1.8893   1.8923   1.8933   1.8937   1.8951   1.8975   1.8991
  1.9003   1.9013   1.9017   1.9026   1.9039   1.9060   1.9061   1.9080
  1.9094   1.9105   1.9118   1.9139   1.9149   1.9172   1.9180   1.9192
  1.9195   1.9221   1.9225   1.9244   1.9247   1.9262   1.9266   1.9280
  1.9299   1.9315   1.9341   1.9347   1.9349   1.9363   1.9383   1.9404
  1.9415   1.9423   1.9434   1.9455   1.9470   1.9496   1.9503   1.9517
  1.9525   1.9539   1.9570   1.9597   1.9619   1.9668   1.9680   1.9714
  1.9744   1.9749   1.9810   1.9842   1.9869   1.9882   1.9905   1.9972
  1.9985   2.0023   2.0079   2.0157   2.0188   2.0255   2.0282   2.0357
  2.0366   2.0381   2.0427   2.0465   2.0534   2.0554   2.0575   2.0590
  2.0601   2.0626   2.0643   2.0647   2.0670   2.0684   2.0690   2.0714
  2.0727   2.0754   2.0777   2.0807   2.0833   2.0850   2.0858   2.0878
  2.0880   2.0917   2.0921   2.0932   2.0939   2.0948   2.0960   2.0980
  2.0995   2.1004   2.1018   2.1034   2.1049   2.1060   2.1067   2.1073
  2.1080   2.1086   2.1103   2.1110   2.1114   2.1171   2.1184   2.1199
  2.1232   2.1253   2.1301   2.1309   2.1324   2.1344   2.1351   2.1372
  2.1408   2.1414   2.1459   2.1478   2.1492   2.1510   2.1532   2.1617
  2.1639   2.1659   2.1701   2.1787   2.1836   2.1869   2.1915   2.1927
  2.1941   2.1950   2.1959   2.1984   2.2001   2.2020   2.2046   2.2048
  2.2071   2.2076   2.2093   2.2111   2.2142   2.2150   2.2160   2.2179
  2.2197   2.2225   2.2235   2.2262   2.2268   2.2276   2.2280   2.2299
  2.2299   2.2308   2.2320   2.2336   2.2342   2.2352   2.2380   2.2394
  2.2402   2.2418   2.2441   2.2448   2.2452   2.2458   2.2479   2.2489
  2.2499   2.2503   2.2513   2.2524   2.2537   2.2566   2.2571   2.2586
  2.2597   2.2599   2.2610   2.2619   2.2632   2.2639   2.2662   2.2674
  2.2677   2.2688   2.2715   2.2725   2.2735   2.2745   2.2745   2.2758
  2.2765   2.2774   2.2788   2.2797   2.2804   2.2813   2.2823   2.2835
  2.2842   2.2851   2.2866   2.2873   2.2881   2.2889   2.2897   2.2901
  2.2916   2.2919   2.2932   2.2937   2.2948   2.2954   2.2959   2.2967
  2.2970   2.2989   2.2997   2.3010   2.3015   2.3029   2.3033   2.3049
  2.3052   2.3061   2.3074   2.3078   2.3088   2.3104   2.3116   2.3127
  2.3137   2.3145   2.3160   2.3179   2.3205   2.3218   2.3229   2.3241
  2.3251   2.3255   2.3275   2.3288   2.3293   2.3296   2.3314   2.3340
  2.3347   2.3348   2.3387   2.3391   2.3425   2.3426   2.3439   2.3459
  2.3468   2.3493   2.3504   2.3520   2.3550   2.3559   2.3585   2.3594
  2.3607   2.3634   2.3649   2.3665   2.3674   2.3693   2.3709   2.3721
  2.3738   2.3759   2.3771   2.3789   2.3814   2.3828   2.3853   2.3867
  2.3894   2.3905   2.3931   2.3962   2.3975   2.3981   2.4006   2.4060
  2.4134   2.4147   2.4191   2.4220   2.4314   2.4553   2.4700   2.4763
  2.4995   2.5562   2.5735   2.6055   2.6758   2.7073   2.7541   2.7939
  2.8084   2.8099   2.8154   2.8233   2.8410   2.8417   2.8423   2.8453
  2.8461   2.8481   2.8563   2.8569   2.8580   2.8602   2.8636   2.8651
  2.8659   2.8676   2.8709   2.8743   2.8762   2.8774   2.8797   2.8810
  2.8847   2.8868   2.8896   2.8907   2.8923   2.8986   2.8995   2.9244
  2.9720   3.1136   3.2452   3.9384   3.9463   3.9515   3.9685   3.9703
  3.9784   3.9801   3.9824   3.9856   3.9858   3.9883   3.9901   3.9917
  3.9919   3.9937   3.9978   4.0023   4.0045   4.0087   4.0112   4.0171
  4.0214   4.0229   4.0282   4.0283   4.0324   4.0363   4.0561   4.2003
  4.2232   4.2275   4.2330   4.2444   4.2483   4.2502   4.2531   4.2563
  4.2604   4.2619   4.2636   4.2666   4.2686   4.2710   4.2760   4.2769
  4.2813   4.2827   4.2852   4.2889   4.2908   4.2930   4.2967   4.2994
  4.3023   4.3030   4.3075   4.3093   4.3116   4.3131   4.3137   4.3148
  4.3159   4.3208   4.3242   4.3283   4.3314   4.3318   4.3332   4.3352
  4.3392   4.3409   4.3432   4.3448   4.3472   4.3514   4.3543   4.3561
  4.3609   4.3647   4.3658   4.3673   4.3733   4.3751   4.3764   4.3795
  4.3851   4.3855   4.3898   4.3922   4.3977   4.3996   4.4021   4.4102
  4.4155   4.4166   4.4222   4.4266   4.4302   4.4347   4.4432   4.4528
  4.4587   4.4623   4.4641   4.4720   4.4903   4.5064   4.5167   4.5302
  4.5380   4.5438   4.5757   4.5784   4.6039   4.6151   4.6254   4.6409
  4.7322   4.7551   4.7791   4.9474
 --------------------------------------------------------------
 
          Ground-State Mulliken Net Atomic Charges

     Atom                 Charge (a.u.)
  ----------------------------------------
      1 C                    -0.358434
      2 C                    -0.577804
      3 C                    -0.100109
      4 C                    -0.581030
      5 C                    -0.362063
      6 C                    -0.415402
      7 H                     0.226227
      8 H                     0.217224
      9 H                     0.241165
     10 H                     0.215949
     11 H                     0.184952
     12 H                     0.208396
     13 H                     0.192831
     14 H                     0.222910
     15 H                     0.193449
     16 H                     0.223969
     17 H                     0.205647
     18 N                    -0.395857
     19 H                     0.523980
     20 C                     0.269315
     21 H                     0.174462
     22 O                    -0.509774
     23 C                    -0.863513
     24 H                     0.340282
     25 H                     0.254269
     26 H                     0.227942
     27 S                     0.783386
     28 C                    -0.875061
     29 H                     0.235835
     30 H                     0.268051
     31 H                     0.239457
     32 O                    -0.565624
     33 C                    -0.935874
     34 H                     0.260564
     35 H                     0.261393
     36 H                     0.232054
     37 S                     1.040201
     38 C                    -0.993831
     39 H                     0.273977
     40 H                     0.253230
     41 H                     0.269496
     42 O                    -0.691758
     43 C                    -0.911370
     44 H                     0.300789
     45 H                     0.272860
     46 H                     0.248872
     47 S                     1.022555
     48 C                    -1.053332
     49 H                     0.220914
     50 H                     0.285006
     51 H                     0.275037
     52 O                    -0.713040
     53 C                    -0.857765
     54 H                     0.242718
     55 H                     0.248018
     56 H                     0.280473
     57 S                     0.842786
     58 C                    -0.772210
     59 H                     0.237040
     60 H                     0.282948
     61 H                     0.227751
     62 O                    -0.707839
     63 C                    -0.919979
     64 H                     0.252586
     65 H                     0.238474
     66 H                     0.250191
     67 S                     1.091925
     68 C                    -0.953419
     69 H                     0.211229
     70 H                     0.259880
     71 H                     0.294294
     72 O                    -0.701269
     73 C                    -0.979584
     74 H                     0.241788
     75 H                     0.251845
     76 H                     0.247035
     77 S                     0.970465
     78 C                    -0.810112
     79 H                     0.237581
     80 H                     0.231925
     81 H                     0.261999
     82 O                    -0.733220
     83 C                    -0.804893
     84 H                     0.198643
     85 H                     0.267723
     86 H                     0.252383
     87 S                     0.770372
     88 C                    -0.845311
     89 H                     0.274222
     90 H                     0.249216
     91 H                     0.260319
     92 O                    -0.739669
     93 C                    -0.773632
     94 H                     0.231927
     95 H                     0.229016
     96 H                     0.306200
     97 S                     0.850511
     98 C                    -0.902845
     99 H                     0.279760
    100 H                     0.241444
    101 H                     0.266187
    102 O                    -0.674301
    103 C                    -0.556255
    104 H                     0.275414
    105 H                     0.249970
    106 H                     0.273997
    107 S                     0.134847
    108 C                    -0.840582
    109 H                     0.274295
    110 H                     0.262103
    111 H                     0.291227
    112 O                    -0.522502
    113 C                    -0.939414
    114 H                     0.229740
    115 H                     0.260490
    116 H                     0.317806
    117 S                     1.154824
    118 C                    -0.987180
    119 H                     0.277240
    120 H                     0.238165
    121 H                     0.248207
    122 O                    -0.686249
    123 C                    -0.886868
    124 H                     0.256398
    125 H                     0.265394
    126 H                     0.233584
    127 S                     1.032395
    128 C                    -0.872284
    129 H                     0.258479
    130 H                     0.223288
    131 H                     0.250156
    132 O                    -0.699320
    133 C                    -0.871997
    134 H                     0.245832
    135 H                     0.253610
    136 H                     0.263215
    137 S                     0.906751
    138 C                    -0.837595
    139 H                     0.221664
    140 H                     0.253894
    141 H                     0.309565
    142 O                    -0.734405
    143 C                    -0.837943
    144 H                     0.263654
    145 H                     0.290143
    146 H                     0.233271
    147 S                     0.870350
    148 C                    -0.878779
    149 H                     0.237023
    150 H                     0.241605
    151 H                     0.271664
    152 O                    -0.707869
    153 C                    -0.925261
    154 H                     0.250379
    155 H                     0.248513
    156 H                     0.268203
    157 S                     1.301517
    158 C                    -1.026349
    159 H                     0.261722
    160 H                     0.252793
    161 H                     0.234681
    162 O                    -0.741378
    163 C                    -0.780069
    164 H                     0.308331
    165 H                     0.236333
    166 H                     0.255204
    167 S                     0.730681
    168 C                    -0.855462
    169 H                     0.236561
    170 H                     0.264072
    171 H                     0.257740
    172 O                    -0.632858
    173 C                    -0.704077
    174 H                     0.289178
    175 H                     0.224087
    176 H                     0.253049
    177 S                     0.497146
    178 C                    -0.707185
    179 H                     0.267185
    180 H                     0.264409
    181 H                     0.242841
    182 O                    -0.621342
    183 C                    -0.958691
    184 H                     0.271886
    185 H                     0.244164
    186 H                     0.280339
    187 S                     0.906279
    188 C                    -0.963840
    189 H                     0.258528
    190 H                     0.287783
    191 H                     0.282048
    192 O                    -0.715601
    193 C                    -0.843279
    194 H                     0.247056
    195 H                     0.277745
    196 H                     0.233261
    197 S                     0.876838
    198 C                    -0.751253
    199 H                     0.234368
    200 H                     0.211499
    201 H                     0.295555
    202 O                    -0.706500
    203 C                    -0.818830
    204 H                     0.258018
    205 H                     0.269718
    206 H                     0.220922
    207 S                     0.714365
    208 C                    -0.661569
    209 H                     0.269700
    210 H                     0.248629
    211 H                     0.235993
    212 O                    -0.708159
    213 C                    -0.979729
    214 H                     0.249178
    215 H                     0.296066
    216 H                     0.247746
    217 S                     0.864734
    218 C                    -0.861131
    219 H                     0.272775
    220 H                     0.252434
    221 H                     0.291316
    222 O                    -0.693715
    223 C                    -1.133034
    224 H                     0.247046
    225 H                     0.321176
    226 H                     0.240000
    227 S                     0.814873
    228 C                    -0.794087
    229 H                     0.250880
    230 H                     0.240234
    231 H                     0.266880
    232 O                    -0.614490
    233 C                    -0.843857
    234 H                     0.244317
    235 H                     0.246236
    236 H                     0.250274
    237 S                     1.115256
    238 C                    -0.978246
    239 H                     0.268015
    240 H                     0.242132
    241 H                     0.241985
    242 O                    -0.707100
    243 C                    -0.835365
    244 H                     0.266283
    245 H                     0.218638
    246 H                     0.260444
    247 S                     0.754567
    248 C                    -0.668734
    249 H                     0.291796
    250 H                     0.231741
    251 H                     0.248136
    252 O                    -0.638210
    253 C                    -0.835113
    254 H                     0.249644
    255 H                     0.230048
    256 H                     0.298133
    257 S                     0.892055
    258 C                    -0.855522
    259 H                     0.260021
    260 H                     0.241997
    261 H                     0.231828
    262 O                    -0.716638
    263 C                    -0.872999
    264 H                     0.244428
    265 H                     0.259510
    266 H                     0.264708
    267 S                     0.969019
    268 C                    -1.090387
    269 H                     0.262538
    270 H                     0.291300
    271 H                     0.289149
    272 O                    -0.625331
    273 C                    -0.803652
    274 H                     0.273065
    275 H                     0.238830
    276 H                     0.266029
    277 S                     0.754167
    278 C                    -0.770117
    279 H                     0.237883
    280 H                     0.259027
    281 H                     0.257747
    282 O                    -0.713560
    283 C                    -0.625463
    284 H                     0.231320
    285 H                     0.248930
    286 H                     0.293018
    287 S                     0.761866
    288 C                    -0.987002
    289 H                     0.283494
    290 H                     0.233363
    291 H                     0.293637
    292 O                    -0.727061
    293 C                    -0.791680
    294 H                     0.279715
    295 H                     0.276902
    296 H                     0.230739
    297 S                     0.619249
    298 C                    -0.755784
    299 H                     0.234090
    300 H                     0.276335
    301 H                     0.254199
    302 O                    -0.631360
  ----------------------------------------
  Sum of atomic charges =     0.000000

 -----------------------------------------------------------------
                    Cartesian Multipole Moments
 -----------------------------------------------------------------
    Charge (ESU x 10^10)
                -0.0000
    Dipole Moment (Debye)
         X       1.8135      Y      37.8140      Z      -6.2044
       Tot      38.3626
    Quadrupole Moments (Debye-Ang)
        XX    -803.6832     XY    1015.4472     YY     577.0011
        XZ     -30.0124     YZ    1012.0666     ZZ   -1577.2478
    Octopole Moments (Debye-Ang^2)
       XXX  -60681.6091    XXY   10834.2725    XYY   17137.8554
       YYY   -5187.7743    XXZ  -24363.9601    XYZ   28225.6878
       YYZ   14001.6280    XZZ  -32993.3608    YZZ    4455.1554
       ZZZ -125054.2977
    Hexadecapole Moments (Debye-Ang^3)
      XXXX ************   XXXY -448216.2909   XXYY  162781.5368
      XYYY  -40818.6400   YYYY -737292.0485   XXXZ ************
      XXYZ  291453.2891   XYYZ  442624.0310   YYYZ -252346.1284
      XXZZ ************   XYZZ  230466.9935   YYZZ -129101.6014
      XZZZ ************   YZZZ ************   ZZZZ ************
 -----------------------------------------------------------------
Archival summary:
[...]
    2  -0.0096553  -0.0068387   0.0042048  -0.0163194   0.0282490   0.0051012
    3   0.0358719  -0.1041082   0.0002883  -0.0228741   0.0157114  -0.0078291
          157         158         159         160         161         162
    1  -0.0454462   0.0015963  -0.0190841   0.0108134   0.0221094   0.0790623
    2  -0.0282847   0.0052728   0.0311221  -0.0254020   0.0127403  -0.0511340
    3   0.0218078   0.0061655   0.0117689   0.0223764  -0.0118337  -0.0570188
          163         164         165         166         167         168
    1   0.0001116  -0.0054028   0.0292793   0.0159333  -0.0158912   0.0040393
    2   0.0057084   0.0212807   0.0132023  -0.0152996   0.0392379  -0.0066632
    3  -0.0069515  -0.0331323   0.0153634  -0.0216462   0.0384928   0.0041995
          169         170         171         172         173         174
    1   0.0242366  -0.0146587   0.0182646  -0.0638919  -0.0003941   0.0198943
    2   0.0106247  -0.0204523  -0.0127436  -0.0697350   0.0037193  -0.0081707
    3   0.0219088   0.0205862  -0.0231192  -0.0516226   0.0082663   0.0229859
          175         176         177         178         179         180
    1  -0.0006276  -0.0189134   0.0416849  -0.0098888  -0.0006418  -0.0036936
    2   0.0367486  -0.0150914   0.0164191   0.0017196   0.0285434  -0.0148627
    3  -0.0009803   0.0211052  -0.0345609  -0.0007495  -0.0143430  -0.0260947
          181         182         183         184         185         186
    1  -0.0217390  -0.0039204   0.0081195   0.0268404  -0.0308893   0.0251173
    2  -0.0066340  -0.1037873  -0.0017971  -0.0247171   0.0076900   0.0224476
    3   0.0235457   0.0420588  -0.0090886   0.0008003  -0.0143725  -0.0133757
          187         188         189         190         191         192
    1  -0.0074079   0.0110774   0.0376838   0.0190131  -0.0002829  -0.0522016
    2   0.0406403  -0.0034424   0.0157468   0.0053081  -0.0257714  -0.0960205
    3   0.0170911   0.0044064  -0.0028209   0.0287098  -0.0263083   0.0151392
          193         194         195         196         197         198
    1  -0.0031434  -0.0177323  -0.0050093   0.0265543   0.0449903  -0.0015566
    2   0.0066030   0.0181867   0.0008754   0.0216157  -0.0268931   0.0000684
    3   0.0024512  -0.0223815   0.0328321  -0.0005678   0.0252945  -0.0074855
          199         200         201         202         203         204
    1  -0.0180090   0.0295962  -0.0165214  -0.1031174  -0.0014201   0.0232291
    2   0.0225270   0.0069267  -0.0249460  -0.0359075  -0.0017518   0.0132612
    3  -0.0160031  -0.0054939  -0.0107926   0.0197169  -0.0099068  -0.0224517
          205         206         207         208         209         210
    1   0.0038119  -0.0279244  -0.0533487   0.0013146   0.0107082   0.0227916
    2  -0.0291074   0.0102372   0.0019159   0.0066012   0.0162468   0.0131764
    3  -0.0005311  -0.0160771   0.0233485  -0.0048528   0.0227693  -0.0223173
          211         212         213         214         215         216
    1  -0.0202507   0.0798141  -0.0066491   0.0098895  -0.0359850  -0.0185690
    2   0.0226942  -0.0599451  -0.0019050  -0.0031960  -0.0215574   0.0244090
    3  -0.0150403   0.0425912  -0.0036368  -0.0290171  -0.0063610  -0.0033186
          217         218         219         220         221         222
    1   0.0276964  -0.0041704  -0.0181337   0.0036748  -0.0272891   0.0446015
    2  -0.0512238  -0.0008977  -0.0328243   0.0124836   0.0138558   0.0976116
    3  -0.0017594   0.0076939   0.0077856   0.0304158  -0.0057191  -0.0016324
          223         224         225         226         227         228
    1   0.0107268   0.0147785   0.0225067   0.0021344  -0.0288327   0.0018045
    2  -0.0026130  -0.0153765  -0.0158628   0.0290047   0.0109669  -0.0035931
    3  -0.0012842   0.0262730  -0.0170021   0.0064465   0.0523370  -0.0035205
          229         230         231         232         233         234
    1   0.0216999  -0.0304038   0.0202186  -0.0142086  -0.0049933   0.0135502
    2  -0.0201647  -0.0075547  -0.0144967   0.0627154   0.0034124   0.0296876
    3   0.0148396  -0.0097516  -0.0244122  -0.0888216  -0.0040217  -0.0082812
          235         236         237         238         239         240
    1  -0.0271354  -0.0270667   0.0501639  -0.0007003  -0.0272496   0.0216929
    2  -0.0169492   0.0133875   0.0265742  -0.0023452  -0.0126997  -0.0074947
    3  -0.0088956   0.0133567   0.0020494  -0.0003375   0.0069857  -0.0250889
          241         242         243         244         245         246
    1   0.0155494  -0.0544455   0.0098225  -0.0038985   0.0031170   0.0301121
    2  -0.0306052  -0.0384420  -0.0024781  -0.0176536   0.0295353   0.0012378
    3   0.0095042   0.0881705  -0.0035047  -0.0277772  -0.0112479   0.0056722
          247         248         249         250         251         252
    1  -0.0583847   0.0022956   0.0268849  -0.0037642  -0.0232461   0.0132376
    2   0.0150000   0.0047072  -0.0007722   0.0278247   0.0034715  -0.0998363
    3  -0.0298881   0.0070469   0.0181396  -0.0115025   0.0242445   0.0411188
          253         254         255         256         257         258
    1   0.0051241  -0.0095306   0.0186767   0.0174250  -0.0282699   0.0054773
    2  -0.0015578  -0.0098380   0.0289033  -0.0282395   0.0395251   0.0007901
    3  -0.0053982  -0.0315755  -0.0154877  -0.0013052  -0.0008087   0.0042268
          259         260         261         262         263         264
    1   0.0041518   0.0143979  -0.0054326  -0.0294867   0.0064513   0.0137713
    2  -0.0344854   0.0326187  -0.0011610  -0.1055956   0.0010892  -0.0230485
    3  -0.0065657  -0.0037100   0.0319375   0.0122568  -0.0007667   0.0103656
          265         266         267         268         269         270
    1   0.0101780   0.0223132  -0.0241696   0.0031578   0.0098268  -0.0290184
    2  -0.0063160   0.0268657   0.0442820  -0.0008859   0.0292892   0.0041012
    3  -0.0297325   0.0105182  -0.0204012   0.0080375   0.0172498   0.0094428
          271         272         273         274         275         276
    1   0.0177680  -0.0249475   0.0005066  -0.0115423   0.0166325   0.0135725
    2  -0.0236189  -0.1024573  -0.0102497  -0.0332790  -0.0008709  -0.0053523
    3   0.0116132  -0.0300396   0.0038063  -0.0110518  -0.0261350   0.0317702
          277         278         279         280         281         282
    1   0.0304345  -0.0081300  -0.0272912  -0.0253119   0.0096954  -0.0265879
    2   0.0416608  -0.0033975   0.0142047  -0.0184017  -0.0089623   0.0100147
    3   0.0287542   0.0000566   0.0052279  -0.0167412   0.0271299  -0.1068422
          283         284         285         286         287         288
    1  -0.0024134  -0.0326523   0.0001336  -0.0174744  -0.0046480   0.0068751
    2   0.0037728  -0.0149602  -0.0179226   0.0231848   0.0247131  -0.0051450
    3   0.0061929  -0.0096481   0.0243953   0.0162421  -0.0481525   0.0027099
          289         290         291         292         293         294
    1   0.0072240  -0.0138475   0.0269916   0.0997525   0.0075367  -0.0140681
    2  -0.0054821  -0.0199395  -0.0084726   0.0258324   0.0027110  -0.0086057
    3   0.0293732  -0.0213110  -0.0119587   0.0779414  -0.0054129  -0.0243820
          295         296         297         298         299         300
    1   0.0147782   0.0290294  -0.0321278   0.0014284   0.0276562  -0.0142239
    2   0.0305048  -0.0154874   0.0463855  -0.0022357   0.0221068  -0.0054717
    3  -0.0128656   0.0029856  -0.0025727   0.0028738   0.0137936   0.0291758
          301         302
    1   0.0273268  -0.0347621
    2  -0.0206744  -0.1019712
    3   0.0063553  -0.0050085
  --- DONE ESP SUMMARY ---
Archival summary:
1\1\n0093.mhg0\SP\ProcedureUnspecified\6-31+G*\282856h22\ymao\FriMar1215:04:012021FriMar1215:04:012021\0\\#,ProcedureUnspecified,6-31+G*,\\0,1\S\O,1,1.49713\C,1,1.80605,2,106.864\H,3,1.09287,1,115.745,2,168.816,0\H,3,1.09326,1,105.087,2,56.6503,0\H,3,1.09384,1,112.334,2,-58.781,0\C,1,1.80771,2,100.482,3,-100.802,0\H,7,1.09225,1,107.301,2,54.3164,0\H,7,1.0925,1,117.381,2,-74.1007,0\H,7,1.09333,1,104.322,2,162.711,0\H,8,2.10236,7,123.743,1,-57.057,0\C,11,1.09296,8,136.674,7,-79.474,0\H,12,1.09229,11,117.094,8,-166.139,0\H,12,1.09385,11,104.075,8,-39.9528,0\S,12,1.80755,11,112.455,8,75.287,0\O,15,1.49673,12,103.047,11,163.22,0\C,15,1.80727,12,95.2046,11,-99.237,0\H,17,1.09267,15,106.532,12,-48.3612,0\H,17,1.09284,15,110.434,12,70.9611,0\H,17,1.09293,15,97.2949,12,-164.861,0\H,10,2.26572,7,123.262,1,122.743,0\C,21,1.09297,10,140.901,7,12.473,0\H,22,1.09233,21,110.166,10,56.7665,0\H,22,1.09233,21,113.928,10,-60.5978,0\S,22,1.80724,21,107.114,10,171.127,0\O,25,1.49688,22,100.772,21,175.306,0\C,25,1.80763,22,95.9162,21,67.4847,0\H,27,1.09296,25,103.633,22,68.6098,0\H,27,1.09298,25,110.041,22,-175.833,0\H,27,1.09305,25,103.805,22,-56.8956,0\H,23,2.03668,22,114.422,21,-154.26,0\C,31,1.09319,23,106.52,22,-153.016,0\H,32,1.0931,31,107.968,23,86.1026,0\H,32,1.09325,31,104.676,23,-39.2632,0\S,32,1.80581,31,109.318,23,-155.365,0\O,35,1.49764,32,108.206,31,-69.6131,0\C,35,1.80745,32,95.8059,31,35.234,0\H,37,1.09217,35,115.101,32,-55.076,0\H,37,1.093,35,112.878,32,78.3978,0\H,37,1.09345,35,107.732,32,-163.399,0\H,39,2.08262,37,132.832,35,23.0013,0\C,41,1.09289,39,141.184,37,108.88,0\H,42,1.09284,41,110.912,39,-144.12,0\H,42,1.09317,41,120.261,39,96.2092,0\S,42,1.80698,41,107.468,39,-28.7866,0\O,45,1.49704,42,97.1602,41,-30.9227,0\C,45,1.80793,42,99.0412,41,76.388,0\H,47,1.09241,45,104.163,42,63.2905,0\H,47,1.09245,45,112.746,42,-61.141,0\H,47,1.09264,45,114.087,42,173.626,0\H,33,2.14283,32,110.266,31,59.3865,0\C,51,1.09311,33,121.451,32,172.324,0\H,52,1.09262,51,116.204,33,-143.298,0\H,52,1.09335,51,114.459,33,91.4324,0\S,52,1.8082,51,106.607,33,-21.908,0\O,55,1.49647,52,106.023,51,153.746,0\C,55,1.80706,52,94.4462,51,-96.0388,0\H,57,1.09257,55,116.363,52,-43.868,0\H,57,1.09327,55,100.257,52,76.4726,0\H,57,1.09373,55,107.066,52,-167.664,0\H,30,2.30785,27,133.968,25,-88.788,0\C,61,1.09336,30,177.081,27,41.4972,0\H,62,1.0928,61,112.658,30,-52.642,0\H,62,1.09305,61,114.547,30,-179.54,0\S,62,1.80691,61,105.941,30,62.4942,0\O,65,1.49777,62,100.955,61,-50.752,0\C,65,1.80646,62,92.0362,61,55.8537,0\H,67,1.09277,65,103.7,62,61.7219,0\H,67,1.09321,65,116.943,62,-177.521,0\H,67,1.0933,65,107.625,62,-52.1724,0\H,5,2.32003,3,124.539,1,177.591,0\C,71,1.09275,5,128.776,3,-160.542,0\H,72,1.09265,71,110.115,5,-170.607,0\H,72,1.093,71,106.366,5,67.8475,0\S,72,1.80705,71,110.708,5,-53.1609,0\O,75,1.49666,72,103.722,71,-48.139,0\C,75,1.80723,72,98.9393,71,-155.972,0\H,77,1.09298,75,109.575,72,51.1919,0\H,77,1.09311,75,107.368,72,-77.4972,0\H,77,1.09334,75,106.486,72,161.979,0\H,74,2.0634,72,130.687,71,75.4597,0\C,81,1.09281,74,114.824,72,-132.692,0\H,82,1.09293,81,118.066,74,-125.623,0\H,82,1.09312,81,109.039,74,-2.40681,0\S,82,1.80689,81,106.644,74,113.053,0\O,85,1.49686,82,103.322,81,176.222,0\C,85,1.80729,82,89.2407,81,70.7526,0\H,87,1.0926,85,102.487,82,-62.6461,0\H,87,1.09274,85,110.128,82,51.2014,0\H,87,1.09319,85,111.47,82,-174.439,0\H,13,2.33234,12,114.95,11,9.53849,0\C,91,1.09312,13,138.525,12,145.359,0\H,92,1.09243,91,112.996,13,-69.8785,0\H,92,1.09361,91,109.637,13,59.7479,0\S,92,1.80665,91,109.84,13,178.078,0\O,95,1.49635,92,100.051,91,143.631,0\C,95,1.80651,92,96.4721,91,38.9483,0\H,97,1.09268,95,113.729,92,63.8776,0\H,97,1.09299,95,112.433,92,-178.244,0\H,97,1.0931,95,103.674,92,-65.8762,0\H,13,2.35444,12,119.072,11,-92.5558,0\C,101,1.09287,13,161.333,12,87.7205,0\H,102,1.09308,101,106.685,13,-166.412,0\H,102,1.09323,101,115.409,13,63.935,0\S,102,1.8071,101,110.689,13,-53.2719,0\O,105,1.49753,102,97.5649,101,172.474,0\C,105,1.80662,102,89.8324,101,67.1982,0\H,107,1.09275,105,104.066,102,-70.3186,0\H,107,1.09295,105,110.271,102,54.7293,0\H,107,1.09359,105,106.142,102,166.806,0\O,24,2.35983,22,134.024,21,74.5308,0\S,111,1.49657,24,108.488,22,-115.629,0\C,112,1.80657,111,102.732,24,-116.249,0\H,113,1.09288,112,107.006,111,-55.2118,0\H,113,1.0932,112,107.665,111,-173.529,0\H,113,1.09331,112,112.275,111,59.5613,0\C,112,1.80737,111,110.371,24,-18.3968,0\H,117,1.0931,112,102.834,111,77.8895,0\H,117,1.09312,112,105.122,111,-173.572,0\H,117,1.09338,112,109.696,111,-47.3517,0\O,118,2.34354,117,153.868,112,176.227,0\S,121,1.49675,118,131.41,117,-67.5723,0\C,122,1.80652,121,103.297,118,106.853,0\H,123,1.09258,122,102.95,121,170.942,0\H,123,1.09292,122,113.43,121,52.1227,0\H,123,1.09315,122,105.475,121,-68.1635,0\C,122,1.80726,121,99.7689,118,6.2262,0\H,127,1.09214,122,102.878,121,-64.7522,0\H,127,1.09282,122,105.318,121,176.315,0\H,127,1.09344,122,100.123,121,48.7887,0\H,33,2.3643,32,119.944,31,-140.61,0\C,131,1.09335,33,167.965,32,17.9202,0\H,132,1.09208,131,116.889,33,65.2072,0\H,132,1.09274,131,114.15,33,-177.62,0\S,132,1.80744,131,107.322,33,-53.8923,0\O,135,1.49658,132,104.34,131,-178.661,0\C,135,1.80799,132,99.1037,131,-66.5442,0\H,137,1.0925,135,111.596,132,-177.145,0\H,137,1.09272,135,105.484,132,63.8568,0\H,137,1.09273,135,101.653,132,-55.7612,0\H,138,2.18239,137,109.889,135,97.7531,0\C,141,1.09329,138,107.747,137,171.387,0\H,142,1.09313,141,102.033,138,-170.657,0\H,142,1.09338,141,107.835,138,-57.3614,0\S,142,1.80653,141,117.677,138,66.4665,0\O,145,1.49755,142,105.4,141,-40.5988,0\C,145,1.80724,142,93.5543,141,57.1584,0\H,147,1.09277,145,107.882,142,74.7792,0\H,147,1.09293,145,116.515,142,-164.227,0\H,147,1.09331,145,104.664,142,-39.3319,0\H,144,2.07814,142,143.466,141,88.0368,0\C,151,1.09251,144,129.743,142,88.8278,0\H,152,1.09274,151,106.646,144,54.1824,0\H,152,1.09326,151,109.208,144,173.715,0\S,152,1.80759,151,115.095,144,-64.9834,0\O,155,1.49746,152,97.3235,151,-173.412,0\C,155,1.80718,152,97.469,151,-71.2171,0\H,157,1.09225,155,113.689,152,-171.165,0\H,157,1.09316,155,110.761,152,64.0548,0\H,157,1.09338,155,103.912,152,-64.2486,0\O,133,2.37166,132,155.304,131,147.364,0\S,161,1.49713,133,155.996,132,-175.95,0\C,162,1.80633,161,109.27,133,-15.9641,0\H,163,1.09288,162,113.275,161,52.2861,0\H,163,1.09308,162,102.676,161,-72.6298,0\H,163,1.09309,162,107.65,161,173.482,0\C,162,1.80751,161,107.804,133,94.987,0\H,167,1.09225,162,105.128,161,67.2555,0\H,167,1.09258,162,112.218,161,-171.853,0\H,167,1.09298,162,109.307,161,-42.8731,0\H,170,1.94802,167,139.702,162,12.1071,0\C,171,1.09309,170,129.659,167,117.742,0\H,172,1.09273,171,110.911,170,-174.944,0\H,172,1.09355,171,113.696,170,-50.0868,0\S,172,1.80792,171,102.743,170,59.396,0\O,175,1.49694,172,105.891,171,-72.5381,0\C,175,1.80709,172,97.5582,171,-179.921,0\H,177,1.09308,175,106.066,172,33.9875,0\H,177,1.09322,175,115.51,172,164.294,0\H,177,1.09356,175,106.67,172,-75.6251,0\H,165,2.11794,163,134.435,162,10.6099,0\C,181,1.09348,165,153.226,163,46.766,0\H,182,1.09238,181,115.248,165,68.016,0\H,182,1.0927,181,104.61,165,-51.4445,0\S,182,1.80706,181,109.747,165,-164.989,0\O,185,1.49658,182,104.656,181,49.1096,0\C,185,1.80696,182,96.9904,181,159.112,0\H,187,1.09259,185,105.003,182,-179.735,0\H,187,1.09334,185,101.089,182,-67.1258,0\H,187,1.09409,185,111.038,182,61.9256,0\H,183,2.1775,182,125.093,181,123.603,0\C,191,1.09287,183,143.618,182,-39.0219,0\H,192,1.09224,191,107.136,183,-147.017,0\H,192,1.09346,191,116.49,183,91.9319,0\S,192,1.80705,191,107.789,183,-27.5559,0\O,195,1.49698,192,98.2855,191,-68.5428,0\Gh,196,1.72202,195,140.323,192,61.8274,0\Gh,197,1.01326,196,174.622,195,-139.483,0\Gh,198,1.37916,197,116.905,196,86.1781,0\Gh,199,1.10513,198,112.281,197,5.0201,0\Gh,199,1.21835,198,120.328,197,-178.32,0\Gh,198,1.46146,197,118.06,196,-111.159,0\Gh,202,1.09728,198,120.636,197,160.406,0\Gh,202,1.5376,198,108.921,197,-83.3357,0\Gh,204,1.09639,202,108.261,198,-54.296,0\Gh,204,1.09649,202,113.381,198,55.928,0\Gh,202,1.53768,198,108.547,197,31.6827,0\Gh,207,1.09639,202,111.088,198,-59.3792,0\Gh,207,1.09671,202,113.428,198,62.968,0\Gh,207,1.53721,202,108.988,198,-179.249,0\Gh,210,1.09685,207,109.67,202,172.622,0\Gh,210,1.09706,207,113.067,202,-72.7563,0\Gh,210,1.53791,207,114.684,202,57.9768,0\Gh,213,1.0969,210,108.205,207,-173.672,0\Gh,213,1.09745,210,102.963,207,67.0689,0\Gh,213,1.5374,210,111.452,207,-48.0574,0\Gh,216,1.09644,213,104.62,210,166.19,0\Gh,216,1.09688,213,109.266,210,-71.2948,0\C,195,1.80713,192,93.7815,191,-175.218,0\H,219,1.09223,195,108.489,192,55.7981,0\H,219,1.09305,195,101.406,192,-70.4702,0\H,219,1.09332,195,105.315,192,172.637,0\H,215,2.37411,213,150.51,210,-100.685,0\C,223,1.0938,215,134.254,213,102.305,0\H,224,1.09278,223,110.002,215,48.22,0\H,224,1.09311,223,115.2,215,-63.8669,0\S,224,1.80722,223,111.036,215,178.225,0\O,227,1.49743,224,99.6582,223,19.3305,0\C,227,1.80712,224,98.9718,223,-89.3937,0\H,229,1.09276,227,111.599,224,-73.5031,0\H,229,1.09308,227,110.537,224,154.717,0\H,229,1.09319,227,102.921,224,39.1768,0\H,223,2.15836,215,71.2163,213,-80.8457,0\C,233,1.09278,223,117.308,215,-90.9501,0\H,234,1.09236,233,118.984,223,-27.8325,0\H,234,1.09372,233,104.877,223,97.4458,0\S,234,1.80722,233,101.5,223,-157.872,0\O,237,1.49677,234,108.524,233,-156.576,0\C,237,1.80743,234,94.2244,233,98.3207,0\H,239,1.0928,237,101.462,234,-47.3579,0\H,239,1.09299,237,108.863,234,-165.877,0\H,239,1.09315,237,103.262,234,73.8105,0\O,225,2.29499,224,123.814,223,-15.4933,0\S,243,1.49645,225,108.993,224,91.4814,0\C,244,1.80672,243,99.761,225,156.332,0\H,245,1.09261,244,105.742,243,-169.494,0\H,245,1.09315,244,112.77,243,71.6219,0\H,245,1.09359,244,110.029,243,-56.0691,0\C,244,1.80693,243,106.753,225,60.9408,0\H,249,1.09226,244,109.794,243,168.578,0\H,249,1.09331,244,115.488,243,-66.2062,0\H,249,1.0938,244,106.198,243,51.7317,0\H,238,2.30823,237,124.967,234,69.8937,0\C,253,1.09292,238,129.122,237,-100.494,0\H,254,1.09333,253,97.7878,238,-40.928,0\H,254,1.09363,253,112.406,238,-156.438,0\S,254,1.80647,253,109.432,238,76.6843,0\O,257,1.49727,254,106.384,253,86.0081,0\C,257,1.80675,254,89.0063,253,-172.148,0\H,259,1.09285,257,109.064,254,-27.5534,0\H,259,1.09332,257,110.762,254,92.788,0\H,259,1.09348,257,111.911,254,-146.81,0\H,255,2.03114,254,126.731,253,101.49,0\C,263,1.09235,255,133.218,254,136.307,0\H,264,1.09291,263,103.764,255,15.5938,0\H,264,1.09342,263,114.492,255,-100.908,0\S,264,1.80696,263,117.115,255,136.741,0\O,267,1.49776,264,101.524,263,46.6049,0\C,267,1.80709,264,92.4452,263,-54.6797,0\H,269,1.09182,267,105.216,264,-65.3295,0\H,269,1.09271,267,103.858,264,178.264,0\H,269,1.09293,267,109.646,264,51.4007,0\H,222,2.38689,219,125.031,195,-18.6516,0\C,273,1.09301,222,111.845,219,172.003,0\H,274,1.09274,273,109.196,222,-169.726,0\H,274,1.09318,273,101.937,222,-51.1392,0\S,274,1.80657,273,108.407,222,74.3003,0\O,277,1.49676,274,104.498,273,-54.4712,0\C,277,1.80675,274,87.6744,273,44.4294,0\H,279,1.0928,277,105.125,274,177.808,0\H,279,1.0929,277,103.603,274,56.3149,0\H,279,1.09369,277,114.96,274,-65.7606,0\H,282,2.0539,279,120.545,277,-121.675,0\C,283,1.09241,282,145.287,279,-102.571,0\H,284,1.09275,283,112.172,282,-38.0936,0\H,284,1.09295,283,112.181,282,92.619,0\S,284,1.80777,283,105.881,282,-148.067,0\O,287,1.49682,284,107.302,283,179.249,0\C,287,1.80613,284,97.1765,283,75.1615,0\H,289,1.0929,287,115.247,284,34.1358,0\H,289,1.093,287,109.235,284,-87.6509,0\H,289,1.09346,287,105.669,284,157.388,0\O,280,2.22831,279,132.571,277,-107.792,0\S,293,1.49702,280,99.1826,279,99.1433,0\C,294,1.8069,293,105.23,280,-173.06,0\H,295,1.09304,294,116.603,293,-160.549,0\H,295,1.09308,294,108.332,293,-46.2487,0\H,295,1.09364,294,108.06,293,63.9781,0\C,294,1.80734,293,105.411,280,-74.431,0\H,299,1.09265,294,110.873,293,74.1027,0\H,299,1.09314,294,105.991,293,-52.4627,0\H,299,1.09314,294,100.508,293,-162.494,0\\\@

 Total job time:  64.18s(wall), 206.42s(cpu) 
 Fri Mar 12 15:04:01 2021

        *************************************************************
        *                                                           *
        *  Thank you very much for using Q-Chem.  Have a nice day.  *
        *                                                           *
        *************************************************************


