                  Welcome to Q-Chem
     A Quantum Leap Into The Future Of Chemistry


 Q-Chem 5.2 (devel), Q-Chem, Inc., Pleasanton, CA (2019)

 Yihan Shao,  Zhengting Gan,  E. Epifanovsky,  A. T. B. Gilbert,  M. Wormit,  
 J. Kussmann,  A. W. Lange,  A. Behn,  Jia Deng,  Xintian Feng,  D. Ghosh,  
 M. Goldey,  P. R. Horn,  L. D. Jacobson,  I. Kaliman,  T. Kus,  A. Landau,  
 Jie Liu,  E. I. Proynov,  R. M. Richard,  R. P. Steele,  E. J. Sundstrom,  
 H. L. Woodcock III,  P. M. Zimmerman,  D. Zuev,  B. Alam,  B. Albrecht,  
 E. Alguire,  S. A. Baeppler,  D. Barton,  Z. Benda,  Y. A. Bernard,  
 E. J. Berquist,  K. B. Bravaya,  H. Burton,  K. Carter-Fenk,  D. Casanova,  
 Chun-Min Chang,  Yunqing Chen,  A. Chien,  K. D. Closser,  M. P. Coons,  
 S. Coriani,  S. Dasgupta,  A. L. Dempwolff,  M. Diedenhofen,  Hainam Do,  
 R. G. Edgar,  Po-Tung Fang,  S. Faraji,  S. Fatehi,  Qingguo Feng,  
 J. Fosso-Tande,  J. Gayvert,  Qinghui Ge,  A. Ghysels,  G. Gidofalvi,  
 J. Gomes,  J. Gonthier,  A. Gunina,  D. Hait,  M. W. D. Hanson-Heine,  
 P. H. P. Harbach,  A. W. Hauser,  M. F. Herbst,  J. E. Herr,  
 E. G. Hohenstein,  Z. C. Holden,  Kerwin Hui,  B. C. Huynh,  T.-C. Jagau,  
 Hyunjun Ji,  B. Kaduk,  K. Khistyaev,  Jaehoon Kim,  P. Klunzinger,  K. Koh,  
 D. Kosenkov,  L. Koulias,  T. Kowalczyk,  C. M. Krauter,  A. Kunitsa,  
 Ka Un Lao,  A. Laurent,  K. V. Lawler,  Joonho Lee,  D. Lefrancois,  
 S. Lehtola,  D. S. Levine,  Yi-Pei Li,  You-Sheng Lin,  Fenglai Liu,  
 Kuan-Yu Liu,  E. Livshits,  M. Loipersberger,  A. Luenser,  P. Manohar,  
 E. Mansoor,  S. F. Manzer,  Shan-Ping Mao,  Yuezhi Mao,  N. Mardirossian,  
 A. V. Marenich,  T. Markovich,  L. A. Martinez-Martinez,  S. A. Maurer,  
 N. J. Mayhall,  S. C. McKenzie,  J.-M. Mewes,  P. Morgante,  A. F. Morrison,  
 J. W. Mullinax,  K. Nanda,  T. S. Nguyen-Beck,  R. Olivares-Amaya,  
 J. A. Parkhill,  S. K. Paul,  F. Pavosevic,  Zheng Pei,  T. M. Perrine,  
 F. Plasser,  P. Pokhilko,  S. Prager,  A. Prociuk,  E. Ramos,  B. Rana,  
 D. R. Rehn,  F. Rob,  M. Scheurer,  M. Schneider,  N. Sergueev,  
 S. M. Sharada,  S. Sharma,  D. W. Small,  T. Stauch,  C. J. Stein,  
 T. Stein,  Yu-Chuan Su,  S. P. Veccham,  Zhen Tao,  A. J. W. Thom,  
 A. Tkatchenko,  T. Tsuchimochi,  N. M. Tubman,  L. Vogt,  M. L. Vidal,  
 O. Vydrov,  M. A. Watson,  J. Wenzel,  M. de Wergifosse,  T. A. Wesolowski,  
 A. White,  J. Witte,  A. Yamada,  Jun Yang,  K. Yao,  S. Yeganeh,  
 S. R. Yost,  Zhi-Qiang You,  A. Zech,  Igor Ying Zhang,  Xing Zhang,  
 Yan Zhao,  Ying Zhu,  B. R. Brooks,  G. K. L. Chan,  C. J. Cramer,  
 M. S. Gordon,  W. J. Hehre,  A. Klamt,  M. W. Schmidt,  C. D. Sherrill,  
 D. G. Truhlar,  A. Aspuru-Guzik,  R. Baer,  A. T. Bell,  N. A. Besley,  
 Jeng-Da Chai,  A. E. DePrince, III,  R. A. DiStasio Jr.,  A. Dreuw,  
 B. D. Dunietz,  T. R. Furlani,  Chao-Ping Hsu,  Yousung Jung,  Jing Kong,  
 D. S. Lambrecht,  WanZhen Liang,  C. Ochsenfeld,  V. A. Rassolov,  
 L. V. Slipchenko,  J. E. Subotnik,  T. Van Voorhis,  J. M. Herbert,  
 A. I. Krylov,  P. M. W. Gill,  M. Head-Gordon

 Contributors to earlier versions of Q-Chem not listed above: 
 R. D. Adamson,  B. Austin,  J. Baker,  G. J. O. Beran,  K. Brandhorst,  
 S. T. Brown,  E. F. C. Byrd,  A. K. Chakraborty,  C.-L. Cheng,  
 Siu Hung Chien,  D. M. Chipman,  D. L. Crittenden,  H. Dachsel,  
 R. J. Doerksen,  A. D. Dutoi,  L. Fusti-Molnar,  W. A. Goddard III,  
 A. Golubeva-Zadorozhnaya,  S. R. Gwaltney,  G. Hawkins,  A. Heyden,  
 S. Hirata,  G. Kedziora,  F. J. Keil,  C. Kelley,  Jihan Kim,  R. A. King,  
 R. Z. Khaliullin,  P. P. Korambath,  W. Kurlancheek,  A. M. Lee,  M. S. Lee,  
 S. V. Levchenko,  Ching Yeh Lin,  D. Liotard,  R. C. Lochan,  I. Lotan,  
 P. E. Maslen,  N. Nair,  D. P. O'Neill,  D. Neuhauser,  E. Neuscamman,  
 C. M. Oana,  R. Olson,  B. Peters,  R. Peverati,  P. A. Pieniazek,  
 Y. M. Rhee,  J. Ritchie,  M. A. Rohrdanz,  E. Rosta,  N. J. Russ,  
 H. F. Schaefer III,  N. E. Schultz,  N. Shenvi,  A. C. Simmonett,  A. Sodt,  
 D. Stuck,  K. S. Thanthiriwatte,  V. Vanovschi,  Tao Wang,  A. Warshel,  
 C. F. Williams,  Q. Wu,  X. Xu,  W. Zhang

 Please cite Q-Chem as follows:
 Y. Shao et al., Mol. Phys. 113, 184-215 (2015)
 DOI: 10.1080/00268976.2014.952696

 Q-Chem 5.2.2 for Intel X86 EM64T Linux

 Parts of Q-Chem use Armadillo 9.800.1 (Horizon Scraper).
 http://arma.sourceforge.net/

 Q-Chem begins on Thu Mar 11 13:37:38 2021  

Host: n0090.mhg0
0

     Scratch files written to /local/scratch/users/ymao/r7.00_frame_0100_almo_B3LYP_dp.in20210311133736//

Checking the input file for inconsistencies... 	...done.

--------------------------------------------------------------
User input:
--------------------------------------------------------------
$molecule
0 1
--
0 1
C    24.11200   31.57900   26.05800  
C    25.35600   30.70900   26.30300  
C    25.41400   29.63900   25.20100  
C    25.44300   30.28600   23.80700  
C    24.16900   31.09200   23.50700  
C    23.97000   32.12600   24.62800  
H    26.26200   28.95600   25.33400  
H    26.25800   31.32900   26.23600  
H    23.21000   31.00800   26.30700  
H    24.05600   32.45400   26.71800  
H    26.36100   30.87600   23.69200  
H    25.52300   29.42600   23.13200  
H    24.36000   31.54900   22.52900  
H    23.34200   30.37200   23.50000  
H    24.70800   32.92800   24.51200  
H    22.93800   32.49400   24.58700  
H    24.46500   29.09700   25.29600  
N    25.28200   30.15900   27.65600  
H    25.34400   29.14900   27.68500  
C    25.54300   30.80800   28.84400  
H    25.48500   30.11700   29.70400  
O    25.59600   32.02300   28.91800  
--
0 1
C    20.95200   24.74600   21.12400  
H    19.86500   24.84100   21.06000  
H    21.36100   24.65500   20.11500  
H    21.25200   23.86800   21.70200  
S    21.50200   26.24800   21.96600  
C    21.29600   27.32200   20.52700  
H    20.24400   27.59600   20.41400  
H    21.88600   28.23900   20.59500  
H    21.55000   26.84700   19.57500  
O    22.98000   26.05300   22.10200  
C    28.58900   32.48600   30.78900  
H    28.65200   33.23400   31.58300  
H    28.59300   32.94800   29.79900  
H    27.77600   31.76100   30.88300  
S    30.11800   31.52300   30.78500  
C    31.20300   32.83600   30.17900  
H    30.96400   33.73100   30.76000  
H    32.20600   32.46400   30.40200  
H    31.18100   33.04500   29.10700  
O    30.02500   30.57300   29.63300  
C    27.96800   33.86000   24.88100  
H    26.90400   34.03900   25.05800  
H    28.56300   34.69500   24.50400  
H    28.07500   32.98300   24.23800  
S    28.63300   33.37200   26.48900  
C    27.86500   34.72000   27.41600  
H    27.97100   34.48400   28.47800  
H    28.41900   35.63500   27.19200  
H    26.80900   34.62900   27.14700  
O    30.04900   33.85400   26.44500  
C    28.12700   30.76400   18.95000  
H    28.66800   30.06800   18.30300  
H    27.08900   30.44400   19.06900  
H    28.11300   31.76700   18.51800  
S    28.99500   30.80700   20.53400  
C    27.95700   32.15100   21.15100  
H    28.31700   32.99700   20.56100  
H    26.93900   31.88200   20.85600  
H    28.09900   32.26700   22.22800  
O    30.31300   31.41600   20.16900  
C    31.11400   28.38000   23.95700  
H    31.89700   28.87200   23.37400  
H    31.46400   28.08300   24.94900  
H    30.79800   27.43500   23.50900  
S    29.77600   29.55200   24.27400  
C    30.31100   30.11500   25.90600  
H    29.74300   31.00400   26.19400  
H    30.20400   29.32200   26.65000  
H    31.38200   30.32900   25.89000  
O    28.63000   28.65700   24.63100  
C    27.55600   37.11200   22.00100  
H    28.59700   37.25200   21.69900  
H    27.08400   37.98000   21.53300  
H    27.45900   37.12100   23.09000  
S    26.91200   35.59300   21.26500  
C    27.43400   35.91800   19.56500  
H    26.93000   36.83600   19.25200  
H    28.52000   36.04100   19.54400  
H    27.10300   35.24300   18.77200  
O    25.43400   35.81000   21.35600  
C    26.72400   37.70000   31.87600  
H    25.93400   37.01300   32.19200  
H    27.57200   37.49700   32.53500  
H    26.33400   38.71000   32.02700  
S    27.31800   37.58800   30.17300  
C    28.50200   38.95300   30.13600  
H    27.95500   39.83000   30.49100  
H    29.38200   38.98300   30.78300  
H    28.73600   39.05000   29.07300  
O    26.47700   38.20000   29.09600  
C    26.21800   26.01100   30.14000  
H    26.94400   25.20600   30.27900  
H    26.66000   26.86700   30.65600  
H    25.18200   25.72600   30.34000  
S    26.15400   26.32800   28.36200  
C    27.69700   27.24000   28.13300  
H    27.60900   27.73500   27.16200  
H    27.69100   27.99900   28.92000  
H    28.50500   26.52500   28.30700  
O    25.11500   27.37300   28.09500  
C    22.61500   24.13500   24.60500  
H    21.98700   23.31700   24.96500  
H    21.95500   24.97400   24.37000  
H    23.21500   23.83700   23.74200  
S    23.85400   24.58600   25.84100  
C    24.90900   25.64200   24.82300  
H    25.27300   24.93700   24.07100  
H    24.28800   26.44100   24.41000  
H    25.76000   26.00400   25.40600  
O    24.67400   23.33800   25.94700  
C    18.26200   38.02000   27.30800  
H    17.65200   38.20300   28.19600  
H    18.37200   38.92800   26.70900  
H    17.80700   37.28700   26.63700  
S    19.84100   37.46800   27.99200  
C    20.49300   37.12600   26.34100  
H    20.49700   38.05100   25.75800  
H    21.51400   36.76500   26.49100  
H    19.87000   36.36000   25.87200  
O    19.60400   36.09100   28.52700  
C    26.45600   27.50700   20.51600  
H    25.97700   27.80500   19.58000  
H    25.75000   26.87200   21.05700  
H    26.80000   28.29400   21.19200  
S    27.93800   26.57200   20.07100  
C    28.50000   26.36600   21.77600  
H    29.59000   26.34400   21.71300  
H    28.06300   27.17300   22.37100  
H    28.21600   25.37100   22.12600  
O    28.75000   27.68300   19.48200  
C    21.04400   35.53800   20.62300  
H    20.20100   36.21500   20.46000  
H    21.95800   36.05400   20.31800  
H    20.89300   34.63500   20.02500  
S    21.17300   34.93300   22.32100  
C    22.30700   36.20900   22.91500  
H    22.98100   36.49900   22.10500  
H    21.70900   37.04300   23.29100  
H    22.90700   35.78400   23.72400  
O    21.97200   33.66700   22.30300  
C    22.77300   29.26300   36.57400  
H    22.50000   29.11000   37.62100  
H    23.24300   30.21400   36.31200  
H    21.91200   29.12100   35.91600  
S    23.75500   27.82700   36.08600  
C    25.13400   28.25500   37.17200  
H    25.50100   29.28200   37.09800  
H    24.84400   28.08500   38.21200  
H    25.95600   27.59800   36.87700  
O    24.06100   28.35700   34.72000  
C    20.18200   33.02500   26.67900  
H    20.78300   32.15700   26.96100  
H    20.72300   33.95500   26.87500  
H    19.36600   32.91100   27.39700  
S    19.61200   32.68900   24.99800  
C    18.01600   33.48000   25.30500  
H    17.53600   32.89400   26.09200  
H    18.06400   34.53700   25.58000  
H    17.44800   33.25600   24.39800  
O    19.28400   31.23000   25.05900  
C    18.98300   32.83100   30.24900  
H    18.16500   32.29800   30.73900  
H    18.57300   33.50100   29.48900  
H    19.83900   32.25800   29.88100  
S    19.62800   34.08700   31.37600  
C    20.40200   32.88400   32.48000  
H    20.08400   33.08800   33.50600  
H    19.97600   31.90100   32.26800  
H    21.48800   32.93200   32.36900  
O    18.53200   34.65200   32.22400  
C    21.53600   27.92800   28.91200  
H    22.25200   27.20800   28.50700  
H    20.70100   27.54500   29.50500  
H    21.02700   28.50700   28.13800  
S    22.44700   29.13800   29.89800  
C    23.26300   27.97500   31.01500  
H    23.14300   28.26300   32.06300  
H    22.86600   26.97700   30.81100  
H    24.30200   27.92800   30.68000  
O    21.37400   29.74500   30.74800  
C    24.19400   34.46800   17.74700  
H    24.30700   34.46400   16.66000  
H    23.18200   34.76800   18.03200  
H    24.99800   35.05500   18.19700  
S    24.27100   32.72200   18.20500  
C    24.30200   32.82100   20.00900  
H    23.37700   33.19400   20.45600  
H    24.45600   31.77900   20.29900  
H    25.19800   33.35900   20.33000  
O    25.64600   32.24200   17.85700  
C    23.61000   39.11100   26.46000  
H    23.34200   39.14700   27.51900  
H    24.03600   40.04800   26.09100  
H    22.75000   38.81200   25.85600  
S    24.78700   37.78700   26.10300  
C    24.90300   38.43100   24.41900  
H    25.25300   39.46400   24.48200  
H    25.50300   37.84000   23.72200  
H    23.85500   38.45900   24.10700  
O    23.98100   36.53300   25.97100  
C    17.11500   29.00000   22.87500  
H    17.05300   29.74500   23.67300  
H    17.75600   29.33400   22.05600  
H    16.07900   28.74200   22.63900  
S    17.83500   27.50200   23.58300  
C    19.45000   28.16300   24.05200  
H    20.09000   27.36200   24.42800  
H    19.91700   28.60000   23.16500  
H    19.38200   28.92200   24.83600  
O    18.22000   26.72300   22.36400  
C    23.53000   36.29500   29.32000  
H    23.60400   35.96400   28.28100  
H    22.51700   36.68000   29.45700  
H    24.27500   37.06300   29.54300  
S    23.99600   34.92900   30.40800  
C    22.78700   33.77500   29.72100  
H    22.98500   33.57500   28.66500  
H    22.90100   32.80700   30.21500  
H    21.80800   34.24700   29.84000  
O    23.51500   35.21000   31.79800  
C    20.66900   30.91700   21.55800  
H    19.87900   30.16500   21.63200  
H    21.65400   30.45300   21.65000  
H    20.46100   31.62100   22.36900  
S    20.87900   31.53800   19.87400  
C    19.16500   32.06000   19.64500  
H    18.54900   31.54300   20.38500  
H    19.11300   33.10400   19.96100  
H    18.76000   31.98900   18.63200  
O    21.02600   30.38500   18.93000  
C    29.68400   24.77300   24.98600  
H    29.61000   24.31600   25.97600  
H    29.84200   25.85500   24.96300  
H    28.73500   24.70700   24.44800  
S    31.11500   23.98900   24.20800  
C    32.46000   24.91900   24.97800  
H    32.26500   25.99200   25.05200  
H    32.60700   24.56400   26.00100  
H    33.35400   24.68800   24.39300  
O    31.27900   24.57400   22.84000  
C    27.74300   27.75600   34.08100  
H    27.70600   28.84400   34.17500  
H    26.96500   27.36500   33.42100  
H    27.71500   27.26300   35.05500  
S    29.32000   27.22500   33.37500  
C    29.55600   28.52400   32.14100  
H    30.21100   29.29400   32.55800  
H    29.96700   28.21900   31.17600  
H    28.56400   28.89400   31.87100  
O    28.89600   25.96700   32.68400  
C    25.79100   30.99200   34.37300  
H    26.12100   30.99000   33.33000  
H    25.88900   30.02200   34.86700  
H    24.80200   31.45500   34.42400  
S    27.16300   31.96800   35.03000  
C    26.65300   33.54100   34.30100  
H    25.80400   33.49900   33.61400  
H    26.49900   34.26100   35.10800  
H    27.46200   33.86400   33.64100  
O    28.29900   31.61000   34.12300  
$end

$rem
JOBTYPE  SP
METHOD  B3LYP
BASIS  6-31+G(D)
SYMMETRY  FALSE
SYM_IGNORE  TRUE
MEM_TOTAL  16000
MEM_STATIC  8000
MAX_SUB_FILE_NUM  16000
BASIS_LIN_DEP_THRESH  6
THRESH  14
SCF_CONVERGENCE  8
GEN_SCFMAN  TRUE
SCF_GUESS  FRAGMO
FD_MAT_VEC_PROD  FALSE
XC_GRID  000075000302
NL_GRID  1
MAX_SCF_CYCLES  200
FRGM_METHOD  STOLL
SCFMI_MODE  1
$end

$development
almo_efield  1
$end

$rem_frgm
SCF_CONVERGENCE  4
$end

--------------------------------------------------------------
 ----------------------------------------------------------------
             Standard Nuclear Orientation (Angstroms)
    I     Atom           X                Y                Z
 ----------------------------------------------------------------
    1      C      24.1120000000    31.5790000000    26.0580000000
    2      C      25.3560000000    30.7090000000    26.3030000000
    3      C      25.4140000000    29.6390000000    25.2010000000
    4      C      25.4430000000    30.2860000000    23.8070000000
    5      C      24.1690000000    31.0920000000    23.5070000000
    6      C      23.9700000000    32.1260000000    24.6280000000
    7      H      26.2620000000    28.9560000000    25.3340000000
    8      H      26.2580000000    31.3290000000    26.2360000000
    9      H      23.2100000000    31.0080000000    26.3070000000
   10      H      24.0560000000    32.4540000000    26.7180000000
   11      H      26.3610000000    30.8760000000    23.6920000000
   12      H      25.5230000000    29.4260000000    23.1320000000
   13      H      24.3600000000    31.5490000000    22.5290000000
   14      H      23.3420000000    30.3720000000    23.5000000000
   15      H      24.7080000000    32.9280000000    24.5120000000
   16      H      22.9380000000    32.4940000000    24.5870000000
   17      H      24.4650000000    29.0970000000    25.2960000000
   18      N      25.2820000000    30.1590000000    27.6560000000
   19      H      25.3440000000    29.1490000000    27.6850000000
   20      C      25.5430000000    30.8080000000    28.8440000000
   21      H      25.4850000000    30.1170000000    29.7040000000
   22      O      25.5960000000    32.0230000000    28.9180000000
   23      C      20.9520000000    24.7460000000    21.1240000000
   24      H      19.8650000000    24.8410000000    21.0600000000
   25      H      21.3610000000    24.6550000000    20.1150000000
   26      H      21.2520000000    23.8680000000    21.7020000000
   27      S      21.5020000000    26.2480000000    21.9660000000
   28      C      21.2960000000    27.3220000000    20.5270000000
   29      H      20.2440000000    27.5960000000    20.4140000000
   30      H      21.8860000000    28.2390000000    20.5950000000
   31      H      21.5500000000    26.8470000000    19.5750000000
   32      O      22.9800000000    26.0530000000    22.1020000000
   33      C      28.5890000000    32.4860000000    30.7890000000
   34      H      28.6520000000    33.2340000000    31.5830000000
   35      H      28.5930000000    32.9480000000    29.7990000000
   36      H      27.7760000000    31.7610000000    30.8830000000
   37      S      30.1180000000    31.5230000000    30.7850000000
   38      C      31.2030000000    32.8360000000    30.1790000000
   39      H      30.9640000000    33.7310000000    30.7600000000
   40      H      32.2060000000    32.4640000000    30.4020000000
   41      H      31.1810000000    33.0450000000    29.1070000000
   42      O      30.0250000000    30.5730000000    29.6330000000
   43      C      27.9680000000    33.8600000000    24.8810000000
   44      H      26.9040000000    34.0390000000    25.0580000000
   45      H      28.5630000000    34.6950000000    24.5040000000
   46      H      28.0750000000    32.9830000000    24.2380000000
   47      S      28.6330000000    33.3720000000    26.4890000000
   48      C      27.8650000000    34.7200000000    27.4160000000
   49      H      27.9710000000    34.4840000000    28.4780000000
   50      H      28.4190000000    35.6350000000    27.1920000000
   51      H      26.8090000000    34.6290000000    27.1470000000
   52      O      30.0490000000    33.8540000000    26.4450000000
   53      C      28.1270000000    30.7640000000    18.9500000000
   54      H      28.6680000000    30.0680000000    18.3030000000
   55      H      27.0890000000    30.4440000000    19.0690000000
   56      H      28.1130000000    31.7670000000    18.5180000000
   57      S      28.9950000000    30.8070000000    20.5340000000
   58      C      27.9570000000    32.1510000000    21.1510000000
   59      H      28.3170000000    32.9970000000    20.5610000000
   60      H      26.9390000000    31.8820000000    20.8560000000
   61      H      28.0990000000    32.2670000000    22.2280000000
   62      O      30.3130000000    31.4160000000    20.1690000000
   63      C      31.1140000000    28.3800000000    23.9570000000
   64      H      31.8970000000    28.8720000000    23.3740000000
   65      H      31.4640000000    28.0830000000    24.9490000000
   66      H      30.7980000000    27.4350000000    23.5090000000
   67      S      29.7760000000    29.5520000000    24.2740000000
   68      C      30.3110000000    30.1150000000    25.9060000000
   69      H      29.7430000000    31.0040000000    26.1940000000
   70      H      30.2040000000    29.3220000000    26.6500000000
   71      H      31.3820000000    30.3290000000    25.8900000000
   72      O      28.6300000000    28.6570000000    24.6310000000
   73      C      27.5560000000    37.1120000000    22.0010000000
   74      H      28.5970000000    37.2520000000    21.6990000000
   75      H      27.0840000000    37.9800000000    21.5330000000
   76      H      27.4590000000    37.1210000000    23.0900000000
   77      S      26.9120000000    35.5930000000    21.2650000000
   78      C      27.4340000000    35.9180000000    19.5650000000
   79      H      26.9300000000    36.8360000000    19.2520000000
   80      H      28.5200000000    36.0410000000    19.5440000000
   81      H      27.1030000000    35.2430000000    18.7720000000
   82      O      25.4340000000    35.8100000000    21.3560000000
   83      C      26.7240000000    37.7000000000    31.8760000000
   84      H      25.9340000000    37.0130000000    32.1920000000
   85      H      27.5720000000    37.4970000000    32.5350000000
   86      H      26.3340000000    38.7100000000    32.0270000000
   87      S      27.3180000000    37.5880000000    30.1730000000
   88      C      28.5020000000    38.9530000000    30.1360000000
   89      H      27.9550000000    39.8300000000    30.4910000000
   90      H      29.3820000000    38.9830000000    30.7830000000
   91      H      28.7360000000    39.0500000000    29.0730000000
   92      O      26.4770000000    38.2000000000    29.0960000000
   93      C      26.2180000000    26.0110000000    30.1400000000
   94      H      26.9440000000    25.2060000000    30.2790000000
   95      H      26.6600000000    26.8670000000    30.6560000000
   96      H      25.1820000000    25.7260000000    30.3400000000
   97      S      26.1540000000    26.3280000000    28.3620000000
   98      C      27.6970000000    27.2400000000    28.1330000000
   99      H      27.6090000000    27.7350000000    27.1620000000
  100      H      27.6910000000    27.9990000000    28.9200000000
  101      H      28.5050000000    26.5250000000    28.3070000000
  102      O      25.1150000000    27.3730000000    28.0950000000
  103      C      22.6150000000    24.1350000000    24.6050000000
  104      H      21.9870000000    23.3170000000    24.9650000000
  105      H      21.9550000000    24.9740000000    24.3700000000
  106      H      23.2150000000    23.8370000000    23.7420000000
  107      S      23.8540000000    24.5860000000    25.8410000000
  108      C      24.9090000000    25.6420000000    24.8230000000
  109      H      25.2730000000    24.9370000000    24.0710000000
  110      H      24.2880000000    26.4410000000    24.4100000000
  111      H      25.7600000000    26.0040000000    25.4060000000
  112      O      24.6740000000    23.3380000000    25.9470000000
  113      C      18.2620000000    38.0200000000    27.3080000000
  114      H      17.6520000000    38.2030000000    28.1960000000
  115      H      18.3720000000    38.9280000000    26.7090000000
  116      H      17.8070000000    37.2870000000    26.6370000000
  117      S      19.8410000000    37.4680000000    27.9920000000
  118      C      20.4930000000    37.1260000000    26.3410000000
  119      H      20.4970000000    38.0510000000    25.7580000000
  120      H      21.5140000000    36.7650000000    26.4910000000
  121      H      19.8700000000    36.3600000000    25.8720000000
  122      O      19.6040000000    36.0910000000    28.5270000000
  123      C      26.4560000000    27.5070000000    20.5160000000
  124      H      25.9770000000    27.8050000000    19.5800000000
  125      H      25.7500000000    26.8720000000    21.0570000000
  126      H      26.8000000000    28.2940000000    21.1920000000
  127      S      27.9380000000    26.5720000000    20.0710000000
  128      C      28.5000000000    26.3660000000    21.7760000000
  129      H      29.5900000000    26.3440000000    21.7130000000
  130      H      28.0630000000    27.1730000000    22.3710000000
  131      H      28.2160000000    25.3710000000    22.1260000000
  132      O      28.7500000000    27.6830000000    19.4820000000
  133      C      21.0440000000    35.5380000000    20.6230000000
  134      H      20.2010000000    36.2150000000    20.4600000000
  135      H      21.9580000000    36.0540000000    20.3180000000
  136      H      20.8930000000    34.6350000000    20.0250000000
  137      S      21.1730000000    34.9330000000    22.3210000000
  138      C      22.3070000000    36.2090000000    22.9150000000
  139      H      22.9810000000    36.4990000000    22.1050000000
  140      H      21.7090000000    37.0430000000    23.2910000000
  141      H      22.9070000000    35.7840000000    23.7240000000
  142      O      21.9720000000    33.6670000000    22.3030000000
  143      C      22.7730000000    29.2630000000    36.5740000000
  144      H      22.5000000000    29.1100000000    37.6210000000
  145      H      23.2430000000    30.2140000000    36.3120000000
  146      H      21.9120000000    29.1210000000    35.9160000000
  147      S      23.7550000000    27.8270000000    36.0860000000
  148      C      25.1340000000    28.2550000000    37.1720000000
  149      H      25.5010000000    29.2820000000    37.0980000000
  150      H      24.8440000000    28.0850000000    38.2120000000
  151      H      25.9560000000    27.5980000000    36.8770000000
  152      O      24.0610000000    28.3570000000    34.7200000000
  153      C      20.1820000000    33.0250000000    26.6790000000
  154      H      20.7830000000    32.1570000000    26.9610000000
  155      H      20.7230000000    33.9550000000    26.8750000000
  156      H      19.3660000000    32.9110000000    27.3970000000
  157      S      19.6120000000    32.6890000000    24.9980000000
  158      C      18.0160000000    33.4800000000    25.3050000000
  159      H      17.5360000000    32.8940000000    26.0920000000
  160      H      18.0640000000    34.5370000000    25.5800000000
  161      H      17.4480000000    33.2560000000    24.3980000000
  162      O      19.2840000000    31.2300000000    25.0590000000
  163      C      18.9830000000    32.8310000000    30.2490000000
  164      H      18.1650000000    32.2980000000    30.7390000000
  165      H      18.5730000000    33.5010000000    29.4890000000
  166      H      19.8390000000    32.2580000000    29.8810000000
  167      S      19.6280000000    34.0870000000    31.3760000000
  168      C      20.4020000000    32.8840000000    32.4800000000
  169      H      20.0840000000    33.0880000000    33.5060000000
  170      H      19.9760000000    31.9010000000    32.2680000000
  171      H      21.4880000000    32.9320000000    32.3690000000
  172      O      18.5320000000    34.6520000000    32.2240000000
  173      C      21.5360000000    27.9280000000    28.9120000000
  174      H      22.2520000000    27.2080000000    28.5070000000
  175      H      20.7010000000    27.5450000000    29.5050000000
  176      H      21.0270000000    28.5070000000    28.1380000000
  177      S      22.4470000000    29.1380000000    29.8980000000
  178      C      23.2630000000    27.9750000000    31.0150000000
  179      H      23.1430000000    28.2630000000    32.0630000000
  180      H      22.8660000000    26.9770000000    30.8110000000
  181      H      24.3020000000    27.9280000000    30.6800000000
  182      O      21.3740000000    29.7450000000    30.7480000000
  183      C      24.1940000000    34.4680000000    17.7470000000
  184      H      24.3070000000    34.4640000000    16.6600000000
  185      H      23.1820000000    34.7680000000    18.0320000000
  186      H      24.9980000000    35.0550000000    18.1970000000
  187      S      24.2710000000    32.7220000000    18.2050000000
  188      C      24.3020000000    32.8210000000    20.0090000000
  189      H      23.3770000000    33.1940000000    20.4560000000
  190      H      24.4560000000    31.7790000000    20.2990000000
  191      H      25.1980000000    33.3590000000    20.3300000000
  192      O      25.6460000000    32.2420000000    17.8570000000
  193      C      23.6100000000    39.1110000000    26.4600000000
  194      H      23.3420000000    39.1470000000    27.5190000000
  195      H      24.0360000000    40.0480000000    26.0910000000
  196      H      22.7500000000    38.8120000000    25.8560000000
  197      S      24.7870000000    37.7870000000    26.1030000000
  198      C      24.9030000000    38.4310000000    24.4190000000
  199      H      25.2530000000    39.4640000000    24.4820000000
  200      H      25.5030000000    37.8400000000    23.7220000000
  201      H      23.8550000000    38.4590000000    24.1070000000
  202      O      23.9810000000    36.5330000000    25.9710000000
  203      C      17.1150000000    29.0000000000    22.8750000000
  204      H      17.0530000000    29.7450000000    23.6730000000
  205      H      17.7560000000    29.3340000000    22.0560000000
  206      H      16.0790000000    28.7420000000    22.6390000000
  207      S      17.8350000000    27.5020000000    23.5830000000
  208      C      19.4500000000    28.1630000000    24.0520000000
  209      H      20.0900000000    27.3620000000    24.4280000000
  210      H      19.9170000000    28.6000000000    23.1650000000
  211      H      19.3820000000    28.9220000000    24.8360000000
  212      O      18.2200000000    26.7230000000    22.3640000000
  213      C      23.5300000000    36.2950000000    29.3200000000
  214      H      23.6040000000    35.9640000000    28.2810000000
  215      H      22.5170000000    36.6800000000    29.4570000000
  216      H      24.2750000000    37.0630000000    29.5430000000
  217      S      23.9960000000    34.9290000000    30.4080000000
  218      C      22.7870000000    33.7750000000    29.7210000000
  219      H      22.9850000000    33.5750000000    28.6650000000
  220      H      22.9010000000    32.8070000000    30.2150000000
  221      H      21.8080000000    34.2470000000    29.8400000000
  222      O      23.5150000000    35.2100000000    31.7980000000
  223      C      20.6690000000    30.9170000000    21.5580000000
  224      H      19.8790000000    30.1650000000    21.6320000000
  225      H      21.6540000000    30.4530000000    21.6500000000
  226      H      20.4610000000    31.6210000000    22.3690000000
  227      S      20.8790000000    31.5380000000    19.8740000000
  228      C      19.1650000000    32.0600000000    19.6450000000
  229      H      18.5490000000    31.5430000000    20.3850000000
  230      H      19.1130000000    33.1040000000    19.9610000000
  231      H      18.7600000000    31.9890000000    18.6320000000
  232      O      21.0260000000    30.3850000000    18.9300000000
  233      C      29.6840000000    24.7730000000    24.9860000000
  234      H      29.6100000000    24.3160000000    25.9760000000
  235      H      29.8420000000    25.8550000000    24.9630000000
  236      H      28.7350000000    24.7070000000    24.4480000000
  237      S      31.1150000000    23.9890000000    24.2080000000
  238      C      32.4600000000    24.9190000000    24.9780000000
  239      H      32.2650000000    25.9920000000    25.0520000000
  240      H      32.6070000000    24.5640000000    26.0010000000
  241      H      33.3540000000    24.6880000000    24.3930000000
  242      O      31.2790000000    24.5740000000    22.8400000000
  243      C      27.7430000000    27.7560000000    34.0810000000
  244      H      27.7060000000    28.8440000000    34.1750000000
  245      H      26.9650000000    27.3650000000    33.4210000000
  246      H      27.7150000000    27.2630000000    35.0550000000
  247      S      29.3200000000    27.2250000000    33.3750000000
  248      C      29.5560000000    28.5240000000    32.1410000000
  249      H      30.2110000000    29.2940000000    32.5580000000
  250      H      29.9670000000    28.2190000000    31.1760000000
  251      H      28.5640000000    28.8940000000    31.8710000000
  252      O      28.8960000000    25.9670000000    32.6840000000
  253      C      25.7910000000    30.9920000000    34.3730000000
  254      H      26.1210000000    30.9900000000    33.3300000000
  255      H      25.8890000000    30.0220000000    34.8670000000
  256      H      24.8020000000    31.4550000000    34.4240000000
  257      S      27.1630000000    31.9680000000    35.0300000000
  258      C      26.6530000000    33.5410000000    34.3010000000
  259      H      25.8040000000    33.4990000000    33.6140000000
  260      H      26.4990000000    34.2610000000    35.1080000000
  261      H      27.4620000000    33.8640000000    33.6410000000
  262      O      28.2990000000    31.6100000000    34.1230000000
 ----------------------------------------------------------------
 Nuclear Repulsion Energy =       38835.69589110 hartrees
 There are      539 alpha and      539 beta electrons
 Requested basis set is 6-31+G(d)
 There are 863 shells and 2405 basis functions

 Total QAlloc Memory Limit  16000 MB
 Mega-Array Size      7821 MB
 MEM_STATIC part      8000 MB
 A cutoff of  1.0D-14 yielded 143221 shell pairs
 There are   1240166 function pairs
 Smallest overlap matrix eigenvalue = 9.17E-07
 Linear dependence detected in AO basis
 Tighter screening thresholds may be required for diffuse basis sets
 Use S2THRESH > 14 and THRESH = 14 in case of SCF convergence issues
 Number of orthogonalized atomic orbitals = 2404
 Maximum deviation from orthogonality = 1.844E-10

 Scale SEOQF with 1.000000e-03/1.000000e-03/1.000000e-03

 Standard Electronic Orientation quadrupole field applied
 Nucleus-field energy     =     0.0000001793 hartrees
Attempting to make child job directory: /local/scratch/users/ymao/r7.00_frame_0100_almo_B3LYP_dp.in20210311133736//Frg1/
Attempting to make child job directory: /local/scratch/users/ymao/r7.00_frame_0100_almo_B3LYP_dp.in20210311133736//Frg2/
Creating input file /local/scratch/users/ymao/r7.00_frame_0100_almo_B3LYP_dp.in20210311133736/Frg1.input
using default PutDataFrgm: nothing
calling putenv with: QCSCRATCH=/local/scratch/users/ymao/r7.00_frame_0100_almo_B3LYP_dp.in20210311133736/ 
Spawning Job For Fragment 0
Done Job For Fragment 0
calling putenv with: QCSCRATCH=/local/scratch/users/ymao 
calling putenv with: QCTHREADS=8 
Creating input file /local/scratch/users/ymao/r7.00_frame_0100_almo_B3LYP_dp.in20210311133736/Frg2.input
using default PutDataFrgm: nothing
calling putenv with: QCSCRATCH=/local/scratch/users/ymao/r7.00_frame_0100_almo_B3LYP_dp.in20210311133736/ 
Spawning Job For Fragment 1
Done Job For Fragment 1
calling putenv with: QCSCRATCH=/local/scratch/users/ymao 
calling putenv with: QCTHREADS=8 
 Time for running child jobs:  CPU 0.67 s  wall 13476.02 s

 -----------------------------------------------------------------------
  General SCF calculation program by
  Eric Jon Sundstrom, Paul Horn, Yuezhi Mao, Dmitri Zuev, Alec White,
  David Stuck, Shaama M.S., Shane Yost, Joonho Lee, David Small,
  Daniel Levine, Susi Lehtola, Hugh Burton, Evgeny Epifanovsky,
  Bang C. Huynh
 -----------------------------------------------------------------------
Performing Restricted Closed Shell SCFMI
Doing General SCFMI
 Exchange:     0.2000 Hartree-Fock + 0.0800 Slater + 0.7200 B88
 Correlation:  0.1900 VWN1RPA + 0.8100 LYP
 Using Euler-Maclaurin-Lebedev (75,302) quadrature formula
performing fock build before subrot guess so that all methods have access
Printing subrot_rss_gen Method Specification:
Occupied Subspace Method is 0
Virtual Subspace Method is 0
Energy prior to optimization (guess energy) = -13681.156570102903
Begin Timing: Total SCF Calculation
begin iterations for algorithm: DIIS         
the SCF tolerance is set to 1.00e-08
    1  -13681.1565701029      4.84e-05     00000 
    2  -13681.1565083827      7.14e-05     00000 
    3  -13681.1662666009      1.99e-05     00000 
    4  -13681.1670331670      6.72e-06     00000 
    5  -13681.1671324784      3.49e-06     00000 
    6  -13681.1671563812      1.85e-06     00000 
    7  -13681.1671626288      1.06e-06     00000 
    8  -13681.1671650285      4.95e-07     00000 
    9  -13681.1671654522      2.82e-07     00000 
   10  -13681.1671655703      1.61e-07     00000 
   11  -13681.1671656076      9.45e-08     00000 
   12  -13681.1671656231      4.55e-08     00000 
   13  -13681.1671656274      2.29e-08     00000 
   14  -13681.1671656280      1.64e-08     00000 
   15  -13681.1671656284      7.28e-09     00000 Convergence criterion met
write pseudocanon occs and virts to disk
write pseudocanon orbital energies to disk
Timing for Total SCF: 31373.00s (wall), 250449.63s (cpu)
SCFMI Energy  -13681.1671656284
<S^2>            0.00000
 Total energy in the final basis set =   -13681.1671656284
    ==================================================
        The end of Object-Oriented SCFman: SCFMI      
    ==================================================
 
 --------------------------------------------------------------
 
                    Orbital Energies (a.u.)
 --------------------------------------------------------------
 
 Alpha MOs
 -- Occupied --
-89.0233 -89.0228 -89.0208 -89.0192 -89.0180 -89.0178 -89.0153 -89.0070
-89.0003 -88.9961 -88.9959 -88.9957 -88.9919 -88.9911 -88.9909 -88.9875
-88.9866 -88.9856 -88.9831 -88.9826 -88.9718 -88.9644 -88.9635 -88.9574
-19.1433 -19.1373 -19.1369 -19.1356 -19.1350 -19.1339 -19.1281 -19.1232
-19.1223 -19.1219 -19.1168 -19.1110 -19.1088 -19.1077 -19.1061 -19.1043
-19.1038 -19.1029 -19.0985 -19.0980 -19.0953 -19.0869 -19.0847 -19.0771
-19.0769 -14.3416 -10.2827 -10.2435 -10.2429 -10.2407 -10.2398 -10.2389
-10.2382 -10.2379 -10.2376 -10.2375 -10.2337 -10.2328 -10.2308 -10.2269
-10.2225 -10.2214 -10.2209 -10.2208 -10.2196 -10.2194 -10.2191 -10.2173
-10.2173 -10.2149 -10.2133 -10.2126 -10.2123 -10.2119 -10.2112 -10.2111
-10.2103 -10.2062 -10.2035 -10.2034 -10.2031 -10.2015 -10.2002 -10.1993
-10.1989 -10.1975 -10.1971 -10.1939 -10.1934 -10.1925 -10.1916 -10.1896
-10.1840 -10.1805 -10.1784 -10.1737 -10.1721 -10.1719 -10.1710 -10.1708
-10.1629  -8.0688  -8.0685  -8.0667  -8.0657  -8.0639  -8.0636  -8.0611
 -8.0540  -8.0459  -8.0430  -8.0425  -8.0424  -8.0383  -8.0373  -8.0372
 -8.0342  -8.0329  -8.0311  -8.0298  -8.0284  -8.0181  -8.0110  -8.0099
 -8.0033  -6.0332  -6.0327  -6.0320  -6.0316  -6.0311  -6.0298  -6.0296
 -6.0287  -6.0283  -6.0280  -6.0272  -6.0268  -6.0262  -6.0259  -6.0254
 -6.0241  -6.0241  -6.0233  -6.0210  -6.0210  -6.0187  -6.0181  -6.0170
 -6.0115  -6.0102  -6.0092  -6.0075  -6.0067  -6.0066  -6.0060  -6.0056
 -6.0054  -6.0032  -6.0026  -6.0017  -6.0017  -6.0015  -6.0004  -6.0003
 -6.0000  -5.9999  -5.9999  -5.9985  -5.9974  -5.9973  -5.9962  -5.9956
 -5.9955  -5.9946  -5.9945  -5.9942  -5.9941  -5.9929  -5.9929  -5.9915
 -5.9914  -5.9900  -5.9885  -5.9870  -5.9858  -5.9824  -5.9813  -5.9755
 -5.9753  -5.9741  -5.9741  -5.9730  -5.9682  -5.9676  -5.9675  -5.9663
 -5.9608  -1.0510  -1.0458  -1.0452  -1.0446  -1.0428  -1.0424  -1.0422
 -1.0352  -1.0350  -1.0323  -1.0223  -1.0207  -1.0186  -1.0186  -1.0150
 -1.0127  -1.0125  -1.0121  -1.0117  -1.0083  -1.0058  -0.9955  -0.9922
 -0.9879  -0.9837  -0.9094  -0.8362  -0.8260  -0.8241  -0.8215  -0.8173
 -0.8166  -0.8165  -0.8133  -0.8065  -0.8058  -0.8047  -0.8008  -0.7974
 -0.7923  -0.7916  -0.7903  -0.7898  -0.7888  -0.7881  -0.7857  -0.7808
 -0.7764  -0.7719  -0.7686  -0.7677  -0.7525  -0.7483  -0.7474  -0.7469
 -0.7451  -0.7430  -0.7361  -0.7358  -0.7343  -0.7336  -0.7324  -0.7315
 -0.7284  -0.7260  -0.7252  -0.7245  -0.7231  -0.7218  -0.7163  -0.7152
 -0.7110  -0.7061  -0.7036  -0.6975  -0.6935  -0.6838  -0.6405  -0.6381
 -0.6352  -0.6333  -0.6320  -0.6304  -0.6298  -0.6286  -0.6199  -0.6161
 -0.6114  -0.6089  -0.6070  -0.6069  -0.6041  -0.6023  -0.6015  -0.6004
 -0.6001  -0.5973  -0.5963  -0.5955  -0.5834  -0.5784  -0.5763  -0.5705
 -0.5685  -0.5518  -0.5199  -0.5132  -0.5067  -0.5013  -0.5004  -0.4992
 -0.4980  -0.4956  -0.4941  -0.4928  -0.4902  -0.4899  -0.4890  -0.4890
 -0.4885  -0.4875  -0.4865  -0.4856  -0.4852  -0.4852  -0.4838  -0.4819
 -0.4813  -0.4812  -0.4790  -0.4781  -0.4773  -0.4769  -0.4745  -0.4740
 -0.4738  -0.4732  -0.4729  -0.4717  -0.4701  -0.4693  -0.4688  -0.4677
 -0.4655  -0.4649  -0.4648  -0.4636  -0.4625  -0.4618  -0.4602  -0.4597
 -0.4593  -0.4587  -0.4586  -0.4583  -0.4580  -0.4566  -0.4565  -0.4558
 -0.4548  -0.4546  -0.4536  -0.4525  -0.4524  -0.4513  -0.4512  -0.4505
 -0.4501  -0.4499  -0.4495  -0.4480  -0.4479  -0.4475  -0.4467  -0.4456
 -0.4446  -0.4442  -0.4436  -0.4433  -0.4424  -0.4419  -0.4415  -0.4412
 -0.4397  -0.4385  -0.4380  -0.4372  -0.4358  -0.4342  -0.4333  -0.4327
 -0.4321  -0.4317  -0.4313  -0.4309  -0.4297  -0.4290  -0.4279  -0.4274
 -0.4268  -0.4266  -0.4255  -0.4245  -0.4241  -0.4222  -0.4215  -0.4213
 -0.4209  -0.4198  -0.4184  -0.4180  -0.4165  -0.4161  -0.4146  -0.4120
 -0.4093  -0.4078  -0.4070  -0.4059  -0.4057  -0.4049  -0.4037  -0.4033
 -0.4031  -0.4019  -0.4016  -0.4014  -0.4002  -0.3983  -0.3976  -0.3972
 -0.3969  -0.3956  -0.3951  -0.3948  -0.3938  -0.3924  -0.3920  -0.3907
 -0.3896  -0.3884  -0.3883  -0.3876  -0.3871  -0.3869  -0.3861  -0.3860
 -0.3853  -0.3852  -0.3848  -0.3824  -0.3818  -0.3802  -0.3793  -0.3783
 -0.3776  -0.3759  -0.3749  -0.3747  -0.3746  -0.3729  -0.3689  -0.3686
 -0.3654  -0.3635  -0.3619  -0.3602  -0.3575  -0.3571  -0.3566  -0.3547
 -0.3545  -0.3539  -0.3525  -0.3522  -0.3512  -0.3505  -0.3480  -0.3443
 -0.3438  -0.3354  -0.3339  -0.3329  -0.3292  -0.3223  -0.3197  -0.3050
 -0.3037  -0.3000  -0.2988  -0.2975  -0.2959  -0.2932  -0.2925  -0.2875
 -0.2859  -0.2826  -0.2777  -0.2714  -0.2687  -0.2676  -0.2676  -0.2671
 -0.2666  -0.2654  -0.2646  -0.2642  -0.2608  -0.2603  -0.2597  -0.2597
 -0.2591  -0.2580  -0.2574  -0.2561  -0.2533  -0.2516  -0.2471  -0.2454
 -0.2449  -0.2397  -0.2384  -0.2373  -0.2366  -0.2359  -0.2352  -0.2331
 -0.2314  -0.2291  -0.2257  -0.2256  -0.2253  -0.2228  -0.2227  -0.2100
 -0.2089  -0.2065  -0.1971
 -- Virtual --
 -0.0391  -0.0322  -0.0295  -0.0274  -0.0245  -0.0234  -0.0219  -0.0214
 -0.0211  -0.0181  -0.0125  -0.0111  -0.0108  -0.0102  -0.0090  -0.0071
 -0.0067  -0.0063  -0.0047  -0.0038  -0.0032  -0.0019  -0.0012  -0.0006
  0.0009   0.0012   0.0029   0.0035   0.0043   0.0045   0.0051   0.0061
  0.0068   0.0072   0.0080   0.0088   0.0100   0.0122   0.0131   0.0140
  0.0142   0.0153   0.0154   0.0165   0.0175   0.0188   0.0194   0.0202
  0.0204   0.0206   0.0208   0.0219   0.0221   0.0228   0.0241   0.0248
  0.0251   0.0256   0.0263   0.0276   0.0283   0.0291   0.0297   0.0303
  0.0309   0.0320   0.0324   0.0334   0.0339   0.0345   0.0353   0.0360
  0.0363   0.0379   0.0380   0.0387   0.0396   0.0401   0.0407   0.0415
  0.0418   0.0425   0.0426   0.0434   0.0443   0.0448   0.0463   0.0471
  0.0476   0.0481   0.0485   0.0492   0.0500   0.0512   0.0515   0.0523
  0.0533   0.0538   0.0545   0.0546   0.0554   0.0561   0.0568   0.0575
  0.0578   0.0593   0.0599   0.0607   0.0613   0.0615   0.0628   0.0635
  0.0647   0.0656   0.0659   0.0664   0.0667   0.0673   0.0679   0.0690
  0.0693   0.0702   0.0708   0.0716   0.0720   0.0723   0.0727   0.0738
  0.0743   0.0751   0.0758   0.0762   0.0764   0.0772   0.0782   0.0786
  0.0792   0.0796   0.0809   0.0810   0.0819   0.0828   0.0831   0.0838
  0.0847   0.0852   0.0856   0.0867   0.0872   0.0880   0.0883   0.0887
  0.0892   0.0899   0.0910   0.0914   0.0929   0.0933   0.0940   0.0955
  0.0962   0.0969   0.0972   0.0979   0.0985   0.0989   0.1002   0.1005
  0.1014   0.1017   0.1026   0.1028   0.1042   0.1047   0.1052   0.1062
  0.1064   0.1072   0.1077   0.1079   0.1098   0.1103   0.1105   0.1111
  0.1115   0.1118   0.1133   0.1141   0.1147   0.1152   0.1154   0.1160
  0.1166   0.1174   0.1183   0.1190   0.1194   0.1199   0.1210   0.1216
  0.1223   0.1229   0.1237   0.1243   0.1254   0.1258   0.1265   0.1270
  0.1284   0.1290   0.1295   0.1299   0.1308   0.1314   0.1320   0.1324
  0.1325   0.1336   0.1342   0.1352   0.1355   0.1365   0.1368   0.1373
  0.1375   0.1386   0.1392   0.1410   0.1412   0.1418   0.1424   0.1428
  0.1430   0.1437   0.1448   0.1457   0.1462   0.1466   0.1474   0.1475
  0.1493   0.1501   0.1509   0.1511   0.1523   0.1526   0.1538   0.1539
  0.1548   0.1551   0.1555   0.1566   0.1573   0.1579   0.1586   0.1591
  0.1598   0.1599   0.1604   0.1614   0.1618   0.1622   0.1632   0.1635
  0.1646   0.1651   0.1660   0.1663   0.1665   0.1675   0.1687   0.1690
  0.1692   0.1702   0.1721   0.1723   0.1729   0.1737   0.1741   0.1744
  0.1752   0.1758   0.1761   0.1766   0.1782   0.1791   0.1793   0.1798
  0.1806   0.1815   0.1825   0.1829   0.1839   0.1845   0.1846   0.1857
  0.1858   0.1874   0.1881   0.1885   0.1893   0.1900   0.1905   0.1911
  0.1919   0.1926   0.1932   0.1936   0.1940   0.1952   0.1961   0.1972
  0.1974   0.1983   0.1988   0.1990   0.1997   0.2000   0.2010   0.2014
  0.2027   0.2032   0.2034   0.2044   0.2052   0.2057   0.2062   0.2068
  0.2073   0.2084   0.2089   0.2097   0.2107   0.2113   0.2118   0.2123
  0.2132   0.2139   0.2145   0.2154   0.2156   0.2168   0.2171   0.2179
  0.2187   0.2191   0.2201   0.2204   0.2212   0.2217   0.2222   0.2231
  0.2235   0.2245   0.2253   0.2258   0.2261   0.2275   0.2279   0.2288
  0.2293   0.2298   0.2307   0.2308   0.2326   0.2331   0.2335   0.2343
  0.2350   0.2365   0.2365   0.2378   0.2385   0.2391   0.2396   0.2399
  0.2406   0.2412   0.2418   0.2431   0.2435   0.2443   0.2448   0.2454
  0.2467   0.2476   0.2488   0.2492   0.2503   0.2516   0.2518   0.2523
  0.2525   0.2530   0.2537   0.2542   0.2545   0.2558   0.2565   0.2574
  0.2583   0.2588   0.2595   0.2600   0.2602   0.2614   0.2623   0.2647
  0.2652   0.2661   0.2664   0.2675   0.2680   0.2688   0.2692   0.2700
  0.2714   0.2715   0.2725   0.2736   0.2744   0.2750   0.2755   0.2771
  0.2775   0.2778   0.2779   0.2792   0.2801   0.2812   0.2817   0.2831
  0.2838   0.2851   0.2860   0.2867   0.2883   0.2890   0.2901   0.2908
  0.2912   0.2923   0.2934   0.2942   0.2953   0.2962   0.2980   0.2989
  0.2994   0.3000   0.3010   0.3023   0.3028   0.3044   0.3048   0.3065
  0.3072   0.3074   0.3085   0.3095   0.3105   0.3109   0.3123   0.3126
  0.3136   0.3145   0.3154   0.3164   0.3179   0.3191   0.3193   0.3202
  0.3214   0.3223   0.3231   0.3244   0.3250   0.3265   0.3268   0.3279
  0.3286   0.3297   0.3306   0.3319   0.3323   0.3336   0.3347   0.3354
  0.3367   0.3382   0.3389   0.3393   0.3397   0.3401   0.3413   0.3424
  0.3431   0.3445   0.3449   0.3453   0.3459   0.3470   0.3482   0.3493
  0.3502   0.3516   0.3525   0.3538   0.3543   0.3559   0.3561   0.3578
  0.3586   0.3593   0.3599   0.3606   0.3616   0.3630   0.3641   0.3650
  0.3657   0.3670   0.3679   0.3685   0.3691   0.3707   0.3720   0.3736
  0.3737   0.3742   0.3761   0.3768   0.3773   0.3779   0.3783   0.3804
  0.3811   0.3823   0.3827   0.3833   0.3846   0.3852   0.3858   0.3869
  0.3881   0.3891   0.3895   0.3914   0.3924   0.3930   0.3937   0.3941
  0.3957   0.3964   0.3973   0.3981   0.3996   0.4001   0.4010   0.4027
  0.4038   0.4041   0.4052   0.4063   0.4077   0.4085   0.4089   0.4098
  0.4116   0.4121   0.4127   0.4141   0.4147   0.4156   0.4173   0.4181
  0.4189   0.4213   0.4216   0.4230   0.4233   0.4242   0.4254   0.4265
  0.4268   0.4279   0.4292   0.4301   0.4308   0.4324   0.4333   0.4340
  0.4361   0.4370   0.4380   0.4399   0.4404   0.4428   0.4429   0.4438
  0.4444   0.4447   0.4457   0.4464   0.4487   0.4498   0.4503   0.4518
  0.4525   0.4550   0.4562   0.4576   0.4582   0.4596   0.4636   0.4644
  0.4658   0.4675   0.4691   0.4697   0.4716   0.4730   0.4745   0.4753
  0.4761   0.4789   0.4810   0.4823   0.4842   0.4847   0.4883   0.4892
  0.4925   0.4936   0.4953   0.4969   0.4973   0.4992   0.5013   0.5024
  0.5047   0.5072   0.5085   0.5104   0.5122   0.5144   0.5158   0.5171
  0.5188   0.5196   0.5226   0.5237   0.5257   0.5279   0.5301   0.5342
  0.5354   0.5356   0.5372   0.5406   0.5423   0.5424   0.5452   0.5465
  0.5483   0.5487   0.5493   0.5516   0.5527   0.5537   0.5563   0.5570
  0.5597   0.5616   0.5635   0.5647   0.5656   0.5678   0.5688   0.5695
  0.5729   0.5730   0.5745   0.5780   0.5791   0.5811   0.5831   0.5841
  0.5853   0.5877   0.5878   0.5892   0.5900   0.5916   0.5926   0.5929
  0.5957   0.5967   0.5975   0.5979   0.6024   0.6039   0.6045   0.6054
  0.6061   0.6075   0.6095   0.6098   0.6120   0.6123   0.6136   0.6153
  0.6161   0.6175   0.6193   0.6205   0.6223   0.6233   0.6240   0.6244
  0.6264   0.6274   0.6293   0.6306   0.6317   0.6350   0.6360   0.6376
  0.6382   0.6398   0.6412   0.6420   0.6436   0.6452   0.6459   0.6465
  0.6470   0.6480   0.6492   0.6517   0.6525   0.6529   0.6539   0.6551
  0.6561   0.6571   0.6586   0.6598   0.6610   0.6620   0.6639   0.6642
  0.6651   0.6662   0.6691   0.6698   0.6716   0.6721   0.6724   0.6736
  0.6758   0.6777   0.6791   0.6805   0.6816   0.6833   0.6841   0.6869
  0.6873   0.6881   0.6894   0.6907   0.6921   0.6931   0.6933   0.6956
  0.6976   0.6989   0.6992   0.7014   0.7020   0.7029   0.7051   0.7057
  0.7073   0.7087   0.7101   0.7107   0.7144   0.7157   0.7161   0.7180
  0.7200   0.7223   0.7248   0.7255   0.7261   0.7271   0.7285   0.7311
  0.7322   0.7336   0.7361   0.7376   0.7390   0.7405   0.7413   0.7423
  0.7440   0.7459   0.7467   0.7491   0.7521   0.7527   0.7550   0.7563
  0.7582   0.7586   0.7621   0.7627   0.7644   0.7655   0.7695   0.7703
  0.7716   0.7723   0.7749   0.7765   0.7779   0.7786   0.7820   0.7836
  0.7839   0.7851   0.7862   0.7887   0.7909   0.7912   0.7933   0.7943
  0.7957   0.7976   0.7989   0.8001   0.8010   0.8016   0.8019   0.8041
  0.8052   0.8068   0.8089   0.8103   0.8123   0.8139   0.8145   0.8161
  0.8177   0.8196   0.8212   0.8215   0.8230   0.8245   0.8248   0.8262
  0.8267   0.8285   0.8315   0.8341   0.8355   0.8362   0.8370   0.8393
  0.8401   0.8423   0.8432   0.8446   0.8450   0.8468   0.8486   0.8509
  0.8526   0.8532   0.8537   0.8575   0.8580   0.8590   0.8596   0.8618
  0.8628   0.8638   0.8649   0.8659   0.8683   0.8704   0.8714   0.8734
  0.8766   0.8776   0.8790   0.8804   0.8815   0.8833   0.8834   0.8845
  0.8852   0.8875   0.8892   0.8904   0.8933   0.8945   0.8964   0.8976
  0.9002   0.9009   0.9038   0.9045   0.9051   0.9082   0.9084   0.9103
  0.9109   0.9126   0.9133   0.9146   0.9161   0.9167   0.9182   0.9193
  0.9210   0.9223   0.9241   0.9245   0.9264   0.9275   0.9282   0.9290
  0.9301   0.9323   0.9329   0.9347   0.9363   0.9373   0.9387   0.9392
  0.9403   0.9426   0.9443   0.9451   0.9456   0.9461   0.9495   0.9505
  0.9514   0.9523   0.9547   0.9558   0.9574   0.9590   0.9597   0.9608
  0.9620   0.9628   0.9633   0.9642   0.9666   0.9669   0.9682   0.9707
  0.9714   0.9727   0.9739   0.9749   0.9756   0.9774   0.9790   0.9799
  0.9807   0.9813   0.9829   0.9847   0.9852   0.9860   0.9878   0.9895
  0.9907   0.9918   0.9933   0.9936   0.9949   0.9970   0.9974   0.9979
  0.9998   1.0009   1.0017   1.0027   1.0039   1.0055   1.0074   1.0077
  1.0090   1.0104   1.0115   1.0123   1.0128   1.0145   1.0156   1.0165
  1.0179   1.0191   1.0196   1.0207   1.0218   1.0219   1.0232   1.0242
  1.0256   1.0268   1.0281   1.0297   1.0309   1.0320   1.0334   1.0342
  1.0365   1.0375   1.0403   1.0412   1.0432   1.0435   1.0458   1.0462
  1.0470   1.0486   1.0498   1.0501   1.0514   1.0538   1.0549   1.0562
  1.0589   1.0594   1.0621   1.0639   1.0644   1.0671   1.0673   1.0684
  1.0694   1.0736   1.0739   1.0753   1.0761   1.0786   1.0797   1.0803
  1.0829   1.0846   1.0861   1.0864   1.0899   1.0909   1.0932   1.0941
  1.0962   1.0972   1.0985   1.0999   1.1010   1.1034   1.1040   1.1055
  1.1065   1.1068   1.1095   1.1106   1.1112   1.1136   1.1143   1.1165
  1.1181   1.1195   1.1198   1.1202   1.1207   1.1229   1.1245   1.1261
  1.1269   1.1287   1.1297   1.1327   1.1338   1.1347   1.1361   1.1378
  1.1388   1.1407   1.1413   1.1431   1.1437   1.1455   1.1467   1.1482
  1.1492   1.1502   1.1522   1.1563   1.1566   1.1578   1.1589   1.1603
  1.1613   1.1624   1.1651   1.1668   1.1675   1.1694   1.1701   1.1724
  1.1739   1.1748   1.1772   1.1779   1.1795   1.1810   1.1823   1.1846
  1.1865   1.1889   1.1901   1.1907   1.1927   1.1946   1.1973   1.2011
  1.2033   1.2047   1.2068   1.2096   1.2105   1.2117   1.2141   1.2187
  1.2191   1.2199   1.2241   1.2242   1.2275   1.2278   1.2307   1.2319
  1.2334   1.2362   1.2384   1.2440   1.2452   1.2470   1.2481   1.2507
  1.2517   1.2545   1.2564   1.2582   1.2621   1.2626   1.2650   1.2652
  1.2700   1.2725   1.2757   1.2778   1.2801   1.2840   1.2865   1.2889
  1.2894   1.2907   1.2923   1.2934   1.2953   1.2999   1.3003   1.3012
  1.3030   1.3089   1.3094   1.3110   1.3155   1.3177   1.3195   1.3212
  1.3233   1.3263   1.3283   1.3305   1.3334   1.3365   1.3376   1.3402
  1.3439   1.3460   1.3489   1.3502   1.3517   1.3535   1.3552   1.3590
  1.3601   1.3614   1.3643   1.3663   1.3678   1.3701   1.3709   1.3731
  1.3759   1.3774   1.3784   1.3791   1.3799   1.3828   1.3854   1.3858
  1.3879   1.3908   1.3917   1.3925   1.3940   1.3949   1.3973   1.3993
  1.4014   1.4022   1.4032   1.4047   1.4073   1.4076   1.4099   1.4109
  1.4120   1.4147   1.4157   1.4171   1.4202   1.4226   1.4236   1.4250
  1.4270   1.4282   1.4308   1.4310   1.4327   1.4333   1.4356   1.4374
  1.4385   1.4391   1.4409   1.4419   1.4430   1.4459   1.4484   1.4489
  1.4496   1.4516   1.4528   1.4537   1.4554   1.4590   1.4601   1.4637
  1.4650   1.4668   1.4679   1.4705   1.4721   1.4752   1.4759   1.4766
  1.4796   1.4813   1.4824   1.4846   1.4865   1.4901   1.4933   1.4970
  1.4979   1.4992   1.5030   1.5041   1.5071   1.5082   1.5119   1.5134
  1.5148   1.5190   1.5195   1.5235   1.5274   1.5280   1.5315   1.5357
  1.5370   1.5375   1.5427   1.5457   1.5479   1.5505   1.5535   1.5593
  1.5648   1.5679   1.5712   1.5736   1.5815   1.5833   1.5903   1.5946
  1.5971   1.6006   1.6052   1.6105   1.6178   1.6240   1.6347   1.6405
  1.6433   1.6462   1.6478   1.6516   1.6537   1.6586   1.6612   1.6656
  1.6675   1.6690   1.6696   1.6714   1.6731   1.6738   1.6774   1.6782
  1.6794   1.6802   1.6819   1.6822   1.6833   1.6841   1.6857   1.6885
  1.6887   1.6909   1.6924   1.6929   1.6939   1.6970   1.6975   1.6980
  1.6991   1.6996   1.7006   1.7023   1.7049   1.7062   1.7092   1.7097
  1.7104   1.7124   1.7136   1.7151   1.7177   1.7183   1.7195   1.7196
  1.7206   1.7220   1.7228   1.7238   1.7254   1.7263   1.7279   1.7282
  1.7303   1.7314   1.7326   1.7354   1.7377   1.7391   1.7396   1.7403
  1.7415   1.7417   1.7446   1.7458   1.7473   1.7490   1.7501   1.7526
  1.7538   1.7551   1.7560   1.7593   1.7609   1.7624   1.7654   1.7677
  1.7690   1.7711   1.7731   1.7738   1.7760   1.7784   1.7798   1.7801
  1.7833   1.7844   1.7886   1.7888   1.7917   1.7942   1.7964   1.7989
  1.7995   1.8031   1.8037   1.8073   1.8116   1.8158   1.8204   1.8214
  1.8229   1.8251   1.8279   1.8290   1.8405   1.8446   1.8488   1.8512
  1.8533   1.8558   1.8576   1.8588   1.8617   1.8627   1.8645   1.8660
  1.8690   1.8727   1.8761   1.8763   1.8783   1.8789   1.8823   1.8834
  1.8848   1.8864   1.8872   1.8879   1.8900   1.8908   1.8916   1.8934
  1.8937   1.8948   1.8960   1.8971   1.8987   1.8998   1.9017   1.9017
  1.9027   1.9033   1.9051   1.9079   1.9095   1.9103   1.9112   1.9122
  1.9140   1.9154   1.9179   1.9200   1.9212   1.9231   1.9243   1.9271
  1.9284   1.9297   1.9313   1.9331   1.9339   1.9361   1.9370   1.9390
  1.9406   1.9436   1.9449   1.9469   1.9478   1.9532   1.9561   1.9600
  1.9634   1.9699   1.9721   1.9832   1.9895   1.9913   2.0046   2.0120
  2.0353   2.0408   2.0427   2.0433   2.0470   2.0483   2.0490   2.0508
  2.0556   2.0569   2.0604   2.0646   2.0654   2.0660   2.0686   2.0690
  2.0739   2.0755   2.0763   2.0774   2.0775   2.0784   2.0798   2.0830
  2.0845   2.0855   2.0858   2.0871   2.0884   2.0909   2.0925   2.0931
  2.0937   2.0951   2.0958   2.0965   2.0984   2.1016   2.1042   2.1051
  2.1077   2.1105   2.1126   2.1134   2.1157   2.1188   2.1227   2.1234
  2.1263   2.1306   2.1326   2.1336   2.1415   2.1550   2.1554   2.1630
  2.1657   2.1665   2.1696   2.1719   2.1734   2.1774   2.1799   2.1814
  2.1836   2.1872   2.1893   2.1933   2.1968   2.1972   2.2002   2.2016
  2.2065   2.2081   2.2101   2.2137   2.2139   2.2152   2.2169   2.2194
  2.2201   2.2220   2.2224   2.2229   2.2234   2.2253   2.2265   2.2298
  2.2317   2.2322   2.2327   2.2344   2.2349   2.2359   2.2365   2.2380
  2.2411   2.2416   2.2423   2.2439   2.2447   2.2470   2.2490   2.2501
  2.2521   2.2530   2.2537   2.2547   2.2571   2.2580   2.2604   2.2610
  2.2626   2.2653   2.2660   2.2670   2.2681   2.2687   2.2699   2.2710
  2.2718   2.2721   2.2735   2.2740   2.2750   2.2752   2.2756   2.2769
  2.2779   2.2791   2.2818   2.2829   2.2840   2.2847   2.2854   2.2865
  2.2871   2.2880   2.2888   2.2906   2.2914   2.2920   2.2923   2.2944
  2.2952   2.2958   2.2979   2.2981   2.2992   2.3000   2.3008   2.3030
  2.3033   2.3043   2.3067   2.3075   2.3086   2.3105   2.3115   2.3137
  2.3158   2.3169   2.3185   2.3194   2.3213   2.3218   2.3227   2.3239
  2.3253   2.3277   2.3285   2.3295   2.3306   2.3319   2.3321   2.3342
  2.3351   2.3371   2.3397   2.3402   2.3412   2.3420   2.3454   2.3475
  2.3479   2.3498   2.3509   2.3536   2.3545   2.3556   2.3587   2.3596
  2.3608   2.3619   2.3636   2.3659   2.3671   2.3686   2.3726   2.3751
  2.3766   2.3819   2.3920   2.3973   2.3985   2.4009   2.4396   2.4593
  2.4730   2.4950   2.5341   2.5428   2.5706   2.6612   2.7406   2.7484
  2.7578   2.8129   2.8157   2.8274   2.8288   2.8327   2.8356   2.8365
  2.8388   2.8410   2.8414   2.8445   2.8465   2.8466   2.8563   2.8583
  2.8597   2.8620   2.8656   2.8713   2.8722   2.8734   2.8738   2.8762
  2.8801   2.8838   2.8878   2.8893   2.8920   2.9429   3.0901   3.2598
  3.9522   3.9535   3.9588   3.9624   3.9648   3.9656   3.9671   3.9698
  3.9722   3.9799   3.9823   3.9850   3.9866   3.9883   3.9954   3.9976
  3.9982   4.0022   4.0047   4.0066   4.0086   4.0134   4.0186   4.0274
  4.2075   4.2100   4.2193   4.2206   4.2254   4.2262   4.2303   4.2321
  4.2378   4.2388   4.2460   4.2468   4.2485   4.2505   4.2542   4.2569
  4.2606   4.2632   4.2681   4.2699   4.2722   4.2749   4.2789   4.2806
  4.2825   4.2842   4.2855   4.2885   4.2924   4.2938   4.2957   4.2975
  4.3020   4.3041   4.3079   4.3096   4.3161   4.3163   4.3205   4.3218
  4.3245   4.3252   4.3300   4.3345   4.3355   4.3368   4.3410   4.3426
  4.3463   4.3488   4.3507   4.3581   4.3605   4.3636   4.3665   4.3716
  4.3772   4.3783   4.3840   4.3877   4.3926   4.4008   4.4030   4.4071
  4.4138   4.4274   4.4382   4.4460   4.4503   4.4601   4.4806   4.4982
  4.5081   4.5141   4.5329   4.5337   4.5692   4.6897   4.7182   4.7716
  4.8142
 --------------------------------------------------------------
 
          Ground-State Mulliken Net Atomic Charges

     Atom                 Charge (a.u.)
  ----------------------------------------
      1 C                    -0.238701
      2 C                    -0.399117
      3 C                    -0.373681
      4 C                    -0.464834
      5 C                    -0.366206
      6 C                    -0.351207
      7 H                     0.244672
      8 H                     0.197059
      9 H                     0.200808
     10 H                     0.213628
     11 H                     0.190963
     12 H                     0.203432
     13 H                     0.188905
     14 H                     0.184373
     15 H                     0.186580
     16 H                     0.209385
     17 H                     0.204689
     18 N                    -0.447673
     19 H                     0.500529
     20 C                     0.287132
     21 H                     0.140277
     22 O                    -0.511013
     23 C                    -0.883705
     24 H                     0.275190
     25 H                     0.241742
     26 H                     0.242633
     27 S                     1.131376
     28 C                    -1.030222
     29 H                     0.272245
     30 H                     0.262687
     31 H                     0.249274
     32 O                    -0.694626
     33 C                    -0.725421
     34 H                     0.231069
     35 H                     0.234261
     36 H                     0.269316
     37 S                     0.795888
     38 C                    -0.970746
     39 H                     0.219095
     40 H                     0.244811
     41 H                     0.312083
     42 O                    -0.631608
     43 C                    -0.880825
     44 H                     0.235158
     45 H                     0.258799
     46 H                     0.244332
     47 S                     0.967908
     48 C                    -0.808226
     49 H                     0.248182
     50 H                     0.259495
     51 H                     0.228352
     52 O                    -0.771065
     53 C                    -0.931344
     54 H                     0.282270
     55 H                     0.252899
     56 H                     0.261297
     57 S                     0.993990
     58 C                    -0.813467
     59 H                     0.244230
     60 H                     0.240652
     61 H                     0.219105
     62 O                    -0.730148
     63 C                    -0.852082
     64 H                     0.259824
     65 H                     0.233078
     66 H                     0.291614
     67 S                     0.566647
     68 C                    -0.630326
     69 H                     0.252806
     70 H                     0.273980
     71 H                     0.253679
     72 O                    -0.662434
     73 C                    -0.864378
     74 H                     0.245784
     75 H                     0.263346
     76 H                     0.247632
     77 S                     0.964373
     78 C                    -0.922825
     79 H                     0.250767
     80 H                     0.252266
     81 H                     0.286842
     82 O                    -0.640686
     83 C                    -0.850700
     84 H                     0.298981
     85 H                     0.241538
     86 H                     0.248913
     87 S                     0.810157
     88 C                    -0.790951
     89 H                     0.244386
     90 H                     0.229049
     91 H                     0.258982
     92 O                    -0.666015
     93 C                    -0.719794
     94 H                     0.281945
     95 H                     0.249762
     96 H                     0.249780
     97 S                     0.577396
     98 C                    -0.664236
     99 H                     0.299908
    100 H                     0.251900
    101 H                     0.241478
    102 O                    -0.793865
    103 C                    -0.932745
    104 H                     0.247327
    105 H                     0.223733
    106 H                     0.261494
    107 S                     0.962945
    108 C                    -0.765843
    109 H                     0.248448
    110 H                     0.264702
    111 H                     0.249933
    112 O                    -0.731647
    113 C                    -0.856355
    114 H                     0.257229
    115 H                     0.234965
    116 H                     0.244869
    117 S                     0.961038
    118 C                    -0.917166
    119 H                     0.217930
    120 H                     0.309676
    121 H                     0.249612
    122 O                    -0.710229
    123 C                    -0.834443
    124 H                     0.251310
    125 H                     0.274390
    126 H                     0.244719
    127 S                     0.752724
    128 C                    -0.746568
    129 H                     0.285875
    130 H                     0.259463
    131 H                     0.229417
    132 O                    -0.721304
    133 C                    -0.807512
    134 H                     0.247925
    135 H                     0.259508
    136 H                     0.256780
    137 S                     0.483270
    138 C                    -0.635343
    139 H                     0.273914
    140 H                     0.219877
    141 H                     0.324335
    142 O                    -0.613225
    143 C                    -0.809792
    144 H                     0.215152
    145 H                     0.260222
    146 H                     0.257624
    147 S                     0.942278
    148 C                    -0.822486
    149 H                     0.252676
    150 H                     0.240638
    151 H                     0.248441
    152 O                    -0.732786
    153 C                    -0.942639
    154 H                     0.272748
    155 H                     0.269077
    156 H                     0.251186
    157 S                     1.050837
    158 C                    -0.900631
    159 H                     0.270549
    160 H                     0.235016
    161 H                     0.243068
    162 O                    -0.766263
    163 C                    -0.831675
    164 H                     0.255083
    165 H                     0.240813
    166 H                     0.266423
    167 S                     1.065569
    168 C                    -0.937844
    169 H                     0.255656
    170 H                     0.270613
    171 H                     0.252518
    172 O                    -0.755055
    173 C                    -0.894176
    174 H                     0.264119
    175 H                     0.263987
    176 H                     0.240585
    177 S                     1.178215
    178 C                    -1.050130
    179 H                     0.305926
    180 H                     0.241358
    181 H                     0.251895
    182 O                    -0.780963
    183 C                    -0.825884
    184 H                     0.255690
    185 H                     0.218050
    186 H                     0.231523
    187 S                     1.027166
    188 C                    -1.025782
    189 H                     0.295191
    190 H                     0.257510
    191 H                     0.262786
    192 O                    -0.683592
    193 C                    -0.807888
    194 H                     0.271763
    195 H                     0.233310
    196 H                     0.230956
    197 S                     0.794645
    198 C                    -0.742865
    199 H                     0.232687
    200 H                     0.257125
    201 H                     0.232959
    202 O                    -0.646126
    203 C                    -0.758202
    204 H                     0.252625
    205 H                     0.234188
    206 H                     0.244201
    207 S                     0.899046
    208 C                    -0.915634
    209 H                     0.259146
    210 H                     0.238571
    211 H                     0.287846
    212 O                    -0.747546
    213 C                    -0.989427
    214 H                     0.281954
    215 H                     0.261292
    216 H                     0.260533
    217 S                     0.846879
    218 C                    -0.932233
    219 H                     0.249946
    220 H                     0.271764
    221 H                     0.274317
    222 O                    -0.651698
    223 C                    -0.858206
    224 H                     0.228498
    225 H                     0.252611
    226 H                     0.286968
    227 S                     0.807036
    228 C                    -0.969285
    229 H                     0.241581
    230 H                     0.217213
    231 H                     0.267743
    232 O                    -0.635598
    233 C                    -0.712800
    234 H                     0.232429
    235 H                     0.266828
    236 H                     0.271835
    237 S                     0.737763
    238 C                    -0.760384
    239 H                     0.231602
    240 H                     0.224944
    241 H                     0.263407
    242 O                    -0.735851
    243 C                    -0.690726
    244 H                     0.248000
    245 H                     0.277207
    246 H                     0.223686
    247 S                     0.597571
    248 C                    -0.785229
    249 H                     0.265189
    250 H                     0.298138
    251 H                     0.244110
    252 O                    -0.725816
    253 C                    -0.706069
    254 H                     0.259702
    255 H                     0.253585
    256 H                     0.252215
    257 S                     0.739913
    258 C                    -0.853078
    259 H                     0.281683
    260 H                     0.233812
    261 H                     0.263170
    262 O                    -0.750512
  ----------------------------------------
  Sum of atomic charges =     0.000000

 -----------------------------------------------------------------
                    Cartesian Multipole Moments
 -----------------------------------------------------------------
    Charge (ESU x 10^10)
                -0.0000
    Dipole Moment (Debye)
         X      -7.6767      Y      24.8546      Z      10.5642
       Tot      28.0764
    Quadrupole Moments (Debye-Ang)
        XX   -1257.4422     XY     400.1040     YY     770.3549
        XZ     193.0847     YZ     866.8042     ZZ    -302.0519
    Octopole Moments (Debye-Ang^2)
       XXX  -79742.4618    XXY  -22506.3669    XYY   12979.6451
       YYY    1248.5089    XXZ  -20043.5895    XYZ   20330.0846
       YYZ   23094.3831    XZZ   -6128.4079    YZZ    2037.9111
       ZZZ  -43776.1251
    Hexadecapole Moments (Debye-Ang^3)
      XXXX ************   XXXY ************   XXYY -690453.2227
      XYYY -136128.3279   YYYY ************   XXXZ ************
      XXYZ -242018.9217   XYYZ  564973.9305   YYYZ   -6365.6217
      XXZZ -765422.2954   XYZZ  135072.1881   YYZZ -160716.2828
      XZZZ -974180.8060   YZZZ ************   ZZZZ ************
 -----------------------------------------------------------------
Archival summary:
[...]
    3  -0.0069814  -0.0071899  -0.0113599   0.0085784   0.0100450  -0.0014134
           85          86          87          88          89          90
    1   0.0273563  -0.0115845   0.0297005   0.0057346  -0.0218742   0.0331565
    2  -0.0005919   0.0318680  -0.0550217   0.0104224   0.0300073  -0.0122164
    3   0.0218394   0.0116026  -0.0099285   0.0000672  -0.0016115   0.0159485
           91          92          93          94          95          96
    1   0.0085659  -0.0574486   0.0023686   0.0149208   0.0004474  -0.0242983
    2   0.0067497   0.0449223   0.0015198  -0.0282086   0.0261770  -0.0073254
    3  -0.0273021  -0.0827520   0.0049674   0.0115720   0.0209603   0.0209709
           97          98          99         100         101         102
    1   0.0044309  -0.0008350   0.0032054   0.0033544   0.0303953  -0.0742110
    2  -0.0492033   0.0093731   0.0135222   0.0288723  -0.0117877   0.0917704
    3  -0.0320381  -0.0017748  -0.0321720   0.0152404  -0.0048278  -0.0290880
          103         104         105         106         107         108
    1  -0.0015672  -0.0109999  -0.0141882   0.0091943  -0.0203632   0.0036252
    2  -0.0004015  -0.0266676   0.0264417  -0.0085921   0.0291816   0.0049271
    3  -0.0082596   0.0137908  -0.0104982  -0.0300920   0.0462706  -0.0066097
          109         110         111         112         113         114
    1   0.0124220  -0.0090544   0.0198552   0.0605284  -0.0083137  -0.0284249
    2  -0.0118844   0.0270764   0.0154515  -0.0909325   0.0013276   0.0063786
    3  -0.0273735  -0.0210444   0.0188945   0.0098667  -0.0007322   0.0188255
          115         116         117         118         119         120
    1   0.0021307  -0.0149323   0.0264077   0.0052580   0.0017688   0.0302266
    2   0.0321683  -0.0281689   0.0400229  -0.0036054   0.0246988  -0.0131869
    3  -0.0119175  -0.0110475   0.0233858  -0.0044587  -0.0222389  -0.0068753
          121         122         123         124         125         126
    1  -0.0159085  -0.0169643  -0.0064921  -0.0121989  -0.0264821   0.0048754
    2  -0.0224733  -0.1000954   0.0010053   0.0177049  -0.0174622   0.0307067
    3  -0.0124256   0.0429966   0.0044588  -0.0225991   0.0189079   0.0120798
          127         128         129         130         131         132
    1  -0.0119422   0.0038452   0.0323789  -0.0013178  -0.0115629   0.0595895
    2  -0.0473048   0.0012391   0.0023869   0.0210499  -0.0280375   0.0800449
    3  -0.0236804   0.0073120   0.0043435   0.0283876   0.0131682  -0.0453025
          133         134         135         136         137         138
    1   0.0025113  -0.0266941   0.0280856  -0.0011897  -0.0512183   0.0104347
    2   0.0010546   0.0188255   0.0094727  -0.0227440   0.0049362   0.0031615
    3  -0.0087276  -0.0015922  -0.0121364  -0.0220592   0.0290055   0.0021852
          139         140         141         142         143         144
    1   0.0263117  -0.0136602   0.0165757   0.0573025  -0.0064582  -0.0169386
    2   0.0080644   0.0276192  -0.0109078  -0.0944005   0.0028203   0.0095113
    3  -0.0185173   0.0111006   0.0243338   0.0025223   0.0007687   0.0327676
          145         146         147         148         149         150
    1   0.0179295  -0.0321237  -0.0229832   0.0073818   0.0054352  -0.0041067
    2   0.0218977   0.0069865  -0.0428931   0.0011013   0.0304468  -0.0094480
    3  -0.0059385  -0.0137661   0.0123857   0.0032238  -0.0072561   0.0322925
          151         152         153         154         155         156
    1   0.0270732   0.0192437   0.0026108   0.0269482   0.0122801  -0.0282275
    2  -0.0199216   0.0382056  -0.0019434  -0.0242552   0.0263146   0.0036804
    3  -0.0008041  -0.1021748   0.0110194   0.0015019   0.0028153   0.0167439
          157         158         159         160         161         162
    1   0.0314804  -0.0078848  -0.0135114  -0.0004788  -0.0236264  -0.0207512
    2   0.0270447  -0.0018915  -0.0164028   0.0295546   0.0042466  -0.1076897
    3  -0.0398382   0.0014197   0.0246923   0.0054361  -0.0256852   0.0028402
          163         164         165         166         167         168
    1  -0.0048570  -0.0210852  -0.0171368   0.0162616   0.0416516   0.0006700
    2  -0.0008022  -0.0217855   0.0089655  -0.0271087   0.0326726  -0.0065362
    3  -0.0025308   0.0132938  -0.0315694  -0.0098283  -0.0272242   0.0063910
          169         170         171         172         173         174
    1  -0.0075666  -0.0009372   0.0292547  -0.0785770  -0.0016584   0.0184810
    2   0.0170417  -0.0341780  -0.0036824   0.0446347  -0.0056927  -0.0244779
    3   0.0279816  -0.0081671   0.0016533   0.0635231  -0.0043013  -0.0188204
          175         176         177         178         179         180
    1  -0.0164591  -0.0086804   0.0391884   0.0063316  -0.0015043  -0.0134881
    2  -0.0172385   0.0127267   0.0267483  -0.0055520   0.0097665  -0.0291782
    3   0.0237740  -0.0311961  -0.0314573   0.0035184   0.0272691   0.0020295
          181         182         183         184         185         186
    1   0.0352935  -0.0779812   0.0017634   0.0022189  -0.0271124   0.0178622
    2   0.0012761   0.0431929   0.0038474   0.0038953   0.0206933   0.0176985
    3  -0.0069652   0.0629517  -0.0011450  -0.0317791   0.0058291   0.0160381
          187         188         189         190         191         192
    1  -0.0500134   0.0005375  -0.0225023   0.0013454   0.0184552   0.0998068
    2  -0.0283375   0.0026173   0.0113912  -0.0322602   0.0198352  -0.0392158
    3  -0.0181514   0.0113886   0.0207469   0.0153260   0.0122419  -0.0273890
          193         194         195         196         197         198
    1  -0.0065332  -0.0049805   0.0056070  -0.0302586   0.0536434  -0.0014702
    2   0.0039658   0.0036220   0.0318238  -0.0014090   0.0067097   0.0017232
    3   0.0013734   0.0296147  -0.0022284  -0.0129708   0.0305577  -0.0088972
          199         200         201         202         203         204
    1   0.0161109   0.0117173  -0.0254877  -0.0553738  -0.0011828   0.0036962
    2   0.0296145  -0.0188873  -0.0018996  -0.0926471   0.0059104   0.0284357
    3  -0.0065642  -0.0176125  -0.0235968  -0.0096879  -0.0003491   0.0212953
          205         206         207         208         209         210
    1   0.0109468  -0.0266127  -0.0265724   0.0098708   0.0170204   0.0146433
    2   0.0063811  -0.0055960  -0.0190288   0.0074918  -0.0257432   0.0098743
    3  -0.0278027  -0.0198177   0.0420307   0.0042433   0.0065857  -0.0221419
          211         212         213         214         215         216
    1  -0.0003897   0.0274721  -0.0028312   0.0074001  -0.0321701   0.0180684
    2   0.0287659  -0.0587921   0.0098190  -0.0037247   0.0084448   0.0313662
    3   0.0192595  -0.0889132  -0.0051519  -0.0343191   0.0155545  -0.0047414
          217         218         219         220         221         222
    1   0.0520358  -0.0138817   0.0007728  -0.0090926  -0.0330453  -0.0361096
    2  -0.0124797  -0.0031952  -0.0024362  -0.0280990   0.0099017   0.0212327
    3  -0.0124252  -0.0014419  -0.0347541   0.0201006   0.0063545   0.1045235
          223         224         225         226         227         228
    1  -0.0008606  -0.0174961   0.0268835   0.0085315   0.0373190  -0.0069687
    2  -0.0045560  -0.0274178  -0.0180041   0.0277590   0.0472393   0.0005577
    3   0.0099355  -0.0058799   0.0249405   0.0175916  -0.0011626   0.0007738
          229         230         231         232         233         234
    1  -0.0233990  -0.0057655  -0.0032722   0.0129917  -0.0066038  -0.0113485
    2  -0.0213008   0.0347506  -0.0101492  -0.0821256   0.0083141  -0.0048727
    3   0.0117986   0.0057902  -0.0295122  -0.0728011   0.0027372   0.0329715
          235         236         237         238         239         240
    1   0.0022807  -0.0252052   0.0027457   0.0049126  -0.0055251   0.0100261
    2   0.0330064  -0.0166840  -0.0544294   0.0037487   0.0292702  -0.0111848
    3   0.0114345  -0.0183814   0.0087815   0.0051167  -0.0080207   0.0333300
          241         242         243         244         245         246
    1   0.0226599   0.0144577  -0.0068842  -0.0020179  -0.0244896  -0.0079063
    2  -0.0021655   0.0408000   0.0024544   0.0308251  -0.0122994  -0.0135120
    3  -0.0193241  -0.1023723  -0.0012103   0.0035433  -0.0172135   0.0279654
          247         248         249         250         251         252
    1   0.0426323  -0.0000287   0.0120486   0.0171427  -0.0262789  -0.0296064
    2   0.0005339   0.0057813   0.0258660  -0.0179155   0.0199048  -0.0951405
    3   0.0391465  -0.0084216   0.0113769  -0.0243503  -0.0076445  -0.0489009
          253         254         255         256         257         258
    1  -0.0030770   0.0011633  -0.0139832  -0.0299470   0.0006281  -0.0011128
    2  -0.0074379  -0.0174874  -0.0338589   0.0074031   0.0015214   0.0075696
    3  -0.0045634  -0.0324114  -0.0009083   0.0065775   0.0555328  -0.0037359
          259         260         261         262
    1  -0.0316732  -0.0076863   0.0312932   0.0854557
    2  -0.0029066   0.0267912   0.0066725  -0.0254477
    3  -0.0106875   0.0198712  -0.0081442  -0.0631966
  --- DONE ESP SUMMARY ---
Archival summary:
1\1\n0090.mhg0\SP\ProcedureUnspecified\6-31+G*\242448h22\ymao\FriMar1203:27:182021FriMar1203:27:182021\0\\#,ProcedureUnspecified,6-31+G*,\\0,1\S\O,1,1.49643\C,1,1.80722,2,103.595\H,3,1.09242,1,108.243,2,-23.6939,0\H,3,1.09272,1,105.713,2,95.2058,0\H,3,1.09337,1,104.966,2,-149.872,0\C,1,1.80728,2,100.192,3,-98.4273,0\H,7,1.09285,1,107.694,2,30.3483,0\H,7,1.09306,1,107.224,2,-87.1925,0\H,7,1.09352,1,102.834,2,158.695,0\H,9,2.11925,7,142.239,1,-7.66298,0\C,11,1.0925,9,150.491,7,-159.956,0\H,12,1.09266,11,111.641,9,-40.6768,0\H,12,1.09336,11,111.164,9,90.2177,0\S,12,1.80699,11,102.724,9,-156.776,0\O,15,1.49608,12,106.709,11,-58.1978,0\C,15,1.80788,12,96.9796,11,48.6357,0\H,17,1.09241,15,117.117,12,-78.7595,0\H,17,1.09276,15,103.604,12,164.364,0\H,17,1.09348,15,106.569,12,46.327,0\H,5,2.13385,3,145.557,1,-162.777,0\C,21,1.0925,5,164.315,3,-22.3721,0\H,22,1.09244,21,114.039,5,55.569,0\H,22,1.09349,21,114.398,5,-73.1174,0\S,22,1.80678,21,109.935,5,168.986,0\O,25,1.49707,22,106.645,21,-89.0498,0\C,25,1.80675,22,92.355,21,167.008,0\H,27,1.09217,25,109.334,22,52.8757,0\H,27,1.09271,25,111.584,22,-65.8442,0\H,27,1.09348,25,107.23,22,173.19,0\H,24,2.34292,22,126.675,21,90.3332,0\C,31,1.0933,24,111.388,22,176.503,0\H,32,1.09251,31,106.014,24,14.5698,0\H,32,1.09296,31,113.927,24,135.237,0\S,32,1.80698,31,109.52,24,-95.2621,0\O,35,1.49737,32,103.523,31,48.7089,0\C,35,1.80671,32,101.588,31,-62.0109,0\H,37,1.09247,35,112.549,32,54.1144,0\H,37,1.09287,35,104.134,32,172.751,0\H,37,1.09333,35,103.8,32,-71.1538,0\H,38,2.1902,37,149.494,35,40.7878,0\C,41,1.09272,38,122.322,37,-156.405,0\H,42,1.09303,41,99.8644,38,-49.7577,0\H,42,1.09315,41,110.885,38,-166.847,0\S,42,1.80779,41,118.942,38,65.6584,0\O,45,1.49661,42,108.438,41,-67.4399,0\C,45,1.8066,42,97.4127,41,-172.609,0\H,47,1.09292,45,109.552,42,-49.966,0\H,47,1.09327,45,109.832,42,60.1434,0\H,47,1.09335,45,112.4,42,-173.888,0\H,50,2.17769,47,111.806,45,-85.5971,0\C,51,1.0932,50,148.926,47,-140.547,0\H,52,1.0925,51,111.846,50,54.5971,0\H,52,1.09382,51,110.967,50,174.519,0\S,52,1.80667,51,115.901,50,-69.362,0\O,55,1.49652,52,104.54,51,-68.204,0\C,55,1.80714,52,87.9826,51,-174.517,0\H,57,1.09262,55,101.709,52,68.4127,0\H,57,1.09298,55,112.039,52,-173.468,0\H,57,1.09344,55,107.904,52,-48.1722,0\Gh,33,2.24388,32,110.826,31,70.1964,0\Gh,61,1.09627,33,159.517,32,147.809,0\Gh,62,1.09653,61,113.542,33,-28.8634,0\Gh,62,1.53711,61,104.377,33,86.5582,0\Gh,64,1.09619,62,110.591,61,-69.1785,0\Gh,64,1.09729,62,113.017,61,51.0491,0\Gh,64,1.5371,62,112.462,61,175.941,0\Gh,67,1.09694,64,110.944,62,171.827,0\Gh,67,1.09699,64,107.628,62,50.7926,0\Gh,67,1.5371,64,110.971,62,-62.8993,0\Gh,70,1.09658,67,108.587,64,-61.4503,0\Gh,70,1.46239,67,113.791,64,178.112,0\Gh,72,1.01232,70,113.493,67,4.0138,0\Gh,72,1.37865,70,127.635,67,162.747,0\Gh,74,1.10474,72,111.495,70,-175.324,0\Gh,74,1.2184,72,122.006,70,16.2559,0\Gh,70,1.53768,67,108.068,64,57.3916,0\Gh,77,1.0962,70,109.559,67,72.2883,0\Gh,77,1.09743,70,113.364,67,-172.426,0\Gh,77,1.53762,70,115.098,67,-50.537,0\Gh,80,1.09604,77,107.251,70,-73.9122,0\Gh,80,1.09642,77,103.952,70,166.636,0\O,73,1.83704,72,164.433,70,-141.414,0\S,83,1.49761,73,128.895,72,-131.689,0\C,84,1.80694,83,102.571,73,-1.57329,0\H,85,1.09287,84,106.317,83,-179.532,0\H,85,1.09338,84,104.741,83,63.9008,0\H,85,1.09344,84,105.801,83,-51.1344,0\C,84,1.80717,83,108.807,73,104.329,0\H,89,1.09287,84,109.966,83,-70.8507,0\H,89,1.0929,84,106.133,83,176.816,0\H,89,1.09294,84,101.082,83,57.069,0\O,34,2.36837,32,152.77,31,-61.1666,0\S,93,1.49716,34,119.66,32,140.127,0\C,94,1.80717,93,108.052,34,19.8947,0\H,95,1.09301,94,111.133,93,-79.4643,0\H,95,1.09341,94,113.727,93,158.267,0\H,95,1.09353,94,104.313,93,39.8026,0\C,94,1.80748,93,105.431,34,-82.6898,0\H,99,1.09292,94,109.309,93,77.1942,0\H,99,1.09295,94,107.968,93,-159.578,0\H,99,1.09321,94,108.245,93,-40.5083,0\H,98,2.34871,95,131.134,94,65.6283,0\C,103,1.09201,98,126.511,95,-155.246,0\H,104,1.09286,103,103.267,98,137.912,0\H,104,1.09327,103,108.214,98,-102.278,0\S,104,1.8063,103,106.546,98,24.0356,0\O,107,1.49738,104,103.636,103,-156.781,0\C,107,1.8071,104,96.1529,103,91.3718,0\H,109,1.0927,107,96.8707,104,171.378,0\H,109,1.0932,107,112.547,104,55.5491,0\H,109,1.09389,107,119.46,104,-67.9394,0\H,111,2.19106,109,121.747,107,152.036,0\C,113,1.09354,111,147.73,109,115.228,0\H,114,1.09205,113,108.791,111,-173.912,0\H,114,1.09333,113,109.316,111,-56.9334,0\S,114,1.80696,113,108.502,111,66.2222,0\O,117,1.49701,114,99.8953,113,48.6729,0\C,117,1.80656,114,98.8936,113,-55.6899,0\H,119,1.09234,117,108.271,114,58.5,0\H,119,1.09341,117,105.459,114,-174.571,0\H,119,1.09347,117,107.55,114,-62.5255,0\O,116,2.32082,114,139.633,113,25.1094,0\S,123,1.49666,116,162.996,114,-59.998,0\C,124,1.80653,123,102.271,116,-101.671,0\H,125,1.09277,124,105.422,123,40.072,0\H,125,1.09288,124,110.876,123,-66.2417,0\H,125,1.09362,124,118.752,123,165.098,0\C,124,1.80752,123,103.072,116,163.071,0\H,129,1.09232,124,105.998,123,40.5975,0\H,129,1.09324,124,115.281,123,163.68,0\H,129,1.09337,124,103.188,123,-69.5501,0\H,127,2.31374,125,145.419,124,-156.747,0\C,133,1.09298,127,110.11,125,-85.4381,0\H,134,1.09239,133,109.275,127,-118.599,0\H,134,1.09384,133,112.379,127,15.4614,0\S,134,1.80657,133,98.1362,127,127.844,0\O,137,1.49651,134,110.763,133,79.9007,0\C,137,1.80696,134,94.0837,133,-174.927,0\H,139,1.09211,137,108.274,134,-16.4316,0\H,139,1.09271,137,109.536,134,108.495,0\H,139,1.09335,137,108.937,134,-128.566,0\H,58,2.38007,57,148.797,55,113.288,0\C,143,1.0934,58,104.596,57,-56.6101,0\H,144,1.09309,143,111.478,58,-139.914,0\H,144,1.09328,143,110.431,58,-15.9198,0\S,144,1.80772,143,109.162,58,100.119,0\O,147,1.49617,144,102.098,143,167.308,0\C,147,1.80715,144,91.5613,143,60.4303,0\H,149,1.09276,147,103.375,144,175.045,0\H,149,1.09296,147,113.033,144,53.4306,0\H,149,1.09333,147,111.909,144,-65.153,0\H,92,2.39558,89,97.7288,84,-86.4355,0\C,153,1.09268,92,115.617,89,-173.673,0\H,154,1.09327,153,104.408,92,-15.9418,0\H,154,1.09346,153,114.175,92,107.064,0\S,154,1.80724,153,105.517,92,-129.615,0\O,157,1.49742,154,103.507,153,-149.873,0\C,157,1.80727,154,97.698,153,105.017,0\H,159,1.09243,157,105.46,154,-176.816,0\H,159,1.0932,157,108.236,154,-55.5451,0\H,159,1.09342,157,108.879,154,73.956,0\H,56,2.40873,55,101.399,52,-171.53,0\C,163,1.09296,56,148.29,55,24.3807,0\H,164,1.09232,163,106.784,56,82.7523,0\H,164,1.09297,163,111.138,56,-38.4791,0\S,164,1.80744,163,109.02,56,-151.866,0\O,167,1.49747,164,109.519,163,-162.99,0\C,167,1.80703,164,94.6629,163,-55.3302,0\H,169,1.09273,167,108.908,164,177.752,0\H,169,1.09286,167,111.285,164,62.6865,0\H,169,1.09334,167,106.38,164,-57.4466,0\H,13,2.45934,12,139.073,11,127.787,0\C,173,1.09289,13,141.982,12,5.81518,0\H,174,1.09241,173,110.835,13,-177.349,0\H,174,1.09295,173,101.933,13,-57.6012,0\S,174,1.80717,173,106.975,13,64.6754,0\O,177,1.4971,174,100.247,173,-15.0662,0\C,177,1.80738,174,96.2675,173,-119.636,0\H,179,1.09295,177,104.294,174,-171.709,0\H,179,1.0932,177,116.173,174,-42.92,0\H,179,1.09396,177,96.8098,174,71.6443,0\H,180,2.27333,179,113.202,177,-69.3895,0\C,183,1.09268,180,124.695,179,-145.61,0\H,184,1.09202,183,111.834,180,-69.3009,0\H,184,1.0926,183,112.593,180,56.5427,0\S,184,1.80757,183,110.833,180,175.426,0\O,187,1.4966,184,100.375,183,-150.869,0\C,187,1.80717,184,99.7573,183,-39.295,0\H,189,1.09232,187,116.851,184,-140.533,0\H,189,1.09264,187,107.072,184,-26.2709,0\H,189,1.09353,187,108.903,184,96.8914,0\H,180,2.38233,179,133.185,177,72.0286,0\C,193,1.09311,180,114.199,179,146.375,0\H,194,1.09287,193,107.098,180,69.2364,0\H,194,1.09298,193,107.435,180,-171.121,0\S,194,1.80672,193,115.985,180,-48.3773,0\O,197,1.49683,194,107.977,193,45.5928,0\C,197,1.80681,194,93.6814,193,-50.2114,0\H,199,1.09268,197,113.153,194,63.0675,0\H,199,1.09277,197,106.456,194,-67.2403,0\H,199,1.09291,197,99.3403,194,177.232,0\H,110,2.46346,109,115.498,107,-80.19,0\C,203,1.09253,110,136.898,109,-43.1524,0\H,204,1.09295,203,108.41,110,39.2209,0\H,204,1.09382,203,107.053,110,150.894,0\S,204,1.80738,203,112.809,110,-82.7743,0\O,207,1.497,204,105.205,203,-53.3354,0\C,207,1.80761,204,95.0611,203,-158.881,0\H,209,1.09254,207,112.674,204,42.5458,0\H,209,1.09302,207,104.931,204,-75.9078,0\H,209,1.09315,207,109.73,204,163.661,0\O,68,2.48818,67,140.922,64,31.6643,0\S,213,1.49726,68,136.383,67,31.3427,0\C,214,1.80674,213,102.762,68,178.005,0\H,215,1.09251,214,114.762,213,34.1196,0\H,215,1.09306,214,104.723,213,-78.3876,0\H,215,1.09318,214,109.394,213,161.235,0\C,214,1.80738,213,101.389,68,76.8542,0\H,219,1.09229,214,109.758,213,150.67,0\H,219,1.09263,214,111.087,213,35.7629,0\H,219,1.09357,214,109.712,213,-87.4533,0\H,217,2.24154,215,114.179,214,149.164,0\C,223,1.09308,217,167.512,215,-45.8133,0\H,224,1.09278,223,106.231,217,-125.725,0\H,224,1.09308,223,112.929,217,115.088,0\S,224,1.80744,223,113.652,217,-5.41234,0\O,227,1.49685,224,96.1264,223,67.7379,0\C,227,1.80768,224,100.52,223,-41.9944,0\H,229,1.09289,227,116.701,224,156.408,0\H,229,1.0929,227,105.195,224,-79.7879,0\H,229,1.09372,227,107.797,224,44.8767,0\H,216,2.42387,215,146.859,214,53.1389,0\C,233,1.09204,216,116.464,215,-75.1396,0\H,234,1.09233,233,105.049,216,-102.455,0\H,234,1.09373,233,116.427,216,23.6392,0\S,234,1.80702,233,104.969,216,142.674,0\O,237,1.49686,234,106.689,233,-47.6505,0\C,237,1.80792,234,94.6838,233,-148.587,0\H,239,1.09286,237,106.828,234,176.194,0\H,239,1.09286,237,110.542,234,-67.24,0\H,239,1.09301,237,105.463,234,49.7131,0\O,166,2.51821,164,151.293,163,-24.555,0\S,243,1.49725,166,100.307,164,-100.421,0\C,244,1.80709,243,117.899,166,-54.0517,0\H,245,1.09297,244,107.558,243,-162.652,0\H,245,1.09316,244,107.741,243,-42.4329,0\H,245,1.09358,244,118.088,243,78.0496,0\C,244,1.80733,243,92.5526,166,-157.722,0\H,249,1.09266,244,122.427,243,-179.471,0\H,249,1.09276,244,103.135,243,-49.9616,0\H,249,1.09287,244,105.755,243,66.227,0\H,208,2.6811,207,122.753,204,129.215,0\C,253,1.09298,208,119.78,207,125.3,0\H,254,1.09317,253,113.622,208,24.7643,0\H,254,1.09322,253,113.686,208,149.842,0\S,254,1.80679,253,107.963,208,-87.3899,0\O,257,1.49704,254,101.964,253,161.685,0\C,257,1.80727,254,99.2548,253,56.7255,0\H,259,1.09229,257,110.832,254,167.882,0\H,259,1.09251,257,103.403,254,47.9059,0\H,259,1.09304,257,111.681,254,-72.4473,0\\\@

 Total job time:  51.84s(wall), 183.35s(cpu) 
 Fri Mar 12 03:27:18 2021

        *************************************************************
        *                                                           *
        *  Thank you very much for using Q-Chem.  Have a nice day.  *
        *                                                           *
        *************************************************************


