                  Welcome to Q-Chem
     A Quantum Leap Into The Future Of Chemistry


 Q-Chem 5.2 (devel), Q-Chem, Inc., Pleasanton, CA (2019)

 Yihan Shao,  Zhengting Gan,  E. Epifanovsky,  A. T. B. Gilbert,  M. Wormit,  
 J. Kussmann,  A. W. Lange,  A. Behn,  Jia Deng,  Xintian Feng,  D. Ghosh,  
 M. Goldey,  P. R. Horn,  L. D. Jacobson,  I. Kaliman,  T. Kus,  A. Landau,  
 Jie Liu,  E. I. Proynov,  R. M. Richard,  R. P. Steele,  E. J. Sundstrom,  
 H. L. Woodcock III,  P. M. Zimmerman,  D. Zuev,  B. Alam,  B. Albrecht,  
 E. Alguire,  S. A. Baeppler,  D. Barton,  Z. Benda,  Y. A. Bernard,  
 E. J. Berquist,  K. B. Bravaya,  H. Burton,  K. Carter-Fenk,  D. Casanova,  
 Chun-Min Chang,  Yunqing Chen,  A. Chien,  K. D. Closser,  M. P. Coons,  
 S. Coriani,  S. Dasgupta,  A. L. Dempwolff,  M. Diedenhofen,  Hainam Do,  
 R. G. Edgar,  Po-Tung Fang,  S. Faraji,  S. Fatehi,  Qingguo Feng,  
 J. Fosso-Tande,  J. Gayvert,  Qinghui Ge,  A. Ghysels,  G. Gidofalvi,  
 J. Gomes,  J. Gonthier,  A. Gunina,  D. Hait,  M. W. D. Hanson-Heine,  
 P. H. P. Harbach,  A. W. Hauser,  M. F. Herbst,  J. E. Herr,  
 E. G. Hohenstein,  Z. C. Holden,  Kerwin Hui,  B. C. Huynh,  T.-C. Jagau,  
 Hyunjun Ji,  B. Kaduk,  K. Khistyaev,  Jaehoon Kim,  P. Klunzinger,  K. Koh,  
 D. Kosenkov,  L. Koulias,  T. Kowalczyk,  C. M. Krauter,  A. Kunitsa,  
 Ka Un Lao,  A. Laurent,  K. V. Lawler,  Joonho Lee,  D. Lefrancois,  
 S. Lehtola,  D. S. Levine,  Yi-Pei Li,  You-Sheng Lin,  Fenglai Liu,  
 Kuan-Yu Liu,  E. Livshits,  M. Loipersberger,  A. Luenser,  P. Manohar,  
 E. Mansoor,  S. F. Manzer,  Shan-Ping Mao,  Yuezhi Mao,  N. Mardirossian,  
 A. V. Marenich,  T. Markovich,  L. A. Martinez-Martinez,  S. A. Maurer,  
 N. J. Mayhall,  S. C. McKenzie,  J.-M. Mewes,  P. Morgante,  A. F. Morrison,  
 J. W. Mullinax,  K. Nanda,  T. S. Nguyen-Beck,  R. Olivares-Amaya,  
 J. A. Parkhill,  S. K. Paul,  F. Pavosevic,  Zheng Pei,  T. M. Perrine,  
 F. Plasser,  P. Pokhilko,  S. Prager,  A. Prociuk,  E. Ramos,  B. Rana,  
 D. R. Rehn,  F. Rob,  M. Scheurer,  M. Schneider,  N. Sergueev,  
 S. M. Sharada,  S. Sharma,  D. W. Small,  T. Stauch,  C. J. Stein,  
 T. Stein,  Yu-Chuan Su,  S. P. Veccham,  Zhen Tao,  A. J. W. Thom,  
 A. Tkatchenko,  T. Tsuchimochi,  N. M. Tubman,  L. Vogt,  M. L. Vidal,  
 O. Vydrov,  M. A. Watson,  J. Wenzel,  M. de Wergifosse,  T. A. Wesolowski,  
 A. White,  J. Witte,  A. Yamada,  Jun Yang,  K. Yao,  S. Yeganeh,  
 S. R. Yost,  Zhi-Qiang You,  A. Zech,  Igor Ying Zhang,  Xing Zhang,  
 Yan Zhao,  Ying Zhu,  B. R. Brooks,  G. K. L. Chan,  C. J. Cramer,  
 M. S. Gordon,  W. J. Hehre,  A. Klamt,  M. W. Schmidt,  C. D. Sherrill,  
 D. G. Truhlar,  A. Aspuru-Guzik,  R. Baer,  A. T. Bell,  N. A. Besley,  
 Jeng-Da Chai,  A. E. DePrince, III,  R. A. DiStasio Jr.,  A. Dreuw,  
 B. D. Dunietz,  T. R. Furlani,  Chao-Ping Hsu,  Yousung Jung,  Jing Kong,  
 D. S. Lambrecht,  WanZhen Liang,  C. Ochsenfeld,  V. A. Rassolov,  
 L. V. Slipchenko,  J. E. Subotnik,  T. Van Voorhis,  J. M. Herbert,  
 A. I. Krylov,  P. M. W. Gill,  M. Head-Gordon

 Contributors to earlier versions of Q-Chem not listed above: 
 R. D. Adamson,  B. Austin,  J. Baker,  G. J. O. Beran,  K. Brandhorst,  
 S. T. Brown,  E. F. C. Byrd,  A. K. Chakraborty,  C.-L. Cheng,  
 Siu Hung Chien,  D. M. Chipman,  D. L. Crittenden,  H. Dachsel,  
 R. J. Doerksen,  A. D. Dutoi,  L. Fusti-Molnar,  W. A. Goddard III,  
 A. Golubeva-Zadorozhnaya,  S. R. Gwaltney,  G. Hawkins,  A. Heyden,  
 S. Hirata,  G. Kedziora,  F. J. Keil,  C. Kelley,  Jihan Kim,  R. A. King,  
 R. Z. Khaliullin,  P. P. Korambath,  W. Kurlancheek,  A. M. Lee,  M. S. Lee,  
 S. V. Levchenko,  Ching Yeh Lin,  D. Liotard,  R. C. Lochan,  I. Lotan,  
 P. E. Maslen,  N. Nair,  D. P. O'Neill,  D. Neuhauser,  E. Neuscamman,  
 C. M. Oana,  R. Olson,  B. Peters,  R. Peverati,  P. A. Pieniazek,  
 Y. M. Rhee,  J. Ritchie,  M. A. Rohrdanz,  E. Rosta,  N. J. Russ,  
 H. F. Schaefer III,  N. E. Schultz,  N. Shenvi,  A. C. Simmonett,  A. Sodt,  
 D. Stuck,  K. S. Thanthiriwatte,  V. Vanovschi,  Tao Wang,  A. Warshel,  
 C. F. Williams,  Q. Wu,  X. Xu,  W. Zhang

 Please cite Q-Chem as follows:
 Y. Shao et al., Mol. Phys. 113, 184-215 (2015)
 DOI: 10.1080/00268976.2014.952696

 Q-Chem 5.2.2 for Intel X86 EM64T Linux

 Parts of Q-Chem use Armadillo 9.800.1 (Horizon Scraper).
 http://arma.sourceforge.net/

 Q-Chem begins on Thu Mar 11 13:37:32 2021  

Host: n0071.mhg0
0

     Scratch files written to /local/scratch/users/ymao/r7.00_frame_0082_almo_B3LYP_dp.in20210311133730//

Checking the input file for inconsistencies... 	...done.

--------------------------------------------------------------
User input:
--------------------------------------------------------------
$molecule
0 1
--
0 1
C    29.96600   28.27800   26.54100  
C    29.13900   28.37400   27.83400  
C    28.80300   26.96500   28.34900  
C    30.06000   26.09500   28.51700  
C    30.95900   26.08100   27.27000  
C    31.27300   27.49500   26.75200  
H    28.24900   26.98700   29.29600  
H    29.76600   28.87700   28.58000  
H    29.48200   27.76300   25.70300  
H    30.19500   29.32300   26.30100  
H    30.63700   26.45900   29.37600  
H    29.79500   25.05900   28.76100  
H    31.86400   25.50200   27.49200  
H    30.47100   25.56800   26.43300  
H    31.89000   27.95400   27.53300  
H    31.85400   27.46600   25.82300  
H    28.11600   26.56400   27.59400  
N    27.91900   29.16900   27.70700  
H    27.25600   28.94900   26.97300  
C    27.58000   30.16700   28.59500  
H    26.58400   30.58000   28.35400  
O    28.36000   30.48400   29.47600  
--
0 1
C    23.80200   31.26800   23.80000  
H    23.34200   32.21000   24.11000  
H    23.13400   30.69500   23.15100  
H    24.05600   30.64900   24.66400  
S    25.26000   31.50400   22.75900  
C    26.34800   32.13700   24.05600  
H    27.07600   32.89900   23.76500  
H    25.79500   32.50600   24.92300  
H    26.92700   31.29100   24.43600  
O    24.89600   32.69200   21.92400  
C    33.30000   31.12400   26.77400  
H    32.29100   30.96500   26.38600  
H    33.82200   31.75500   26.05000  
H    33.76500   30.13500   26.78600  
S    33.47700   32.01500   28.33600  
C    32.19100   31.02200   29.12800  
H    31.19300   31.15700   28.70200  
H    32.51300   29.98200   29.03200  
H    32.23700   31.32100   30.17800  
O    32.83800   33.36400   28.22200  
C    25.45000   25.36500   33.61600  
H    24.50400   25.33900   34.16200  
H    25.43500   24.60000   32.83500  
H    26.30700   25.32700   34.29300  
S    25.58100   26.89700   32.66700  
C    27.27600   26.56800   32.13400  
H    27.31500   25.56300   31.70500  
H    27.69100   27.35500   31.49900  
H    27.88100   26.68800   33.03600  
O    25.77900   28.01700   33.64100  
C    30.62900   36.31700   25.10800  
H    30.80600   35.83500   24.14300  
H    30.22000   37.31300   24.92500  
H    31.51600   36.34400   25.74700  
S    29.38200   35.26900   25.89000  
C    30.59600   33.93200   25.88600  
H    31.53200   34.17400   26.39600  
H    30.23100   33.08300   26.47000  
H    30.81600   33.61400   24.86400  
O    28.41400   34.84400   24.83000  
C    29.63300   29.68600   23.22300  
H    30.58600   30.04400   23.62000  
H    29.28800   30.57300   22.68500  
H    28.87100   29.36700   23.93900  
S    29.98900   28.34200   22.06900  
C    28.32300   28.32800   21.37100  
H    28.08500   27.29100   21.12200  
H    27.56700   28.89800   21.91800  
H    28.36800   28.87800   20.42800  
O    30.08100   27.15400   22.97600  
C    35.91400   22.04000   30.67600  
H    36.81200   22.15600   30.06300  
H    36.15900   22.18500   31.73100  
H    35.52500   21.02900   30.53400  
S    34.62200   23.16900   30.11000  
C    33.20800   22.39800   30.93000  
H    32.91500   22.92800   31.83900  
H    32.42500   22.49200   30.17400  
H    33.36700   21.35400   31.21400  
O    34.48400   22.57500   28.74300  
C    30.29600   34.14100   30.43800  
H    30.29300   33.12600   30.03100  
H    29.59500   34.16900   31.27700  
H    30.16700   34.95000   29.71500  
S    31.89800   34.47700   31.20200  
C    31.76600   33.28900   32.55700  
H    32.72600   33.17700   33.06800  
H    30.96400   33.68400   33.18500  
H    31.38600   32.33600   32.17900  
O    31.73300   35.87100   31.72200  
C    28.57100   21.47100   32.92100  
H    29.11000   20.74900   32.30400  
H    28.28800   21.02800   33.88000  
H    27.72300   21.92400   32.40100  
S    29.64700   22.89300   33.21500  
C    29.71500   23.31600   31.46000  
H    30.15000   22.45500   30.94600  
H    28.76600   23.53800   30.96600  
H    30.40600   24.13500   31.24300  
O    30.97600   22.23100   33.40800  
C    27.06800   23.10000   27.53400  
H    27.97000   22.98300   28.14100  
H    26.60500   22.13300   27.32000  
H    27.16700   23.69200   26.62100  
S    25.79800   23.90000   28.54000  
C    24.49300   24.03700   27.29900  
H    23.62400   24.63500   27.58800  
H    24.89700   24.61700   26.46500  
H    24.27100   23.03600   26.92100  
O    26.24000   25.32300   28.67900  
C    30.09200   22.99300   22.08500  
H    31.12700   22.64500   22.12900  
H    29.75300   23.00800   21.04600  
H    30.01600   24.01200   22.47500  
S    29.02000   21.90500   23.04900  
C    28.76500   23.07300   24.40500  
H    29.69600   23.52400   24.75400  
H    28.09400   23.86400   24.06100  
H    28.29400   22.42200   25.14600  
O    30.09500   21.08000   23.68500  
C    37.89200   24.87000   29.11800  
H    37.13700   25.61800   29.37300  
H    37.98400   24.06200   29.84800  
H    38.86600   25.35600   29.01800  
S    37.57300   24.44500   27.39100  
C    38.85300   23.18500   27.19800  
H    39.26600   23.25700   26.18900  
H    39.58300   23.36900   27.99000  
H    38.29300   22.25000   27.28800  
O    38.07700   25.62200   26.61500  
C    31.13600   22.29600   27.65600  
H    31.45000   22.81200   28.56600  
H    31.95000   22.23600   26.92900  
H    30.18400   22.67700   27.27600  
S    30.77500   20.57200   28.06300  
C    29.80100   20.15100   26.60100  
H    29.19600   19.28800   26.89300  
H    29.27500   21.03600   26.23500  
H    30.51700   19.79700   25.85500  
O    29.76500   20.80000   29.14300  
C    33.59000   24.63400   33.83300  
H    32.84900   23.85600   34.03500  
H    34.30100   24.36700   33.04700  
H    34.17600   24.96000   34.69500  
S    32.59400   26.01600   33.23100  
C    33.61400   27.39000   33.81100  
H    34.14300   27.10000   34.72200  
H    34.33900   27.53400   33.00600  
H    32.98900   28.27500   33.96100  
O    31.51600   26.03800   34.27000  
C    38.77700   30.62000   25.88800  
H    39.48000   30.66900   25.05200  
H    39.22900   31.26300   26.64700  
H    38.64700   29.58100   26.20200  
S    37.27200   31.46000   25.34400  
C    36.79900   31.91300   27.02900  
H    37.61500   32.56300   27.35500  
H    35.93000   32.57500   27.00600  
H    36.80100   31.00400   27.63700  
O    36.28700   30.37200   25.05100  
C    19.39300   30.97100   30.33300  
H    19.59400   31.33500   31.34300  
H    18.34800   30.68500   30.18900  
H    20.10600   30.17000   30.12200  
S    19.74700   32.29600   29.15700  
C    21.52500   32.41200   29.46000  
H    21.62200   33.46100   29.75000  
H    21.87700   31.74400   30.25000  
H    21.98000   32.13200   28.50600  
O    19.18200   33.55200   29.74400  
C    24.55600   27.04300   24.93300  
H    23.70900   27.65900   24.62000  
H    24.51000   26.08100   24.41600  
H    24.59200   26.89300   26.01500  
S    25.91600   28.08700   24.36100  
C    27.18500   26.81800   24.57300  
H    27.29000   26.72000   25.65700  
H    26.79200   25.89700   24.13600  
H    28.14700   27.11000   24.14400  
O    26.27500   29.00000   25.49200  
C    34.12800   28.45400   23.49900  
H    35.13100   28.09000   23.73700  
H    34.12600   29.53900   23.63100  
H    33.26500   28.00800   23.99800  
S    34.04300   28.17600   21.71500  
C    34.06000   26.36900   21.73400  
H    34.79600   26.18200   22.52000  
H    33.12500   25.90500   22.06100  
H    34.39100   25.97900   20.76800  
O    35.43100   28.51000   21.26600  
C    24.34100   33.11200   32.34200  
H    23.79300   32.41000   31.70900  
H    23.66500   33.65800   33.00500  
H    24.85800   33.76100   31.63000  
S    25.66900   32.41000   33.34600  
C    25.96500   31.09800   32.13900  
H    26.39400   30.22800   32.64100  
H    24.97700   30.84700   31.74300  
H    26.57900   31.62700   31.40500  
O    24.92600   31.87700   34.53200  
C    34.54200   22.32500   24.98300  
H    33.80300   21.71300   25.50700  
H    34.44600   22.13800   23.91000  
H    35.54300   22.22400   25.40900  
S    34.16700   24.04900   25.37100  
C    32.64800   24.06000   24.39200  
H    32.93500   23.78600   23.37400  
H    31.82000   23.46000   24.77800  
H    32.40700   25.12400   24.46300  
O    35.04100   24.92700   24.53000  
C    24.83500   28.42300   29.34900  
H    25.49800   27.98900   28.59600  
H    25.12800   29.33800   29.87100  
H    24.69500   27.63600   30.09400  
S    23.24300   28.63500   28.52200  
C    23.72700   30.02200   27.47000  
H    24.20300   30.84900   28.00300  
H    24.34600   29.70500   26.62700  
H    22.75000   30.31700   27.07900  
O    22.29500   29.31700   29.45800  
C    34.73000   31.92700   22.34800  
H    34.98900   32.07200   23.40000  
H    34.97300   30.91700   22.00800  
H    35.36600   32.58100   21.74600  
S    33.06500   32.32300   21.76900  
C    32.82100   33.78000   22.81000  
H    33.40700   34.57000   22.33300  
H    31.78500   34.12700   22.79600  
H    33.28900   33.70300   23.79500  
O    32.19800   31.32300   22.46900  
C    26.18600   34.08800   27.29000  
H    26.16500   34.54700   26.29900  
H    26.48400   34.88700   27.97300  
H    26.88200   33.24500   27.28600  
S    24.47800   33.59500   27.61500  
C    23.94500   35.29700   27.91000  
H    24.07600   35.90800   27.01400  
H    22.88300   35.31900   28.16900  
H    24.56800   35.85700   28.61100  
O    24.65300   33.02100   28.98700  
C    20.48400   29.37400   26.00700  
H    19.94200   28.71400   25.32500  
H    21.55500   29.37400   25.78800  
H    20.30100   29.13500   27.05800  
S    19.87900   31.07400   25.91000  
C    19.86600   31.20100   24.10800  
H    20.70700   30.63200   23.70300  
H    19.02000   30.75400   23.57900  
H    19.84000   32.27600   23.90900  
O    21.08700   31.89200   26.24400  
C    23.97000   20.38400   25.82600  
H    24.61900   20.42600   26.70400  
H    23.12100   21.03200   26.05800  
H    23.57100   19.39800   25.57300  
S    24.94200   21.02800   24.44500  
C    26.25800   19.86800   24.87800  
H    26.39400   20.02500   25.95100  
H    25.90400   18.87100   24.60600  
H    27.21200   20.14100   24.41900  
O    25.38100   22.40900   24.82000  
C    23.09100   25.39900   30.61200  
H    22.76500   26.19800   31.28300  
H    24.17900   25.35100   30.52100  
H    22.71200   25.59500   29.60600  
S    22.40700   23.83400   31.20200  
C    20.90200   24.57900   31.86700  
H    21.20800   25.31800   32.61200  
H    20.32400   25.11200   31.10700  
H    20.32900   23.70300   32.18200  
O    23.24300   23.44300   32.38000  
C    29.09200   31.60300   34.21100  
H    29.15700   32.47900   33.56000  
H    28.07000   31.55000   34.59600  
H    29.81100   31.63500   35.03400  
S    29.43800   30.13700   33.21300  
C    29.17800   28.91600   34.51900  
H    29.65600   27.96800   34.25900  
H    29.48600   29.38800   35.45600  
H    28.10000   28.74200   34.56600  
O    30.92000   30.01600   33.03700  
C    35.20600   27.48400   26.74500  
H    35.60100   28.25500   26.07800  
H    35.64000   26.52100   26.46400  
H    34.13400   27.40400   26.54400  
S    35.65600   27.78300   28.46900  
C    34.46300   26.60700   29.14600  
H    34.38200   26.86600   30.20500  
H    33.47100   26.71800   28.70100  
H    34.90200   25.65900   28.82600  
O    35.05700   29.11900   28.78600  
$end

$rem
JOBTYPE  SP
METHOD  B3LYP
BASIS  6-31+G(D)
SYMMETRY  FALSE
SYM_IGNORE  TRUE
MEM_TOTAL  16000
MEM_STATIC  8000
MAX_SUB_FILE_NUM  16000
BASIS_LIN_DEP_THRESH  6
THRESH  14
SCF_CONVERGENCE  8
GEN_SCFMAN  TRUE
SCF_GUESS  FRAGMO
FD_MAT_VEC_PROD  FALSE
XC_GRID  000075000302
NL_GRID  1
MAX_SCF_CYCLES  200
FRGM_METHOD  STOLL
SCFMI_MODE  1
$end

$development
almo_efield  1
$end

$rem_frgm
SCF_CONVERGENCE  4
$end

--------------------------------------------------------------
 ----------------------------------------------------------------
             Standard Nuclear Orientation (Angstroms)
    I     Atom           X                Y                Z
 ----------------------------------------------------------------
    1      C      29.9660000000    28.2780000000    26.5410000000
    2      C      29.1390000000    28.3740000000    27.8340000000
    3      C      28.8030000000    26.9650000000    28.3490000000
    4      C      30.0600000000    26.0950000000    28.5170000000
    5      C      30.9590000000    26.0810000000    27.2700000000
    6      C      31.2730000000    27.4950000000    26.7520000000
    7      H      28.2490000000    26.9870000000    29.2960000000
    8      H      29.7660000000    28.8770000000    28.5800000000
    9      H      29.4820000000    27.7630000000    25.7030000000
   10      H      30.1950000000    29.3230000000    26.3010000000
   11      H      30.6370000000    26.4590000000    29.3760000000
   12      H      29.7950000000    25.0590000000    28.7610000000
   13      H      31.8640000000    25.5020000000    27.4920000000
   14      H      30.4710000000    25.5680000000    26.4330000000
   15      H      31.8900000000    27.9540000000    27.5330000000
   16      H      31.8540000000    27.4660000000    25.8230000000
   17      H      28.1160000000    26.5640000000    27.5940000000
   18      N      27.9190000000    29.1690000000    27.7070000000
   19      H      27.2560000000    28.9490000000    26.9730000000
   20      C      27.5800000000    30.1670000000    28.5950000000
   21      H      26.5840000000    30.5800000000    28.3540000000
   22      O      28.3600000000    30.4840000000    29.4760000000
   23      C      23.8020000000    31.2680000000    23.8000000000
   24      H      23.3420000000    32.2100000000    24.1100000000
   25      H      23.1340000000    30.6950000000    23.1510000000
   26      H      24.0560000000    30.6490000000    24.6640000000
   27      S      25.2600000000    31.5040000000    22.7590000000
   28      C      26.3480000000    32.1370000000    24.0560000000
   29      H      27.0760000000    32.8990000000    23.7650000000
   30      H      25.7950000000    32.5060000000    24.9230000000
   31      H      26.9270000000    31.2910000000    24.4360000000
   32      O      24.8960000000    32.6920000000    21.9240000000
   33      C      33.3000000000    31.1240000000    26.7740000000
   34      H      32.2910000000    30.9650000000    26.3860000000
   35      H      33.8220000000    31.7550000000    26.0500000000
   36      H      33.7650000000    30.1350000000    26.7860000000
   37      S      33.4770000000    32.0150000000    28.3360000000
   38      C      32.1910000000    31.0220000000    29.1280000000
   39      H      31.1930000000    31.1570000000    28.7020000000
   40      H      32.5130000000    29.9820000000    29.0320000000
   41      H      32.2370000000    31.3210000000    30.1780000000
   42      O      32.8380000000    33.3640000000    28.2220000000
   43      C      25.4500000000    25.3650000000    33.6160000000
   44      H      24.5040000000    25.3390000000    34.1620000000
   45      H      25.4350000000    24.6000000000    32.8350000000
   46      H      26.3070000000    25.3270000000    34.2930000000
   47      S      25.5810000000    26.8970000000    32.6670000000
   48      C      27.2760000000    26.5680000000    32.1340000000
   49      H      27.3150000000    25.5630000000    31.7050000000
   50      H      27.6910000000    27.3550000000    31.4990000000
   51      H      27.8810000000    26.6880000000    33.0360000000
   52      O      25.7790000000    28.0170000000    33.6410000000
   53      C      30.6290000000    36.3170000000    25.1080000000
   54      H      30.8060000000    35.8350000000    24.1430000000
   55      H      30.2200000000    37.3130000000    24.9250000000
   56      H      31.5160000000    36.3440000000    25.7470000000
   57      S      29.3820000000    35.2690000000    25.8900000000
   58      C      30.5960000000    33.9320000000    25.8860000000
   59      H      31.5320000000    34.1740000000    26.3960000000
   60      H      30.2310000000    33.0830000000    26.4700000000
   61      H      30.8160000000    33.6140000000    24.8640000000
   62      O      28.4140000000    34.8440000000    24.8300000000
   63      C      29.6330000000    29.6860000000    23.2230000000
   64      H      30.5860000000    30.0440000000    23.6200000000
   65      H      29.2880000000    30.5730000000    22.6850000000
   66      H      28.8710000000    29.3670000000    23.9390000000
   67      S      29.9890000000    28.3420000000    22.0690000000
   68      C      28.3230000000    28.3280000000    21.3710000000
   69      H      28.0850000000    27.2910000000    21.1220000000
   70      H      27.5670000000    28.8980000000    21.9180000000
   71      H      28.3680000000    28.8780000000    20.4280000000
   72      O      30.0810000000    27.1540000000    22.9760000000
   73      C      35.9140000000    22.0400000000    30.6760000000
   74      H      36.8120000000    22.1560000000    30.0630000000
   75      H      36.1590000000    22.1850000000    31.7310000000
   76      H      35.5250000000    21.0290000000    30.5340000000
   77      S      34.6220000000    23.1690000000    30.1100000000
   78      C      33.2080000000    22.3980000000    30.9300000000
   79      H      32.9150000000    22.9280000000    31.8390000000
   80      H      32.4250000000    22.4920000000    30.1740000000
   81      H      33.3670000000    21.3540000000    31.2140000000
   82      O      34.4840000000    22.5750000000    28.7430000000
   83      C      30.2960000000    34.1410000000    30.4380000000
   84      H      30.2930000000    33.1260000000    30.0310000000
   85      H      29.5950000000    34.1690000000    31.2770000000
   86      H      30.1670000000    34.9500000000    29.7150000000
   87      S      31.8980000000    34.4770000000    31.2020000000
   88      C      31.7660000000    33.2890000000    32.5570000000
   89      H      32.7260000000    33.1770000000    33.0680000000
   90      H      30.9640000000    33.6840000000    33.1850000000
   91      H      31.3860000000    32.3360000000    32.1790000000
   92      O      31.7330000000    35.8710000000    31.7220000000
   93      C      28.5710000000    21.4710000000    32.9210000000
   94      H      29.1100000000    20.7490000000    32.3040000000
   95      H      28.2880000000    21.0280000000    33.8800000000
   96      H      27.7230000000    21.9240000000    32.4010000000
   97      S      29.6470000000    22.8930000000    33.2150000000
   98      C      29.7150000000    23.3160000000    31.4600000000
   99      H      30.1500000000    22.4550000000    30.9460000000
  100      H      28.7660000000    23.5380000000    30.9660000000
  101      H      30.4060000000    24.1350000000    31.2430000000
  102      O      30.9760000000    22.2310000000    33.4080000000
  103      C      27.0680000000    23.1000000000    27.5340000000
  104      H      27.9700000000    22.9830000000    28.1410000000
  105      H      26.6050000000    22.1330000000    27.3200000000
  106      H      27.1670000000    23.6920000000    26.6210000000
  107      S      25.7980000000    23.9000000000    28.5400000000
  108      C      24.4930000000    24.0370000000    27.2990000000
  109      H      23.6240000000    24.6350000000    27.5880000000
  110      H      24.8970000000    24.6170000000    26.4650000000
  111      H      24.2710000000    23.0360000000    26.9210000000
  112      O      26.2400000000    25.3230000000    28.6790000000
  113      C      30.0920000000    22.9930000000    22.0850000000
  114      H      31.1270000000    22.6450000000    22.1290000000
  115      H      29.7530000000    23.0080000000    21.0460000000
  116      H      30.0160000000    24.0120000000    22.4750000000
  117      S      29.0200000000    21.9050000000    23.0490000000
  118      C      28.7650000000    23.0730000000    24.4050000000
  119      H      29.6960000000    23.5240000000    24.7540000000
  120      H      28.0940000000    23.8640000000    24.0610000000
  121      H      28.2940000000    22.4220000000    25.1460000000
  122      O      30.0950000000    21.0800000000    23.6850000000
  123      C      37.8920000000    24.8700000000    29.1180000000
  124      H      37.1370000000    25.6180000000    29.3730000000
  125      H      37.9840000000    24.0620000000    29.8480000000
  126      H      38.8660000000    25.3560000000    29.0180000000
  127      S      37.5730000000    24.4450000000    27.3910000000
  128      C      38.8530000000    23.1850000000    27.1980000000
  129      H      39.2660000000    23.2570000000    26.1890000000
  130      H      39.5830000000    23.3690000000    27.9900000000
  131      H      38.2930000000    22.2500000000    27.2880000000
  132      O      38.0770000000    25.6220000000    26.6150000000
  133      C      31.1360000000    22.2960000000    27.6560000000
  134      H      31.4500000000    22.8120000000    28.5660000000
  135      H      31.9500000000    22.2360000000    26.9290000000
  136      H      30.1840000000    22.6770000000    27.2760000000
  137      S      30.7750000000    20.5720000000    28.0630000000
  138      C      29.8010000000    20.1510000000    26.6010000000
  139      H      29.1960000000    19.2880000000    26.8930000000
  140      H      29.2750000000    21.0360000000    26.2350000000
  141      H      30.5170000000    19.7970000000    25.8550000000
  142      O      29.7650000000    20.8000000000    29.1430000000
  143      C      33.5900000000    24.6340000000    33.8330000000
  144      H      32.8490000000    23.8560000000    34.0350000000
  145      H      34.3010000000    24.3670000000    33.0470000000
  146      H      34.1760000000    24.9600000000    34.6950000000
  147      S      32.5940000000    26.0160000000    33.2310000000
  148      C      33.6140000000    27.3900000000    33.8110000000
  149      H      34.1430000000    27.1000000000    34.7220000000
  150      H      34.3390000000    27.5340000000    33.0060000000
  151      H      32.9890000000    28.2750000000    33.9610000000
  152      O      31.5160000000    26.0380000000    34.2700000000
  153      C      38.7770000000    30.6200000000    25.8880000000
  154      H      39.4800000000    30.6690000000    25.0520000000
  155      H      39.2290000000    31.2630000000    26.6470000000
  156      H      38.6470000000    29.5810000000    26.2020000000
  157      S      37.2720000000    31.4600000000    25.3440000000
  158      C      36.7990000000    31.9130000000    27.0290000000
  159      H      37.6150000000    32.5630000000    27.3550000000
  160      H      35.9300000000    32.5750000000    27.0060000000
  161      H      36.8010000000    31.0040000000    27.6370000000
  162      O      36.2870000000    30.3720000000    25.0510000000
  163      C      19.3930000000    30.9710000000    30.3330000000
  164      H      19.5940000000    31.3350000000    31.3430000000
  165      H      18.3480000000    30.6850000000    30.1890000000
  166      H      20.1060000000    30.1700000000    30.1220000000
  167      S      19.7470000000    32.2960000000    29.1570000000
  168      C      21.5250000000    32.4120000000    29.4600000000
  169      H      21.6220000000    33.4610000000    29.7500000000
  170      H      21.8770000000    31.7440000000    30.2500000000
  171      H      21.9800000000    32.1320000000    28.5060000000
  172      O      19.1820000000    33.5520000000    29.7440000000
  173      C      24.5560000000    27.0430000000    24.9330000000
  174      H      23.7090000000    27.6590000000    24.6200000000
  175      H      24.5100000000    26.0810000000    24.4160000000
  176      H      24.5920000000    26.8930000000    26.0150000000
  177      S      25.9160000000    28.0870000000    24.3610000000
  178      C      27.1850000000    26.8180000000    24.5730000000
  179      H      27.2900000000    26.7200000000    25.6570000000
  180      H      26.7920000000    25.8970000000    24.1360000000
  181      H      28.1470000000    27.1100000000    24.1440000000
  182      O      26.2750000000    29.0000000000    25.4920000000
  183      C      34.1280000000    28.4540000000    23.4990000000
  184      H      35.1310000000    28.0900000000    23.7370000000
  185      H      34.1260000000    29.5390000000    23.6310000000
  186      H      33.2650000000    28.0080000000    23.9980000000
  187      S      34.0430000000    28.1760000000    21.7150000000
  188      C      34.0600000000    26.3690000000    21.7340000000
  189      H      34.7960000000    26.1820000000    22.5200000000
  190      H      33.1250000000    25.9050000000    22.0610000000
  191      H      34.3910000000    25.9790000000    20.7680000000
  192      O      35.4310000000    28.5100000000    21.2660000000
  193      C      24.3410000000    33.1120000000    32.3420000000
  194      H      23.7930000000    32.4100000000    31.7090000000
  195      H      23.6650000000    33.6580000000    33.0050000000
  196      H      24.8580000000    33.7610000000    31.6300000000
  197      S      25.6690000000    32.4100000000    33.3460000000
  198      C      25.9650000000    31.0980000000    32.1390000000
  199      H      26.3940000000    30.2280000000    32.6410000000
  200      H      24.9770000000    30.8470000000    31.7430000000
  201      H      26.5790000000    31.6270000000    31.4050000000
  202      O      24.9260000000    31.8770000000    34.5320000000
  203      C      34.5420000000    22.3250000000    24.9830000000
  204      H      33.8030000000    21.7130000000    25.5070000000
  205      H      34.4460000000    22.1380000000    23.9100000000
  206      H      35.5430000000    22.2240000000    25.4090000000
  207      S      34.1670000000    24.0490000000    25.3710000000
  208      C      32.6480000000    24.0600000000    24.3920000000
  209      H      32.9350000000    23.7860000000    23.3740000000
  210      H      31.8200000000    23.4600000000    24.7780000000
  211      H      32.4070000000    25.1240000000    24.4630000000
  212      O      35.0410000000    24.9270000000    24.5300000000
  213      C      24.8350000000    28.4230000000    29.3490000000
  214      H      25.4980000000    27.9890000000    28.5960000000
  215      H      25.1280000000    29.3380000000    29.8710000000
  216      H      24.6950000000    27.6360000000    30.0940000000
  217      S      23.2430000000    28.6350000000    28.5220000000
  218      C      23.7270000000    30.0220000000    27.4700000000
  219      H      24.2030000000    30.8490000000    28.0030000000
  220      H      24.3460000000    29.7050000000    26.6270000000
  221      H      22.7500000000    30.3170000000    27.0790000000
  222      O      22.2950000000    29.3170000000    29.4580000000
  223      C      34.7300000000    31.9270000000    22.3480000000
  224      H      34.9890000000    32.0720000000    23.4000000000
  225      H      34.9730000000    30.9170000000    22.0080000000
  226      H      35.3660000000    32.5810000000    21.7460000000
  227      S      33.0650000000    32.3230000000    21.7690000000
  228      C      32.8210000000    33.7800000000    22.8100000000
  229      H      33.4070000000    34.5700000000    22.3330000000
  230      H      31.7850000000    34.1270000000    22.7960000000
  231      H      33.2890000000    33.7030000000    23.7950000000
  232      O      32.1980000000    31.3230000000    22.4690000000
  233      C      26.1860000000    34.0880000000    27.2900000000
  234      H      26.1650000000    34.5470000000    26.2990000000
  235      H      26.4840000000    34.8870000000    27.9730000000
  236      H      26.8820000000    33.2450000000    27.2860000000
  237      S      24.4780000000    33.5950000000    27.6150000000
  238      C      23.9450000000    35.2970000000    27.9100000000
  239      H      24.0760000000    35.9080000000    27.0140000000
  240      H      22.8830000000    35.3190000000    28.1690000000
  241      H      24.5680000000    35.8570000000    28.6110000000
  242      O      24.6530000000    33.0210000000    28.9870000000
  243      C      20.4840000000    29.3740000000    26.0070000000
  244      H      19.9420000000    28.7140000000    25.3250000000
  245      H      21.5550000000    29.3740000000    25.7880000000
  246      H      20.3010000000    29.1350000000    27.0580000000
  247      S      19.8790000000    31.0740000000    25.9100000000
  248      C      19.8660000000    31.2010000000    24.1080000000
  249      H      20.7070000000    30.6320000000    23.7030000000
  250      H      19.0200000000    30.7540000000    23.5790000000
  251      H      19.8400000000    32.2760000000    23.9090000000
  252      O      21.0870000000    31.8920000000    26.2440000000
  253      C      23.9700000000    20.3840000000    25.8260000000
  254      H      24.6190000000    20.4260000000    26.7040000000
  255      H      23.1210000000    21.0320000000    26.0580000000
  256      H      23.5710000000    19.3980000000    25.5730000000
  257      S      24.9420000000    21.0280000000    24.4450000000
  258      C      26.2580000000    19.8680000000    24.8780000000
  259      H      26.3940000000    20.0250000000    25.9510000000
  260      H      25.9040000000    18.8710000000    24.6060000000
  261      H      27.2120000000    20.1410000000    24.4190000000
  262      O      25.3810000000    22.4090000000    24.8200000000
  263      C      23.0910000000    25.3990000000    30.6120000000
  264      H      22.7650000000    26.1980000000    31.2830000000
  265      H      24.1790000000    25.3510000000    30.5210000000
  266      H      22.7120000000    25.5950000000    29.6060000000
  267      S      22.4070000000    23.8340000000    31.2020000000
  268      C      20.9020000000    24.5790000000    31.8670000000
  269      H      21.2080000000    25.3180000000    32.6120000000
  270      H      20.3240000000    25.1120000000    31.1070000000
  271      H      20.3290000000    23.7030000000    32.1820000000
  272      O      23.2430000000    23.4430000000    32.3800000000
  273      C      29.0920000000    31.6030000000    34.2110000000
  274      H      29.1570000000    32.4790000000    33.5600000000
  275      H      28.0700000000    31.5500000000    34.5960000000
  276      H      29.8110000000    31.6350000000    35.0340000000
  277      S      29.4380000000    30.1370000000    33.2130000000
  278      C      29.1780000000    28.9160000000    34.5190000000
  279      H      29.6560000000    27.9680000000    34.2590000000
  280      H      29.4860000000    29.3880000000    35.4560000000
  281      H      28.1000000000    28.7420000000    34.5660000000
  282      O      30.9200000000    30.0160000000    33.0370000000
  283      C      35.2060000000    27.4840000000    26.7450000000
  284      H      35.6010000000    28.2550000000    26.0780000000
  285      H      35.6400000000    26.5210000000    26.4640000000
  286      H      34.1340000000    27.4040000000    26.5440000000
  287      S      35.6560000000    27.7830000000    28.4690000000
  288      C      34.4630000000    26.6070000000    29.1460000000
  289      H      34.3820000000    26.8660000000    30.2050000000
  290      H      33.4710000000    26.7180000000    28.7010000000
  291      H      34.9020000000    25.6590000000    28.8260000000
  292      O      35.0570000000    29.1190000000    28.7860000000
 ----------------------------------------------------------------
 Nuclear Repulsion Energy =       47821.54321021 hartrees
 There are      602 alpha and      602 beta electrons
 Requested basis set is 6-31+G(d)
 There are 962 shells and 2681 basis functions

 Total QAlloc Memory Limit  16000 MB
 Mega-Array Size      7821 MB
 MEM_STATIC part      8000 MB
 A cutoff of  1.0D-14 yielded 177131 shell pairs
 There are   1529123 function pairs
 Smallest overlap matrix eigenvalue = 6.19E-07
 Linear dependence detected in AO basis
 Tighter screening thresholds may be required for diffuse basis sets
 Use S2THRESH > 14 and THRESH = 14 in case of SCF convergence issues
 Number of orthogonalized atomic orbitals = 2679
 Maximum deviation from orthogonality = 1.325E-10

 Scale SEOQF with 1.000000e-03/1.000000e-03/1.000000e-03

 Standard Electronic Orientation quadrupole field applied
 Nucleus-field energy     =     0.0000000525 hartrees
Attempting to make child job directory: /local/scratch/users/ymao/r7.00_frame_0082_almo_B3LYP_dp.in20210311133730//Frg1/
Attempting to make child job directory: /local/scratch/users/ymao/r7.00_frame_0082_almo_B3LYP_dp.in20210311133730//Frg2/
Creating input file /local/scratch/users/ymao/r7.00_frame_0082_almo_B3LYP_dp.in20210311133730/Frg1.input
using default PutDataFrgm: nothing
calling putenv with: QCSCRATCH=/local/scratch/users/ymao/r7.00_frame_0082_almo_B3LYP_dp.in20210311133730/ 
Spawning Job For Fragment 0
Done Job For Fragment 0
calling putenv with: QCSCRATCH=/local/scratch/users/ymao 
calling putenv with: QCTHREADS=8 
Creating input file /local/scratch/users/ymao/r7.00_frame_0082_almo_B3LYP_dp.in20210311133730/Frg2.input
using default PutDataFrgm: nothing
calling putenv with: QCSCRATCH=/local/scratch/users/ymao/r7.00_frame_0082_almo_B3LYP_dp.in20210311133730/ 
Spawning Job For Fragment 1
Done Job For Fragment 1
calling putenv with: QCSCRATCH=/local/scratch/users/ymao 
calling putenv with: QCTHREADS=8 
 Time for running child jobs:  CPU 0.38 s  wall 8334.22 s

 -----------------------------------------------------------------------
  General SCF calculation program by
  Eric Jon Sundstrom, Paul Horn, Yuezhi Mao, Dmitri Zuev, Alec White,
  David Stuck, Shaama M.S., Shane Yost, Joonho Lee, David Small,
  Daniel Levine, Susi Lehtola, Hugh Burton, Evgeny Epifanovsky,
  Bang C. Huynh
 -----------------------------------------------------------------------
Performing Restricted Closed Shell SCFMI
Doing General SCFMI
 Exchange:     0.2000 Hartree-Fock + 0.0800 Slater + 0.7200 B88
 Correlation:  0.1900 VWN1RPA + 0.8100 LYP
 Using Euler-Maclaurin-Lebedev (75,302) quadrature formula
performing fock build before subrot guess so that all methods have access
Printing subrot_rss_gen Method Specification:
Occupied Subspace Method is 0
Virtual Subspace Method is 0
Energy prior to optimization (guess energy) = -15340.710918715122
Begin Timing: Total SCF Calculation
begin iterations for algorithm: DIIS         
the SCF tolerance is set to 1.00e-08
    1  -15340.7109187151      4.41e-05     00000 
    2  -15340.7091850727      6.75e-05     00000 
    3  -15340.7205850903      1.65e-05     00000 
    4  -15340.7212381985      6.90e-06     00000 
    5  -15340.7213926842      2.56e-06     00000 
    6  -15340.7214128453      1.76e-06     00000 
    7  -15340.7214221419      1.07e-06     00000 
    8  -15340.7214256399      5.51e-07     00000 
    9  -15340.7214264756      2.83e-07     00000 
   10  -15340.7214266155      2.01e-07     00000 
   11  -15340.7214266927      1.22e-07     00000 
   12  -15340.7214267271      6.54e-08     00000 
   13  -15340.7214267388      3.49e-08     00000 
   14  -15340.7214267420      2.22e-08     00000 
   15  -15340.7214267432      1.60e-08     00000 
   16  -15340.7214267437      6.18e-09     00000 Convergence criterion met
write pseudocanon occs and virts to disk
write pseudocanon orbital energies to disk
Timing for Total SCF: 15858.00s (wall), 125991.72s (cpu)
SCFMI Energy  -15340.7214267437
<S^2>            0.00000
 Total energy in the final basis set =   -15340.7214267437
    ==================================================
        The end of Object-Oriented SCFman: SCFMI      
    ==================================================
 
 --------------------------------------------------------------
 
                    Orbital Energies (a.u.)
 --------------------------------------------------------------
 
 Alpha MOs
 -- Occupied --
-89.0479 -89.0404 -89.0341 -89.0288 -89.0244 -89.0165 -89.0126 -89.0109
-89.0106 -89.0074 -89.0052 -89.0050 -89.0019 -89.0016 -89.0014 -88.9989
-88.9985 -88.9978 -88.9966 -88.9951 -88.9884 -88.9799 -88.9729 -88.9713
-88.9590 -88.9584 -88.9560 -19.1720 -19.1592 -19.1406 -19.1382 -19.1325
-19.1305 -19.1302 -19.1294 -19.1242 -19.1237 -19.1223 -19.1221 -19.1181
-19.1161 -19.1146 -19.1125 -19.1116 -19.1113 -19.1058 -19.1036 -19.1023
-19.1017 -19.1004 -19.0915 -19.0905 -19.0790 -19.0789 -19.0746 -14.3495
-10.2847 -10.2665 -10.2654 -10.2584 -10.2493 -10.2487 -10.2451 -10.2417
-10.2417 -10.2412 -10.2398 -10.2368 -10.2349 -10.2343 -10.2331 -10.2326
-10.2308 -10.2301 -10.2290 -10.2274 -10.2272 -10.2262 -10.2233 -10.2232
-10.2222 -10.2177 -10.2169 -10.2155 -10.2152 -10.2152 -10.2147 -10.2143
-10.2125 -10.2113 -10.2111 -10.2095 -10.2072 -10.2070 -10.2048 -10.2038
-10.2035 -10.1996 -10.1982 -10.1981 -10.1980 -10.1971 -10.1961 -10.1941
-10.1929 -10.1922 -10.1909 -10.1907 -10.1884 -10.1861 -10.1844 -10.1835
-10.1834 -10.1825 -10.1757 -10.1733 -10.1716  -8.0942  -8.0865  -8.0809
 -8.0746  -8.0707  -8.0632  -8.0588  -8.0567  -8.0567  -8.0537  -8.0510
 -8.0505  -8.0477  -8.0474  -8.0474  -8.0445  -8.0441  -8.0439  -8.0424
 -8.0405  -8.0343  -8.0253  -8.0190  -8.0176  -8.0054  -8.0051  -8.0025
 -6.0586  -6.0570  -6.0516  -6.0509  -6.0495  -6.0450  -6.0439  -6.0439
 -6.0391  -6.0386  -6.0377  -6.0349  -6.0338  -6.0319  -6.0283  -6.0275
 -6.0262  -6.0230  -6.0219  -6.0212  -6.0208  -6.0205  -6.0200  -6.0197
 -6.0179  -6.0170  -6.0162  -6.0152  -6.0149  -6.0142  -6.0140  -6.0140
 -6.0136  -6.0120  -6.0118  -6.0117  -6.0109  -6.0106  -6.0105  -6.0105
 -6.0090  -6.0085  -6.0083  -6.0082  -6.0080  -6.0075  -6.0072  -6.0069
 -6.0067  -6.0053  -6.0053  -6.0051  -6.0049  -6.0048  -6.0038  -6.0020
 -6.0017  -6.0016  -6.0002  -5.9986  -5.9981  -5.9973  -5.9918  -5.9897
 -5.9883  -5.9835  -5.9827  -5.9821  -5.9820  -5.9808  -5.9763  -5.9750
 -5.9698  -5.9694  -5.9684  -5.9682  -5.9668  -5.9657  -5.9630  -5.9625
 -5.9595  -1.0777  -1.0727  -1.0570  -1.0528  -1.0476  -1.0429  -1.0407
 -1.0379  -1.0372  -1.0357  -1.0322  -1.0308  -1.0268  -1.0255  -1.0242
 -1.0238  -1.0225  -1.0212  -1.0189  -1.0171  -1.0123  -1.0108  -1.0070
 -1.0001  -0.9999  -0.9857  -0.9844  -0.9814  -0.9163  -0.8609  -0.8428
 -0.8358  -0.8313  -0.8273  -0.8210  -0.8191  -0.8169  -0.8143  -0.8130
 -0.8125  -0.8124  -0.8045  -0.8017  -0.8013  -0.8010  -0.8000  -0.7992
 -0.7955  -0.7945  -0.7937  -0.7927  -0.7816  -0.7775  -0.7739  -0.7712
 -0.7692  -0.7681  -0.7649  -0.7639  -0.7607  -0.7578  -0.7548  -0.7534
 -0.7506  -0.7497  -0.7469  -0.7445  -0.7422  -0.7382  -0.7346  -0.7286
 -0.7281  -0.7254  -0.7250  -0.7246  -0.7207  -0.7203  -0.7160  -0.7152
 -0.7121  -0.7035  -0.7026  -0.7021  -0.6953  -0.6915  -0.6831  -0.6632
 -0.6551  -0.6482  -0.6420  -0.6394  -0.6374  -0.6287  -0.6265  -0.6261
 -0.6255  -0.6234  -0.6219  -0.6177  -0.6158  -0.6145  -0.6123  -0.6114
 -0.6096  -0.6090  -0.6087  -0.6079  -0.6052  -0.5999  -0.5928  -0.5861
 -0.5852  -0.5828  -0.5775  -0.5721  -0.5713  -0.5695  -0.5388  -0.5316
 -0.5255  -0.5181  -0.5170  -0.5150  -0.5105  -0.5084  -0.5068  -0.5067
 -0.5057  -0.5025  -0.5011  -0.5001  -0.4972  -0.4965  -0.4946  -0.4943
 -0.4923  -0.4920  -0.4909  -0.4901  -0.4894  -0.4887  -0.4866  -0.4858
 -0.4846  -0.4844  -0.4839  -0.4834  -0.4824  -0.4817  -0.4815  -0.4813
 -0.4785  -0.4781  -0.4764  -0.4757  -0.4750  -0.4746  -0.4737  -0.4731
 -0.4718  -0.4714  -0.4713  -0.4711  -0.4708  -0.4693  -0.4684  -0.4681
 -0.4674  -0.4674  -0.4667  -0.4658  -0.4654  -0.4650  -0.4643  -0.4641
 -0.4626  -0.4607  -0.4605  -0.4604  -0.4595  -0.4584  -0.4580  -0.4577
 -0.4573  -0.4570  -0.4552  -0.4548  -0.4538  -0.4533  -0.4517  -0.4510
 -0.4507  -0.4501  -0.4491  -0.4485  -0.4482  -0.4473  -0.4471  -0.4462
 -0.4453  -0.4447  -0.4445  -0.4444  -0.4438  -0.4432  -0.4416  -0.4397
 -0.4391  -0.4388  -0.4378  -0.4366  -0.4365  -0.4350  -0.4347  -0.4341
 -0.4337  -0.4333  -0.4318  -0.4309  -0.4303  -0.4300  -0.4291  -0.4284
 -0.4283  -0.4277  -0.4273  -0.4271  -0.4266  -0.4262  -0.4247  -0.4240
 -0.4230  -0.4227  -0.4224  -0.4207  -0.4201  -0.4199  -0.4196  -0.4194
 -0.4186  -0.4163  -0.4160  -0.4150  -0.4139  -0.4129  -0.4118  -0.4110
 -0.4105  -0.4094  -0.4092  -0.4083  -0.4078  -0.4065  -0.4060  -0.4056
 -0.4035  -0.4012  -0.4008  -0.4005  -0.3997  -0.3993  -0.3992  -0.3985
 -0.3983  -0.3967  -0.3955  -0.3948  -0.3943  -0.3933  -0.3932  -0.3929
 -0.3922  -0.3917  -0.3908  -0.3902  -0.3891  -0.3871  -0.3866  -0.3859
 -0.3851  -0.3836  -0.3829  -0.3818  -0.3799  -0.3790  -0.3788  -0.3783
 -0.3776  -0.3772  -0.3766  -0.3762  -0.3741  -0.3735  -0.3731  -0.3701
 -0.3700  -0.3683  -0.3670  -0.3660  -0.3635  -0.3632  -0.3626  -0.3613
 -0.3608  -0.3594  -0.3574  -0.3567  -0.3548  -0.3515  -0.3504  -0.3496
 -0.3466  -0.3462  -0.3372  -0.3363  -0.3341  -0.3323  -0.3258  -0.3253
 -0.3241  -0.3216  -0.3199  -0.3168  -0.3021  -0.2981  -0.2936  -0.2934
 -0.2924  -0.2912  -0.2883  -0.2871  -0.2867  -0.2849  -0.2831  -0.2773
 -0.2746  -0.2746  -0.2739  -0.2721  -0.2717  -0.2709  -0.2666  -0.2658
 -0.2647  -0.2635  -0.2619  -0.2614  -0.2600  -0.2592  -0.2574  -0.2571
 -0.2538  -0.2530  -0.2528  -0.2520  -0.2482  -0.2478  -0.2457  -0.2448
 -0.2442  -0.2438  -0.2434  -0.2421  -0.2403  -0.2400  -0.2395  -0.2364
 -0.2344  -0.2310  -0.2305  -0.2278  -0.2250  -0.2143  -0.2118  -0.2019
 -0.2001  -0.1951
 -- Virtual --
 -0.0464  -0.0441  -0.0404  -0.0388  -0.0357  -0.0345  -0.0330  -0.0274
 -0.0250  -0.0232  -0.0212  -0.0200  -0.0197  -0.0171  -0.0164  -0.0142
 -0.0129  -0.0119  -0.0117  -0.0105  -0.0089  -0.0086  -0.0076  -0.0065
 -0.0061  -0.0044  -0.0042  -0.0037  -0.0029  -0.0024  -0.0019   0.0001
  0.0008   0.0024   0.0028   0.0030   0.0033   0.0043   0.0050   0.0060
  0.0068   0.0077   0.0080   0.0084   0.0093   0.0101   0.0105   0.0112
  0.0118   0.0124   0.0134   0.0144   0.0155   0.0160   0.0167   0.0170
  0.0178   0.0193   0.0195   0.0206   0.0209   0.0217   0.0227   0.0229
  0.0237   0.0245   0.0252   0.0255   0.0260   0.0269   0.0272   0.0272
  0.0281   0.0285   0.0295   0.0298   0.0308   0.0314   0.0318   0.0327
  0.0333   0.0337   0.0346   0.0350   0.0356   0.0366   0.0369   0.0375
  0.0381   0.0390   0.0401   0.0407   0.0414   0.0420   0.0428   0.0433
  0.0437   0.0447   0.0448   0.0458   0.0467   0.0469   0.0476   0.0483
  0.0495   0.0497   0.0503   0.0505   0.0512   0.0520   0.0527   0.0533
  0.0540   0.0543   0.0551   0.0552   0.0559   0.0562   0.0571   0.0577
  0.0583   0.0590   0.0591   0.0596   0.0614   0.0624   0.0628   0.0633
  0.0642   0.0646   0.0649   0.0661   0.0665   0.0675   0.0676   0.0680
  0.0690   0.0695   0.0704   0.0707   0.0712   0.0717   0.0732   0.0738
  0.0742   0.0749   0.0755   0.0761   0.0767   0.0776   0.0786   0.0799
  0.0805   0.0812   0.0816   0.0820   0.0832   0.0837   0.0841   0.0843
  0.0849   0.0855   0.0861   0.0863   0.0886   0.0891   0.0894   0.0899
  0.0904   0.0914   0.0916   0.0920   0.0926   0.0934   0.0940   0.0947
  0.0954   0.0958   0.0967   0.0971   0.0978   0.0987   0.0989   0.0991
  0.1006   0.1010   0.1013   0.1023   0.1027   0.1036   0.1040   0.1047
  0.1059   0.1064   0.1073   0.1080   0.1083   0.1093   0.1100   0.1104
  0.1111   0.1114   0.1119   0.1128   0.1132   0.1143   0.1149   0.1156
  0.1161   0.1166   0.1171   0.1180   0.1192   0.1196   0.1201   0.1204
  0.1212   0.1214   0.1220   0.1228   0.1234   0.1240   0.1243   0.1249
  0.1251   0.1257   0.1265   0.1275   0.1278   0.1286   0.1290   0.1295
  0.1304   0.1308   0.1318   0.1322   0.1331   0.1333   0.1339   0.1346
  0.1351   0.1358   0.1369   0.1371   0.1379   0.1387   0.1399   0.1402
  0.1407   0.1410   0.1418   0.1420   0.1424   0.1428   0.1435   0.1442
  0.1446   0.1450   0.1457   0.1459   0.1469   0.1476   0.1482   0.1483
  0.1491   0.1499   0.1509   0.1511   0.1515   0.1531   0.1533   0.1538
  0.1548   0.1554   0.1559   0.1560   0.1561   0.1571   0.1573   0.1586
  0.1595   0.1601   0.1607   0.1611   0.1616   0.1620   0.1629   0.1642
  0.1646   0.1650   0.1658   0.1662   0.1667   0.1673   0.1674   0.1682
  0.1686   0.1698   0.1702   0.1704   0.1710   0.1714   0.1718   0.1730
  0.1733   0.1740   0.1748   0.1754   0.1757   0.1765   0.1768   0.1773
  0.1779   0.1785   0.1786   0.1800   0.1806   0.1810   0.1813   0.1821
  0.1827   0.1835   0.1837   0.1844   0.1853   0.1858   0.1859   0.1865
  0.1877   0.1885   0.1887   0.1894   0.1899   0.1902   0.1905   0.1915
  0.1925   0.1930   0.1935   0.1946   0.1953   0.1960   0.1966   0.1967
  0.1976   0.1979   0.1982   0.1997   0.2005   0.2011   0.2018   0.2025
  0.2031   0.2037   0.2041   0.2044   0.2051   0.2055   0.2060   0.2063
  0.2066   0.2070   0.2085   0.2090   0.2095   0.2103   0.2111   0.2115
  0.2122   0.2124   0.2131   0.2142   0.2145   0.2146   0.2159   0.2165
  0.2167   0.2184   0.2188   0.2194   0.2199   0.2202   0.2216   0.2219
  0.2225   0.2228   0.2239   0.2247   0.2253   0.2255   0.2266   0.2276
  0.2281   0.2283   0.2291   0.2295   0.2302   0.2303   0.2313   0.2318
  0.2321   0.2322   0.2337   0.2339   0.2353   0.2357   0.2362   0.2369
  0.2377   0.2379   0.2381   0.2385   0.2398   0.2410   0.2414   0.2418
  0.2424   0.2427   0.2431   0.2441   0.2449   0.2457   0.2460   0.2470
  0.2477   0.2486   0.2490   0.2491   0.2499   0.2506   0.2522   0.2523
  0.2531   0.2536   0.2543   0.2547   0.2558   0.2561   0.2568   0.2577
  0.2584   0.2590   0.2593   0.2601   0.2611   0.2615   0.2621   0.2635
  0.2649   0.2652   0.2657   0.2662   0.2674   0.2678   0.2681   0.2689
  0.2692   0.2696   0.2708   0.2715   0.2727   0.2731   0.2738   0.2745
  0.2749   0.2761   0.2764   0.2773   0.2785   0.2795   0.2800   0.2811
  0.2819   0.2822   0.2834   0.2847   0.2849   0.2856   0.2859   0.2866
  0.2874   0.2884   0.2889   0.2896   0.2908   0.2917   0.2927   0.2928
  0.2940   0.2946   0.2953   0.2958   0.2964   0.2977   0.2980   0.2994
  0.3007   0.3016   0.3021   0.3032   0.3041   0.3043   0.3055   0.3062
  0.3069   0.3082   0.3088   0.3096   0.3105   0.3112   0.3115   0.3135
  0.3145   0.3145   0.3157   0.3159   0.3170   0.3184   0.3190   0.3196
  0.3199   0.3200   0.3207   0.3219   0.3228   0.3236   0.3246   0.3255
  0.3269   0.3278   0.3281   0.3287   0.3291   0.3307   0.3312   0.3314
  0.3335   0.3340   0.3348   0.3361   0.3365   0.3373   0.3385   0.3389
  0.3395   0.3395   0.3410   0.3419   0.3424   0.3429   0.3440   0.3446
  0.3459   0.3460   0.3467   0.3475   0.3480   0.3492   0.3497   0.3511
  0.3522   0.3533   0.3545   0.3553   0.3562   0.3569   0.3572   0.3584
  0.3586   0.3599   0.3620   0.3632   0.3638   0.3649   0.3653   0.3653
  0.3671   0.3674   0.3679   0.3688   0.3695   0.3705   0.3717   0.3723
  0.3731   0.3739   0.3753   0.3758   0.3772   0.3777   0.3783   0.3799
  0.3802   0.3807   0.3821   0.3824   0.3829   0.3833   0.3849   0.3852
  0.3853   0.3865   0.3876   0.3890   0.3896   0.3906   0.3920   0.3923
  0.3931   0.3937   0.3946   0.3957   0.3967   0.3976   0.3988   0.4000
  0.4011   0.4026   0.4028   0.4035   0.4046   0.4058   0.4069   0.4079
  0.4086   0.4096   0.4106   0.4109   0.4115   0.4119   0.4127   0.4144
  0.4159   0.4170   0.4191   0.4195   0.4202   0.4204   0.4216   0.4223
  0.4224   0.4239   0.4253   0.4257   0.4272   0.4281   0.4307   0.4310
  0.4323   0.4328   0.4340   0.4351   0.4359   0.4376   0.4380   0.4400
  0.4410   0.4422   0.4428   0.4433   0.4450   0.4458   0.4460   0.4472
  0.4486   0.4499   0.4523   0.4524   0.4529   0.4541   0.4547   0.4568
  0.4586   0.4596   0.4611   0.4616   0.4629   0.4638   0.4649   0.4676
  0.4681   0.4699   0.4704   0.4714   0.4727   0.4741   0.4751   0.4761
  0.4777   0.4794   0.4805   0.4810   0.4824   0.4839   0.4845   0.4878
  0.4892   0.4895   0.4906   0.4927   0.4941   0.4964   0.4981   0.4989
  0.5003   0.5009   0.5019   0.5038   0.5053   0.5056   0.5075   0.5092
  0.5105   0.5116   0.5140   0.5145   0.5174   0.5200   0.5215   0.5233
  0.5244   0.5257   0.5291   0.5294   0.5311   0.5325   0.5329   0.5354
  0.5380   0.5394   0.5404   0.5448   0.5451   0.5454   0.5481   0.5487
  0.5499   0.5507   0.5516   0.5528   0.5552   0.5568   0.5582   0.5591
  0.5614   0.5642   0.5657   0.5691   0.5698   0.5700   0.5712   0.5726
  0.5739   0.5746   0.5763   0.5774   0.5781   0.5805   0.5812   0.5830
  0.5842   0.5865   0.5871   0.5879   0.5892   0.5899   0.5902   0.5929
  0.5949   0.5961   0.5983   0.5993   0.5998   0.6016   0.6036   0.6051
  0.6054   0.6070   0.6085   0.6089   0.6105   0.6120   0.6132   0.6138
  0.6148   0.6152   0.6170   0.6188   0.6197   0.6215   0.6217   0.6234
  0.6243   0.6254   0.6269   0.6290   0.6300   0.6308   0.6319   0.6328
  0.6340   0.6348   0.6353   0.6368   0.6382   0.6397   0.6406   0.6414
  0.6425   0.6440   0.6450   0.6467   0.6472   0.6477   0.6487   0.6490
  0.6514   0.6530   0.6538   0.6543   0.6546   0.6553   0.6573   0.6587
  0.6591   0.6608   0.6614   0.6623   0.6638   0.6658   0.6669   0.6678
  0.6694   0.6703   0.6714   0.6722   0.6726   0.6738   0.6748   0.6765
  0.6770   0.6789   0.6817   0.6823   0.6827   0.6845   0.6846   0.6866
  0.6874   0.6880   0.6895   0.6904   0.6911   0.6934   0.6948   0.6963
  0.6971   0.6978   0.6982   0.7003   0.7007   0.7032   0.7037   0.7040
  0.7057   0.7074   0.7083   0.7094   0.7096   0.7111   0.7112   0.7121
  0.7128   0.7144   0.7157   0.7171   0.7182   0.7198   0.7205   0.7215
  0.7224   0.7228   0.7230   0.7243   0.7256   0.7287   0.7307   0.7316
  0.7327   0.7342   0.7349   0.7369   0.7376   0.7391   0.7401   0.7411
  0.7425   0.7445   0.7454   0.7467   0.7494   0.7504   0.7515   0.7523
  0.7556   0.7567   0.7576   0.7591   0.7607   0.7621   0.7629   0.7645
  0.7654   0.7674   0.7687   0.7690   0.7710   0.7728   0.7749   0.7764
  0.7778   0.7795   0.7808   0.7826   0.7833   0.7850   0.7864   0.7883
  0.7900   0.7910   0.7929   0.7948   0.7967   0.7971   0.7986   0.8004
  0.8031   0.8038   0.8050   0.8070   0.8079   0.8090   0.8114   0.8129
  0.8135   0.8158   0.8175   0.8186   0.8201   0.8225   0.8241   0.8256
  0.8258   0.8273   0.8293   0.8309   0.8322   0.8335   0.8353   0.8369
  0.8376   0.8381   0.8402   0.8406   0.8428   0.8438   0.8448   0.8467
  0.8475   0.8486   0.8503   0.8512   0.8543   0.8548   0.8565   0.8579
  0.8582   0.8612   0.8614   0.8624   0.8645   0.8672   0.8680   0.8690
  0.8705   0.8710   0.8737   0.8745   0.8751   0.8770   0.8786   0.8793
  0.8804   0.8807   0.8822   0.8833   0.8837   0.8854   0.8864   0.8874
  0.8899   0.8907   0.8919   0.8928   0.8938   0.8951   0.8968   0.8976
  0.8987   0.8997   0.9009   0.9028   0.9045   0.9053   0.9066   0.9077
  0.9097   0.9101   0.9118   0.9122   0.9127   0.9160   0.9167   0.9171
  0.9176   0.9195   0.9211   0.9221   0.9225   0.9235   0.9245   0.9257
  0.9277   0.9294   0.9304   0.9320   0.9326   0.9348   0.9359   0.9368
  0.9383   0.9394   0.9420   0.9427   0.9438   0.9452   0.9457   0.9469
  0.9477   0.9487   0.9490   0.9503   0.9521   0.9531   0.9538   0.9551
  0.9562   0.9566   0.9581   0.9594   0.9611   0.9614   0.9625   0.9634
  0.9645   0.9654   0.9677   0.9687   0.9706   0.9714   0.9716   0.9731
  0.9751   0.9759   0.9772   0.9779   0.9800   0.9803   0.9812   0.9830
  0.9840   0.9849   0.9861   0.9876   0.9884   0.9904   0.9905   0.9908
  0.9920   0.9938   0.9944   0.9948   0.9963   0.9968   0.9981   1.0000
  1.0007   1.0019   1.0028   1.0037   1.0054   1.0062   1.0068   1.0072
  1.0091   1.0100   1.0109   1.0117   1.0129   1.0139   1.0144   1.0156
  1.0164   1.0179   1.0189   1.0208   1.0211   1.0233   1.0242   1.0245
  1.0268   1.0279   1.0293   1.0297   1.0308   1.0329   1.0337   1.0359
  1.0366   1.0386   1.0392   1.0395   1.0407   1.0426   1.0443   1.0450
  1.0454   1.0470   1.0481   1.0485   1.0507   1.0512   1.0530   1.0536
  1.0545   1.0572   1.0577   1.0589   1.0604   1.0617   1.0618   1.0634
  1.0642   1.0653   1.0674   1.0683   1.0708   1.0719   1.0724   1.0742
  1.0746   1.0760   1.0779   1.0801   1.0803   1.0816   1.0827   1.0844
  1.0867   1.0871   1.0875   1.0876   1.0898   1.0922   1.0933   1.0939
  1.0949   1.0954   1.0971   1.0990   1.1001   1.1011   1.1028   1.1046
  1.1055   1.1075   1.1082   1.1106   1.1113   1.1124   1.1141   1.1151
  1.1172   1.1176   1.1191   1.1206   1.1223   1.1233   1.1244   1.1257
  1.1262   1.1298   1.1306   1.1324   1.1337   1.1340   1.1349   1.1355
  1.1369   1.1384   1.1394   1.1413   1.1431   1.1450   1.1465   1.1485
  1.1490   1.1510   1.1512   1.1529   1.1540   1.1556   1.1575   1.1585
  1.1595   1.1606   1.1615   1.1617   1.1626   1.1644   1.1652   1.1664
  1.1686   1.1694   1.1708   1.1722   1.1742   1.1751   1.1759   1.1786
  1.1789   1.1808   1.1821   1.1842   1.1850   1.1861   1.1877   1.1897
  1.1905   1.1913   1.1945   1.1956   1.1963   1.1988   1.2003   1.2013
  1.2020   1.2026   1.2045   1.2070   1.2081   1.2089   1.2112   1.2129
  1.2138   1.2159   1.2188   1.2210   1.2212   1.2225   1.2240   1.2286
  1.2287   1.2300   1.2318   1.2330   1.2372   1.2376   1.2417   1.2427
  1.2447   1.2467   1.2481   1.2497   1.2505   1.2538   1.2552   1.2575
  1.2592   1.2622   1.2651   1.2652   1.2690   1.2698   1.2724   1.2745
  1.2798   1.2829   1.2841   1.2878   1.2906   1.2920   1.2934   1.2958
  1.2982   1.3010   1.3026   1.3050   1.3071   1.3082   1.3121   1.3133
  1.3154   1.3164   1.3179   1.3200   1.3212   1.3235   1.3270   1.3284
  1.3297   1.3309   1.3333   1.3353   1.3369   1.3395   1.3424   1.3437
  1.3449   1.3468   1.3489   1.3491   1.3504   1.3545   1.3568   1.3574
  1.3591   1.3601   1.3616   1.3634   1.3651   1.3666   1.3694   1.3705
  1.3717   1.3725   1.3737   1.3743   1.3773   1.3781   1.3796   1.3807
  1.3817   1.3848   1.3857   1.3883   1.3893   1.3909   1.3916   1.3929
  1.3952   1.3956   1.3968   1.3995   1.4007   1.4012   1.4026   1.4031
  1.4071   1.4076   1.4091   1.4102   1.4127   1.4141   1.4153   1.4176
  1.4184   1.4186   1.4207   1.4218   1.4235   1.4252   1.4257   1.4275
  1.4310   1.4329   1.4342   1.4347   1.4354   1.4374   1.4380   1.4401
  1.4410   1.4444   1.4459   1.4478   1.4492   1.4496   1.4522   1.4526
  1.4541   1.4548   1.4563   1.4572   1.4595   1.4606   1.4614   1.4628
  1.4631   1.4689   1.4693   1.4695   1.4707   1.4731   1.4761   1.4779
  1.4804   1.4808   1.4837   1.4848   1.4866   1.4876   1.4888   1.4903
  1.4929   1.4941   1.4973   1.4996   1.5004   1.5038   1.5049   1.5051
  1.5079   1.5110   1.5127   1.5159   1.5190   1.5202   1.5223   1.5232
  1.5266   1.5281   1.5301   1.5337   1.5364   1.5389   1.5420   1.5436
  1.5466   1.5490   1.5510   1.5519   1.5528   1.5564   1.5640   1.5642
  1.5667   1.5716   1.5729   1.5765   1.5799   1.5811   1.5828   1.5858
  1.5906   1.5927   1.5994   1.6020   1.6067   1.6100   1.6149   1.6156
  1.6180   1.6223   1.6311   1.6375   1.6424   1.6456   1.6499   1.6539
  1.6549   1.6571   1.6586   1.6603   1.6638   1.6682   1.6687   1.6696
  1.6711   1.6721   1.6726   1.6732   1.6750   1.6770   1.6780   1.6797
  1.6813   1.6816   1.6825   1.6840   1.6848   1.6853   1.6878   1.6897
  1.6917   1.6924   1.6955   1.6960   1.6968   1.6979   1.6991   1.7006
  1.7016   1.7038   1.7043   1.7051   1.7071   1.7083   1.7092   1.7113
  1.7126   1.7139   1.7141   1.7143   1.7179   1.7188   1.7214   1.7220
  1.7238   1.7242   1.7256   1.7264   1.7278   1.7307   1.7314   1.7327
  1.7339   1.7349   1.7365   1.7380   1.7393   1.7409   1.7415   1.7435
  1.7454   1.7463   1.7467   1.7480   1.7485   1.7511   1.7523   1.7529
  1.7540   1.7561   1.7575   1.7584   1.7609   1.7624   1.7637   1.7644
  1.7653   1.7658   1.7681   1.7693   1.7700   1.7709   1.7723   1.7755
  1.7759   1.7773   1.7803   1.7812   1.7834   1.7884   1.7891   1.7907
  1.7925   1.7929   1.7957   1.7977   1.8007   1.8010   1.8044   1.8051
  1.8096   1.8109   1.8115   1.8147   1.8174   1.8181   1.8215   1.8241
  1.8253   1.8255   1.8293   1.8335   1.8368   1.8381   1.8390   1.8428
  1.8505   1.8523   1.8552   1.8555   1.8562   1.8589   1.8598   1.8634
  1.8637   1.8689   1.8698   1.8705   1.8726   1.8774   1.8800   1.8809
  1.8836   1.8840   1.8872   1.8885   1.8899   1.8910   1.8928   1.8936
  1.8961   1.8963   1.8981   1.8989   1.8998   1.9003   1.9007   1.9020
  1.9028   1.9056   1.9061   1.9065   1.9071   1.9084   1.9093   1.9103
  1.9116   1.9136   1.9140   1.9151   1.9175   1.9180   1.9193   1.9201
  1.9224   1.9229   1.9248   1.9253   1.9279   1.9288   1.9303   1.9316
  1.9331   1.9345   1.9363   1.9390   1.9402   1.9415   1.9450   1.9462
  1.9478   1.9513   1.9521   1.9545   1.9564   1.9578   1.9596   1.9612
  1.9656   1.9753   1.9765   1.9778   1.9792   1.9838   1.9897   1.9930
  1.9963   2.0008   2.0058   2.0114   2.0208   2.0250   2.0299   2.0404
  2.0443   2.0494   2.0503   2.0521   2.0533   2.0552   2.0583   2.0587
  2.0604   2.0630   2.0636   2.0649   2.0655   2.0696   2.0716   2.0747
  2.0773   2.0785   2.0807   2.0820   2.0834   2.0848   2.0862   2.0875
  2.0881   2.0894   2.0904   2.0911   2.0924   2.0944   2.0950   2.0960
  2.0962   2.0972   2.0988   2.1027   2.1035   2.1052   2.1060   2.1087
  2.1115   2.1129   2.1140   2.1144   2.1157   2.1181   2.1215   2.1228
  2.1264   2.1281   2.1296   2.1344   2.1382   2.1390   2.1416   2.1464
  2.1499   2.1585   2.1607   2.1627   2.1642   2.1696   2.1728   2.1771
  2.1777   2.1805   2.1826   2.1880   2.1909   2.1939   2.1964   2.1997
  2.2010   2.2039   2.2059   2.2068   2.2076   2.2090   2.2125   2.2145
  2.2159   2.2191   2.2195   2.2201   2.2206   2.2222   2.2234   2.2258
  2.2288   2.2299   2.2307   2.2325   2.2332   2.2341   2.2352   2.2363
  2.2370   2.2379   2.2388   2.2402   2.2408   2.2428   2.2436   2.2451
  2.2469   2.2473   2.2476   2.2489   2.2500   2.2503   2.2518   2.2529
  2.2546   2.2554   2.2565   2.2571   2.2575   2.2586   2.2596   2.2597
  2.2606   2.2625   2.2633   2.2635   2.2651   2.2654   2.2671   2.2673
  2.2677   2.2685   2.2694   2.2704   2.2713   2.2721   2.2739   2.2743
  2.2748   2.2752   2.2768   2.2785   2.2789   2.2800   2.2813   2.2822
  2.2833   2.2839   2.2848   2.2862   2.2868   2.2871   2.2886   2.2886
  2.2899   2.2918   2.2929   2.2936   2.2946   2.2954   2.2964   2.2978
  2.2982   2.3008   2.3033   2.3043   2.3057   2.3066   2.3073   2.3088
  2.3102   2.3110   2.3123   2.3145   2.3151   2.3159   2.3165   2.3175
  2.3187   2.3197   2.3217   2.3228   2.3255   2.3265   2.3292   2.3297
  2.3308   2.3323   2.3325   2.3333   2.3347   2.3361   2.3364   2.3376
  2.3390   2.3423   2.3433   2.3453   2.3480   2.3487   2.3501   2.3521
  2.3526   2.3541   2.3553   2.3580   2.3592   2.3599   2.3606   2.3615
  2.3633   2.3642   2.3688   2.3724   2.3732   2.3751   2.3790   2.3813
  2.3829   2.3882   2.3891   2.3936   2.4003   2.4071   2.4124   2.4131
  2.4152   2.4199   2.4249   2.4361   2.4428   2.4645   2.4823   2.5137
  2.5461   2.5935   2.6645   2.7235   2.7561   2.7810   2.7903   2.7929
  2.8215   2.8239   2.8276   2.8297   2.8309   2.8347   2.8367   2.8406
  2.8414   2.8442   2.8494   2.8541   2.8544   2.8557   2.8577   2.8597
  2.8603   2.8650   2.8672   2.8717   2.8735   2.8763   2.8781   2.8807
  2.8824   2.8862   2.8894   2.8941   2.8986   2.9469   3.1088   3.2623
  3.9363   3.9425   3.9524   3.9556   3.9634   3.9681   3.9683   3.9741
  3.9778   3.9816   3.9832   3.9866   3.9878   3.9905   3.9947   3.9962
  3.9984   4.0006   4.0033   4.0061   4.0080   4.0125   4.0138   4.0188
  4.0202   4.0220   4.0245   4.1938   4.2222   4.2249   4.2259   4.2341
  4.2382   4.2431   4.2491   4.2516   4.2528   4.2532   4.2563   4.2582
  4.2601   4.2616   4.2706   4.2743   4.2751   4.2782   4.2791   4.2800
  4.2846   4.2871   4.2899   4.2914   4.2940   4.2946   4.2982   4.2984
  4.2998   4.3016   4.3055   4.3085   4.3095   4.3146   4.3164   4.3187
  4.3200   4.3214   4.3252   4.3256   4.3302   4.3317   4.3333   4.3345
  4.3418   4.3429   4.3437   4.3449   4.3481   4.3513   4.3537   4.3603
  4.3612   4.3624   4.3669   4.3709   4.3761   4.3819   4.3843   4.3869
  4.3890   4.3994   4.4034   4.4088   4.4148   4.4166   4.4228   4.4288
  4.4413   4.4467   4.4554   4.4594   4.4677   4.4747   4.4909   4.4931
  4.5036   4.5131   4.5233   4.5273   4.5419   4.5619   4.5738   4.5903
  4.6530   4.6923   4.7231   4.7634   4.8999
 --------------------------------------------------------------
 
          Ground-State Mulliken Net Atomic Charges

     Atom                 Charge (a.u.)
  ----------------------------------------
      1 C                    -0.163132
      2 C                    -0.877318
      3 C                    -0.003380
      4 C                    -0.430133
      5 C                    -0.516015
      6 C                    -0.372163
      7 H                     0.211100
      8 H                     0.243381
      9 H                     0.198884
     10 H                     0.209432
     11 H                     0.211354
     12 H                     0.188830
     13 H                     0.202691
     14 H                     0.189785
     15 H                     0.204591
     16 H                     0.200043
     17 H                     0.189651
     18 N                    -0.367279
     19 H                     0.494065
     20 C                     0.299612
     21 H                     0.166334
     22 O                    -0.480332
     23 C                    -1.010001
     24 H                     0.307682
     25 H                     0.226384
     26 H                     0.232009
     27 S                     1.012468
     28 C                    -0.904463
     29 H                     0.318107
     30 H                     0.243766
     31 H                     0.262540
     32 O                    -0.717882
     33 C                    -0.810262
     34 H                     0.252599
     35 H                     0.232584
     36 H                     0.308789
     37 S                     0.473148
     38 C                    -0.688966
     39 H                     0.279997
     40 H                     0.258133
     41 H                     0.253422
     42 O                    -0.576866
     43 C                    -0.823380
     44 H                     0.272501
     45 H                     0.249304
     46 H                     0.252234
     47 S                     0.928435
     48 C                    -0.944872
     49 H                     0.219355
     50 H                     0.279324
     51 H                     0.276101
     52 O                    -0.662560
     53 C                    -0.939789
     54 H                     0.236133
     55 H                     0.245437
     56 H                     0.249546
     57 S                     1.098343
     58 C                    -0.930896
     59 H                     0.297948
     60 H                     0.249460
     61 H                     0.255112
     62 O                    -0.710125
     63 C                    -0.859012
     64 H                     0.312635
     65 H                     0.269248
     66 H                     0.265401
     67 S                     0.851397
     68 C                    -0.892952
     69 H                     0.247359
     70 H                     0.265720
     71 H                     0.264411
     72 O                    -0.700450
     73 C                    -0.887653
     74 H                     0.235761
     75 H                     0.240386
     76 H                     0.263293
     77 S                     1.190443
     78 C                    -0.980869
     79 H                     0.280402
     80 H                     0.215726
     81 H                     0.264612
     82 O                    -0.729038
     83 C                    -0.906117
     84 H                     0.266226
     85 H                     0.238316
     86 H                     0.249985
     87 S                     1.001631
     88 C                    -0.861461
     89 H                     0.244727
     90 H                     0.238744
     91 H                     0.268269
     92 O                    -0.712757
     93 C                    -0.894290
     94 H                     0.279382
     95 H                     0.249038
     96 H                     0.218753
     97 S                     1.151379
     98 C                    -1.107161
     99 H                     0.307089
    100 H                     0.230872
    101 H                     0.269867
    102 O                    -0.758774
    103 C                    -0.795727
    104 H                     0.278445
    105 H                     0.235705
    106 H                     0.271012
    107 S                     0.747086
    108 C                    -0.893741
    109 H                     0.261773
    110 H                     0.263106
    111 H                     0.238273
    112 O                    -0.634304
    113 C                    -1.061235
    114 H                     0.287289
    115 H                     0.241391
    116 H                     0.291943
    117 S                     1.312003
    118 C                    -1.066665
    119 H                     0.278747
    120 H                     0.251122
    121 H                     0.230252
    122 O                    -0.756727
    123 C                    -0.800552
    124 H                     0.249149
    125 H                     0.228094
    126 H                     0.265206
    127 S                     0.826941
    128 C                    -0.979848
    129 H                     0.281658
    130 H                     0.236559
    131 H                     0.240336
    132 O                    -0.664571
    133 C                    -0.824947
    134 H                     0.260375
    135 H                     0.235317
    136 H                     0.233995
    137 S                     0.956966
    138 C                    -0.832012
    139 H                     0.251412
    140 H                     0.209509
    141 H                     0.288060
    142 O                    -0.742308
    143 C                    -0.892234
    144 H                     0.323497
    145 H                     0.203123
    146 H                     0.235711
    147 S                     1.168078
    148 C                    -1.026260
    149 H                     0.233737
    150 H                     0.213136
    151 H                     0.316338
    152 O                    -0.754451
    153 C                    -0.910319
    154 H                     0.245890
    155 H                     0.227488
    156 H                     0.286164
    157 S                     1.011342
    158 C                    -0.863798
    159 H                     0.222602
    160 H                     0.240125
    161 H                     0.309909
    162 O                    -0.748071
    163 C                    -0.923896
    164 H                     0.259587
    165 H                     0.228231
    166 H                     0.280832
    167 S                     1.019904
    168 C                    -0.915652
    169 H                     0.264765
    170 H                     0.275303
    171 H                     0.277062
    172 O                    -0.748415
    173 C                    -0.982645
    174 H                     0.247413
    175 H                     0.257744
    176 H                     0.285475
    177 S                     1.326922
    178 C                    -1.238966
    179 H                     0.280120
    180 H                     0.220530
    181 H                     0.325461
    182 O                    -0.800769
    183 C                    -0.897270
    184 H                     0.282915
    185 H                     0.296377
    186 H                     0.228321
    187 S                     1.003118
    188 C                    -0.965342
    189 H                     0.289789
    190 H                     0.225937
    191 H                     0.243754
    192 O                    -0.710218
    193 C                    -0.898248
    194 H                     0.245327
    195 H                     0.250126
    196 H                     0.253778
    197 S                     0.944023
    198 C                    -0.842091
    199 H                     0.284128
    200 H                     0.231750
    201 H                     0.275375
    202 O                    -0.697502
    203 C                    -0.916032
    204 H                     0.243193
    205 H                     0.247409
    206 H                     0.255191
    207 S                     1.219522
    208 C                    -1.111461
    209 H                     0.247486
    210 H                     0.226996
    211 H                     0.274467
    212 O                    -0.636868
    213 C                    -0.768484
    214 H                     0.278420
    215 H                     0.279548
    216 H                     0.267009
    217 S                     0.888860
    218 C                    -1.032018
    219 H                     0.305683
    220 H                     0.268037
    221 H                     0.260626
    222 O                    -0.626701
    223 C                    -0.871055
    224 H                     0.255541
    225 H                     0.298768
    226 H                     0.234956
    227 S                     0.920190
    228 C                    -0.824359
    229 H                     0.238900
    230 H                     0.247942
    231 H                     0.260337
    232 O                    -0.758531
    233 C                    -0.979275
    234 H                     0.289287
    235 H                     0.249366
    236 H                     0.266271
    237 S                     0.932257
    238 C                    -0.909814
    239 H                     0.252032
    240 H                     0.267471
    241 H                     0.262347
    242 O                    -0.589740
    243 C                    -0.840863
    244 H                     0.234615
    245 H                     0.249675
    246 H                     0.274115
    247 S                     0.969853
    248 C                    -0.888153
    249 H                     0.230778
    250 H                     0.237660
    251 H                     0.265364
    252 O                    -0.727234
    253 C                    -0.844465
    254 H                     0.236054
    255 H                     0.259812
    256 H                     0.250013
    257 S                     0.849774
    258 C                    -0.773131
    259 H                     0.231272
    260 H                     0.249049
    261 H                     0.271332
    262 O                    -0.693692
    263 C                    -1.191963
    264 H                     0.279658
    265 H                     0.284623
    266 H                     0.245413
    267 S                     0.914579
    268 C                    -0.849494
    269 H                     0.268314
    270 H                     0.247734
    271 H                     0.245002
    272 O                    -0.646323
    273 C                    -0.794850
    274 H                     0.243929
    275 H                     0.270976
    276 H                     0.256313
    277 S                     0.752563
    278 C                    -0.844874
    279 H                     0.297280
    280 H                     0.227511
    281 H                     0.287509
    282 O                    -0.688780
    283 C                    -0.945959
    284 H                     0.326827
    285 H                     0.301597
    286 H                     0.264159
    287 S                     0.825695
    288 C                    -0.932036
    289 H                     0.247354
    290 H                     0.275570
    291 H                     0.232288
    292 O                    -0.721698
  ----------------------------------------
  Sum of atomic charges =     0.000000

 -----------------------------------------------------------------
                    Cartesian Multipole Moments
 -----------------------------------------------------------------
    Charge (ESU x 10^10)
                 0.0000
    Dipole Moment (Debye)
         X       2.5267      Y     -28.8884      Z     -16.3296
       Tot      33.2803
    Quadrupole Moments (Debye-Ang)
        XX    -752.2547     XY    -667.6060     YY   -2563.4315
        XZ    -277.3039     YZ   -1283.7973     ZZ   -1986.8224
    Octopole Moments (Debye-Ang^2)
       XXX  -71374.9671    XXY  -40840.4952    XYY  -66559.6100
       YYY -148496.0147    XXZ  -27382.9007    XYZ  -29256.7311
       YYZ  -86156.8024    XZZ  -48678.2396    YZZ  -79740.1063
       ZZZ -128209.7781
    Hexadecapole Moments (Debye-Ang^3)
      XXXX ************   XXXY ************   XXYY ************
      XYYY ************   YYYY ************   XXXZ ************
      XXYZ ************   XYYZ ************   YYYZ ************
      XXZZ ************   XYZZ ************   YYZZ ************
      XZZZ ************   YZZZ ************   ZZZZ ************
 -----------------------------------------------------------------
Archival summary:
[...]
    2   0.0047537   0.0144147   0.0139681   0.0213854  -0.0306038  -0.0011606
    3  -0.0025983   0.0192638  -0.0209459  -0.0107296   0.0050828  -0.0084064
          139         140         141         142         143         144
    1  -0.0237906  -0.0175897   0.0131303  -0.0731731   0.0014105  -0.0180144
    2  -0.0197033   0.0153024  -0.0049711   0.0149582  -0.0061800  -0.0274855
    3   0.0074337  -0.0126656  -0.0336952   0.0809841   0.0036679   0.0105205
          145         146         147         148         149         150
    1   0.0226907   0.0098190  -0.0078299   0.0037911   0.0109376   0.0276905
    2  -0.0156768   0.0021510   0.0005317   0.0070579  -0.0036620   0.0192477
    3  -0.0210607   0.0316638  -0.0499367   0.0026855   0.0298948  -0.0199365
          151         152         153         154         155         156
    1  -0.0202465  -0.0793086   0.0077322   0.0213215   0.0176910  -0.0111436
    2   0.0234066   0.0016771  -0.0043241  -0.0075665   0.0098228  -0.0283326
    3   0.0006119   0.0773884   0.0007624  -0.0258749   0.0282703   0.0083020
          157         158         159         160         161         162
    1   0.0090862   0.0001669   0.0221127  -0.0292130  -0.0167789  -0.0724408
    2   0.0415323   0.0012510   0.0215964   0.0084283  -0.0227205  -0.0794788
    3  -0.0286575   0.0072595   0.0215370   0.0060876   0.0195845  -0.0234086
          163         164         165         166         167         168
    1   0.0021616   0.0005462  -0.0292040   0.0189123  -0.0083749   0.0088236
    2  -0.0040013   0.0132227  -0.0113114  -0.0303479  -0.0188871   0.0000513
    3   0.0042869   0.0304148   0.0015853  -0.0049747  -0.0537492  -0.0002434
          169         170         171         172         173         174
    1   0.0106341   0.0116296   0.0190630  -0.0420318  -0.0041081  -0.0347195
    2   0.0285159  -0.0197557  -0.0016226   0.0926578  -0.0014279   0.0079769
    3   0.0060319   0.0184628  -0.0231542   0.0406026   0.0062143   0.0019557
          175         176         177         178         179         180
    1  -0.0013666   0.0048647  -0.0031672   0.0107737   0.0054107  -0.0011363
    2  -0.0261327   0.0027495   0.0123866  -0.0008381   0.0016332  -0.0300797
    3  -0.0152933   0.0318283  -0.0507248   0.0055070   0.0381974  -0.0114744
          181         182         183         184         185         186
    1   0.0318600   0.0385494   0.0048035   0.0256046  -0.0007209  -0.0234509
    2   0.0053946   0.0679096   0.0033978  -0.0113241   0.0276824  -0.0165216
    3  -0.0112745   0.0988009   0.0059797   0.0175781   0.0092173   0.0209821
          187         188         189         190         191         192
    1  -0.0506605   0.0048900   0.0243573  -0.0306009   0.0114631   0.1015744
    2   0.0236082  -0.0077826  -0.0224845  -0.0086818  -0.0073563   0.0246717
    3  -0.0236017   0.0059011   0.0179642   0.0070957  -0.0266817  -0.0344779
          193         194         195         196         197         198
    1  -0.0066924  -0.0181497  -0.0187115   0.0029615   0.0392471  -0.0059001
    2   0.0037588  -0.0225780   0.0163345   0.0267419   0.0329058  -0.0077867
    3  -0.0063317  -0.0126587   0.0182851  -0.0258691   0.0036792  -0.0013295
          199         200         201         202         203         204
    1   0.0096058  -0.0254692   0.0136956  -0.0553427   0.0026372  -0.0141395
    2  -0.0283350  -0.0162448   0.0000358  -0.0370943  -0.0046959  -0.0239478
    3   0.0119901  -0.0139337  -0.0290246   0.0890684  -0.0014562   0.0184314
          205         206         207         208         209         210
    1   0.0075524   0.0289751  -0.0106898  -0.0044983   0.0052033  -0.0206336
    2  -0.0053083  -0.0186360   0.0058847   0.0031703  -0.0030941  -0.0201675
    3  -0.0311672   0.0058333   0.0567264  -0.0037503  -0.0300970   0.0095583
          211         212         213         214         215         216
    1  -0.0199632   0.0650247   0.0074427   0.0331170   0.0133867  -0.0001166
    2   0.0307733   0.0660538  -0.0008697  -0.0052200   0.0278062  -0.0203237
    3  -0.0111683  -0.0591104   0.0021292  -0.0228392   0.0043543   0.0211248
          217         218         219         220         221         222
    1  -0.0062898   0.0053609   0.0133687   0.0319636  -0.0180986  -0.0688843
    2  -0.0420796   0.0082782   0.0203760  -0.0096173   0.0268673   0.0501395
    3  -0.0323185  -0.0075335   0.0226926  -0.0203182  -0.0113382   0.0666257
          223         224         225         226         227         228
    1   0.0105890  -0.0017922   0.0109877   0.0295408  -0.0003673   0.0012730
    2  -0.0052859  -0.0038634  -0.0308394   0.0173553   0.0098420   0.0066512
    3   0.0010888   0.0315379  -0.0067165  -0.0157845  -0.0509740   0.0033981
          229         230         231         232         233         234
    1   0.0153349  -0.0304614   0.0017162  -0.0640378   0.0056427   0.0137727
    2   0.0311606   0.0014460  -0.0121312  -0.0736657   0.0036962   0.0112336
    3  -0.0154322   0.0016564   0.0313419   0.0495996  -0.0060867  -0.0351699
          235         236         237         238         239         240
    1   0.0108085   0.0142294  -0.0215763  -0.0039072  -0.0030689  -0.0286659
    2   0.0145504  -0.0259884  -0.0250646   0.0092586   0.0142985   0.0008100
    3   0.0250886   0.0010994  -0.0418648   0.0013299  -0.0352708   0.0111965
          241         242         243         244         245         246
    1   0.0144810   0.0121981   0.0039273  -0.0164062   0.0289866   0.0016375
    2   0.0037467  -0.0436891  -0.0043525  -0.0228325   0.0010177  -0.0194516
    3   0.0337018   0.0983938   0.0021752  -0.0163900  -0.0070216   0.0289713
          247         248         249         250         251         252
    1  -0.0523457   0.0007220   0.0346072  -0.0343591   0.0101107   0.0867105
    2   0.0054820   0.0010732  -0.0009500  -0.0116340   0.0286004   0.0620769
    3   0.0235429  -0.0079692  -0.0121150  -0.0077854  -0.0117816   0.0257319
          253         254         255         256         257         258
    1  -0.0043871   0.0116682  -0.0267347  -0.0092754  -0.0248087   0.0080443
    2   0.0000953  -0.0080962   0.0196583  -0.0311325  -0.0152688  -0.0019095
    3   0.0074993   0.0301656   0.0013472  -0.0005928  -0.0531746   0.0035520
          259         260         261         262         263         264
    1   0.0121068  -0.0008125   0.0242797   0.0301188   0.0042036  -0.0003573
    2  -0.0084507  -0.0330968   0.0004302   0.1030222   0.0081288   0.0273274
    3   0.0309855  -0.0048634  -0.0201978   0.0231471  -0.0013845   0.0161516
          265         266         267         268         269         270
    1   0.0301383  -0.0141568  -0.0112927  -0.0047518   0.0023865  -0.0171938
    2  -0.0004482   0.0108850  -0.0343348   0.0031728   0.0127016   0.0148480
    3   0.0014351  -0.0294428  -0.0448929   0.0036713   0.0321807  -0.0252954
          271         272         273         274         275         276
    1  -0.0225761   0.0618125  -0.0007661   0.0026586  -0.0295725   0.0224840
    2  -0.0155360  -0.0321893   0.0058352   0.0272355   0.0001237   0.0063873
    3   0.0235018   0.0855242   0.0083381  -0.0099662   0.0179336   0.0242400
          277         278         279         280         281         282
    1  -0.0388259  -0.0047639   0.0250290   0.0159098  -0.0362754   0.1095305
    2  -0.0098523  -0.0077452  -0.0244319   0.0003603  -0.0103272  -0.0126532
    3  -0.0389519   0.0077141  -0.0011803   0.0309795   0.0083109  -0.0122860
          283         284         285         286         287         288
    1   0.0015491   0.0175495   0.0179878  -0.0333445   0.0491693  -0.0041300
    2  -0.0035983   0.0241322  -0.0241902   0.0022408  -0.0153784  -0.0025513
    3  -0.0148770  -0.0158348  -0.0223032   0.0008143   0.0079753  -0.0000179
          289         290         291         292
    1  -0.0014778  -0.0288518  -0.0009280  -0.0411933
    2  -0.0047262   0.0071512  -0.0393056   0.0976118
    3   0.0324500  -0.0160633   0.0045417   0.0237334
  --- DONE ESP SUMMARY ---
Archival summary:
1\1\n0071.mhg0\SP\ProcedureUnspecified\6-31+G*\272754h22\ymao\ThuMar1121:00:432021ThuMar1121:00:432021\0\\#,ProcedureUnspecified,6-31+G*,\\0,1\S\O,1,1.4972\Gh,2,1.77717,1,138.106\Gh,3,1.01327,2,163.459,1,130.285,0\Gh,4,1.37821,3,117.581,2,75.433,0\Gh,5,1.10484,4,110.602,3,0.522327,0\Gh,5,1.21863,4,119.784,3,-178.43,0\Gh,4,1.4617,3,119.404,2,-108.351,0\Gh,8,1.09666,4,106.669,3,171.6,0\Gh,8,1.53734,4,110.192,3,-70.8065,0\Gh,10,1.09672,8,103.969,4,59.1451,0\Gh,10,1.09736,8,112.399,4,-55.7132,0\Gh,8,1.53785,4,114.189,3,53.5707,0\Gh,13,1.09623,8,115.761,4,-64.2051,0\Gh,13,1.09639,8,103.702,4,58.7211,0\Gh,10,1.53791,8,112.113,4,-179.244,0\Gh,16,1.09684,10,111.171,8,-172.777,0\Gh,16,1.09695,10,109.132,8,71.3334,0\Gh,16,1.53734,10,113.235,8,-50.6567,0\Gh,19,1.0963,16,111.3,10,-67.631,0\Gh,19,1.09706,16,108.848,10,175.966,0\Gh,13,1.53813,8,111.925,4,176.942,0\Gh,22,1.09605,13,111.279,8,-58.0037,0\Gh,22,1.0961,13,110.341,8,-178.452,0\C,1,1.80712,2,99.8587,3,-15.8136,0\H,25,1.09255,1,107.004,2,154.785,0\H,25,1.09305,1,112.606,2,-80.937,0\H,25,1.09347,1,104.28,2,37.3039,0\C,1,1.80741,2,107.073,3,82.4839,0\H,29,1.09294,1,111.58,2,-28.6571,0\H,29,1.09308,1,99.6089,2,90.5744,0\H,29,1.09309,1,112.975,2,-153.767,0\O,27,2.25976,25,164.008,1,-128.165,0\S,33,1.49748,27,106.017,25,119.484,0\C,34,1.80637,33,106.532,27,-43.5098,0\H,35,1.0926,34,106.955,33,-155.828,0\H,35,1.09271,34,107.235,33,-41.4961,0\H,35,1.09346,34,116.124,33,91.8468,0\C,34,1.80687,33,102.437,27,54.6037,0\H,39,1.09269,34,107.692,33,85.1181,0\H,39,1.09319,34,109.791,33,-44.2389,0\H,39,1.09327,34,110.571,33,-165.57,0\H,12,2.30217,10,162.058,8,-61.5926,0\C,43,1.09308,12,122.197,10,-131.181,0\H,44,1.09272,43,100.968,12,133.503,0\H,44,1.09343,43,114.853,12,10.5141,0\S,44,1.80703,43,113.353,12,-114.932,0\O,47,1.49742,44,101.771,43,-71.0605,0\C,47,1.80687,44,93.9309,43,-179.945,0\H,49,1.09257,47,110.208,44,174.269,0\H,49,1.0928,47,107.338,44,52.5078,0\H,49,1.09335,47,102.654,44,-69.5417,0\H,23,2.32196,22,121.252,13,156.453,0\C,53,1.09289,23,151.273,22,137.639,0\H,54,1.09262,53,109.485,23,-130.72,0\H,54,1.09322,53,107.645,23,95.6268,0\S,54,1.80681,53,112.374,23,-19.42,0\O,57,1.49806,54,103.719,53,59.3748,0\C,57,1.80668,54,94.8973,53,-46.8331,0\H,59,1.09302,57,106.992,54,-75.4182,0\H,59,1.09332,57,112.052,54,165.507,0\H,59,1.09361,57,115.572,54,42.4812,0\H,55,2.30133,54,109.636,53,167.852,0\C,63,1.09296,55,128.874,54,-173.66,0\H,64,1.09281,63,114.099,55,-89.7938,0\H,64,1.0931,63,109.426,55,148.642,0\S,64,1.80691,63,105.189,55,41.9383,0\O,67,1.49717,64,104.54,63,74.456,0\C,67,1.80645,64,98.1102,63,-177.938,0\H,69,1.09263,67,108.695,64,-143.638,0\H,69,1.09271,67,106.17,64,-20.6774,0\H,69,1.09358,67,102.986,64,100.823,0\H,65,2.24781,64,130.312,63,84.5312,0\C,73,1.09345,65,124.874,64,-91.2715,0\H,74,1.09252,73,108.525,65,176.229,0\H,74,1.09274,73,110.062,65,-64.3803,0\S,74,1.80673,73,110.204,65,60.0443,0\O,77,1.49685,74,95.9724,73,62.5611,0\C,77,1.80727,74,98.6717,73,163.622,0\H,79,1.09226,77,112.363,74,101.161,0\H,79,1.09246,77,102.127,74,-141.029,0\H,79,1.09356,77,114.29,74,-20.5138,0\H,81,1.90753,79,164.608,77,8.45994,0\C,83,1.09222,81,140.356,79,89.8514,0\H,84,1.09303,83,111.469,81,-79.2254,0\H,84,1.09356,83,112.036,81,149.094,0\S,84,1.8078,83,108.685,81,35.1159,0\O,87,1.49616,84,98.7423,83,55.6696,0\C,87,1.80648,84,98.4942,83,162.204,0\H,89,1.09264,87,109.992,84,-30.3323,0\H,89,1.09293,87,105.943,84,89.0253,0\H,89,1.09364,87,105.431,84,-157.975,0\H,90,2.01725,89,166.276,87,158.095,0\C,93,1.09303,90,124.447,89,-75.9679,0\H,94,1.09177,93,113.377,90,-45.7846,0\H,94,1.09282,93,112.328,90,-169.878,0\S,94,1.80776,93,100.631,90,74.8417,0\O,97,1.49691,94,97.9722,93,-70.0304,0\C,97,1.80616,94,95.4438,93,-168.528,0\H,99,1.09282,97,110.414,94,107.21,0\H,99,1.09301,97,109.362,94,-132.043,0\H,99,1.09373,97,109.249,94,-14.3518,0\H,95,2.1251,94,147.509,93,98.2112,0\C,103,1.09297,95,137.447,94,112.418,0\H,104,1.0926,103,112.978,95,-87.4218,0\H,104,1.09326,103,110.141,95,37.6698,0\S,104,1.80719,103,116.238,95,149.142,0\O,107,1.49734,104,100.532,103,178.741,0\C,107,1.80647,104,93.6659,103,69.1188,0\H,109,1.09256,107,101.225,104,172.043,0\H,109,1.09327,107,106.916,104,-70.1813,0\H,109,1.0934,107,110.841,104,47.7471,0\H,93,2.24915,90,106.118,89,156.628,0\C,113,1.09263,93,106.706,90,-20.9885,0\H,114,1.09328,113,110.735,93,-54.7195,0\H,114,1.0935,113,116.556,93,73.856,0\S,114,1.80691,113,106.799,93,-164.654,0\O,117,1.49653,114,105.374,113,-54.1229,0\C,117,1.80607,114,99.1421,113,50.9293,0\H,119,1.09278,117,108.36,114,57.3598,0\H,119,1.09324,117,107.302,114,-58.1922,0\H,119,1.09375,117,115.722,114,-171.055,0\H,80,2.33473,79,124.779,77,-20.8861,0\C,123,1.09298,80,97.8438,79,-179.922,0\H,124,1.09212,123,106.947,80,156.819,0\H,124,1.09324,123,113.575,80,28.2287,0\S,124,1.80675,123,107.809,80,-85.7471,0\O,127,1.49736,124,100.19,123,168.065,0\C,127,1.80684,124,99.4108,123,-89.9615,0\H,129,1.09264,127,109.823,124,-30.0711,0\H,129,1.09288,127,103.783,124,86.5028,0\H,129,1.09378,127,109.678,124,-153.753,0\H,2,2.34655,1,110.578,3,-120.891,0\C,133,1.09284,2,157.802,1,147.513,0\H,134,1.0929,133,107.979,2,173.627,0\H,134,1.09297,133,110.425,2,52.0115,0\S,134,1.80686,133,112.221,2,-76.9526,0\O,137,1.49664,134,100.603,133,-173.347,0\C,137,1.80647,134,96.9246,133,75.7851,0\H,139,1.0927,137,106.483,134,176.322,0\H,139,1.09313,137,105.411,134,-72.3101,0\H,139,1.09342,137,110.885,134,58.8924,0\H,135,1.99598,134,129.724,133,47.5128,0\C,143,1.09316,135,117.193,134,138.465,0\H,144,1.09293,143,111.152,135,-171.729,0\H,144,1.09326,143,110.891,135,-45.616,0\S,144,1.80705,143,108.497,135,65.1654,0\O,147,1.49664,144,103.413,143,-27.3084,0\C,147,1.80652,144,97.0127,143,75.7607,0\H,149,1.09319,147,109.112,144,-35.0954,0\H,149,1.09333,147,117.352,144,79.8281,0\H,149,1.09357,147,104.525,144,-161.64,0\H,133,2.19741,2,78.7826,1,-65.8212,0\C,153,1.09278,133,168.614,2,-151.101,0\H,154,1.09319,153,111.205,133,8.15978,0\H,154,1.09351,153,108.326,133,-114.417,0\S,154,1.80697,153,109.994,133,134.084,0\O,157,1.49702,154,103.226,153,-161.754,0\C,157,1.80739,154,96.7792,153,-53.9412,0\H,159,1.09255,157,112.523,154,-19.1163,0\H,159,1.0933,157,116.996,154,-145.371,0\H,159,1.09332,157,107.29,154,95.5032,0\O,40,2.35779,39,126.63,34,72.9385,0\S,163,1.49723,40,170.556,39,74.784,0\C,164,1.80673,163,103.735,40,139.119,0\H,165,1.09298,164,103.214,163,173.626,0\H,165,1.09305,164,107.922,163,63.2473,0\H,165,1.09307,164,119.849,163,-66.0275,0\C,164,1.80723,163,101.01,40,39.3447,0\H,169,1.09266,164,112.127,163,-63.7004,0\H,169,1.09317,164,105.005,163,-178.175,0\H,169,1.09324,164,113.854,163,70.6387,0\H,167,2.29138,165,104.666,164,-86.2776,0\C,173,1.093,167,120.715,165,173.231,0\H,174,1.0921,173,110.412,167,-147.986,0\H,174,1.09323,173,107.813,167,80.0842,0\S,174,1.80753,173,105.771,167,-28.3646,0\O,177,1.49656,174,102.602,173,75.0104,0\C,177,1.80718,174,98.2195,173,179.936,0\H,179,1.09291,177,100.66,174,-40.3175,0\H,179,1.09308,177,110.506,174,-158.548,0\H,179,1.09382,177,114.788,174,73.8747,0\H,170,2.34067,169,108.155,164,107.914,0\C,183,1.09271,170,147.769,169,90.8765,0\H,184,1.09305,183,109.173,170,-57.7777,0\H,184,1.0932,183,109.929,170,-168.938,0\S,184,1.80593,183,110.663,170,68.7949,0\O,187,1.49708,184,102.881,183,40.5254,0\C,187,1.80689,184,87.9661,183,-67.1962,0\H,189,1.09215,187,110.06,184,179.543,0\H,189,1.0931,187,103.773,184,63.7826,0\H,189,1.09354,187,108.736,184,-57.0836,0\H,140,2.38114,139,147.265,137,63.0579,0\C,193,1.09285,140,100.867,139,-89.3643,0\H,194,1.09275,193,106.052,140,70.5551,0\H,194,1.09312,193,112.341,140,-48.7951,0\S,194,1.80698,193,111.469,140,-171.009,0\O,197,1.49648,194,105.774,193,47.7986,0\C,197,1.80618,194,94.4961,193,156.32,0\H,199,1.09306,197,107.25,194,-58.8692,0\H,199,1.09313,197,102.259,194,174.632,0\H,199,1.09351,197,112.68,194,58.6015,0\O,185,2.38663,184,138.628,183,-114.631,0\S,203,1.49704,185,126.703,184,62.2215,0\C,204,1.80695,203,109.676,185,7.27064,0\H,205,1.09266,204,117.98,203,-57.3974,0\H,205,1.09293,204,113.269,203,178.876,0\H,205,1.09308,204,103.954,203,60.6452,0\C,204,1.80751,203,102.987,185,-89.8572,0\H,209,1.09271,204,103.932,203,-77.1996,0\H,209,1.09293,204,105.942,203,167.522,0\H,209,1.09348,204,114.256,203,45.4886,0\H,210,2.39967,209,154.433,204,113.664,0\C,213,1.09339,210,122.255,209,-106.539,0\H,214,1.09253,213,104.994,210,157.461,0\H,214,1.09328,213,112.177,210,-77.7292,0\S,214,1.80687,213,109.828,210,45.846,0\O,217,1.49695,214,110.104,213,151.569,0\C,217,1.80638,214,97.4746,213,44.8991,0\H,219,1.09263,217,104.291,214,168.731,0\H,219,1.09356,217,109.42,214,-66.3839,0\H,219,1.09367,217,103.841,214,48.6199,0\H,215,2.20406,214,120.13,213,4.80134,0\C,223,1.09334,215,126.021,214,73.4742,0\H,224,1.0933,223,112.685,215,28.8056,0\H,224,1.0934,223,107.702,215,151.002,0\S,224,1.8069,223,108.047,215,-90.7763,0\O,227,1.49731,224,108.664,223,79.5603,0\C,227,1.80668,224,96.9788,223,-177.431,0\H,229,1.09296,227,106.297,224,82.9126,0\H,229,1.09306,227,110.564,224,-160.512,0\H,229,1.09344,227,106.689,224,-32.2066,0\H,81,2.4027,79,117.063,77,-156.362,0\C,233,1.09304,81,121.05,79,74.2517,0\H,234,1.09267,233,107.043,81,129.662,0\H,234,1.09331,233,104.194,81,15.5362,0\S,234,1.80654,233,106.701,81,-104.335,0\O,237,1.49724,234,101.265,233,42.0939,0\C,237,1.80729,234,92.7862,233,-60.3477,0\H,239,1.09201,237,108.558,234,63.1184,0\H,239,1.09303,237,102.31,234,-56.3758,0\H,239,1.09363,237,109.277,234,-175.915,0\H,142,2.4092,139,151.438,137,78.8818,0\C,243,1.0936,142,111.623,139,129.611,0\H,244,1.09222,243,109.783,142,-70.5611,0\H,244,1.09343,243,112.041,142,62.9358,0\S,244,1.80715,243,105.1,142,171.631,0\O,247,1.49758,244,110.598,243,68.2566,0\C,247,1.80677,244,91.7952,243,-35.6406,0\H,249,1.09261,247,116.164,244,28.9407,0\H,249,1.09301,247,108.156,244,154.799,0\H,249,1.09336,247,104.178,244,-84.7233,0\O,136,2.42659,134,162.897,133,119.058,0\S,253,1.49749,136,87.128,134,-57.0471,0\C,254,1.80719,253,99.1422,136,-111.069,0\H,255,1.09234,254,105.047,253,-178.883,0\H,255,1.09256,254,110.173,253,-65.8534,0\H,255,1.0932,254,113.08,253,61.8208,0\C,254,1.80774,253,104.231,136,153.521,0\H,259,1.0923,254,114.787,253,50.3791,0\H,259,1.09238,254,110.941,253,162.631,0\H,259,1.09335,254,110.12,253,-78.5694,0\H,135,2.43381,134,105.923,133,-146.543,0\C,263,1.09341,135,146.532,134,-79.1429,0\H,264,1.09266,263,116.134,135,164.049,0\H,264,1.09281,263,109.887,135,36.3527,0\S,264,1.80736,263,104.28,135,-85.634,0\O,267,1.49711,264,104.577,263,-134.032,0\C,267,1.80663,264,97.5104,263,116.548,0\H,269,1.09224,267,108.75,264,64.8175,0\H,269,1.09293,267,106.5,264,-50.9017,0\H,269,1.09296,267,107.068,264,-173.21,0\O,61,2.45092,59,164.987,57,-43.0465,0\S,273,1.4966,61,136.896,59,65.22,0\C,274,1.80736,273,105.611,61,41.7528,0\H,275,1.09263,274,106.263,273,-145.364,0\H,275,1.09317,274,115.415,273,-17.7533,0\H,275,1.09339,274,106.525,273,104.393,0\C,274,1.80781,273,101.095,61,-54.6609,0\H,279,1.09267,274,109.894,273,-80.4814,0\H,279,1.09299,274,103.396,273,169.138,0\H,279,1.09359,274,108.025,273,53.5983,0\O,120,2.45753,119,115.955,117,-96.9909,0\S,283,1.49683,120,108.488,119,-178.922,0\C,284,1.80692,283,108.582,120,-101.995,0\H,285,1.09239,284,106.872,283,179.245,0\H,285,1.09292,284,103.514,283,57.9216,0\H,285,1.09331,284,112,283,-55.2862,0\C,284,1.8074,283,107.16,120,-7.31822,0\H,289,1.09263,284,106.311,283,-57.4161,0\H,289,1.09295,284,111.635,283,57.1987,0\H,289,1.09335,284,109.924,283,176.37,0\\\@

 Total job time:  43.19s(wall), 131.34s(cpu) 
 Thu Mar 11 21:00:43 2021

        *************************************************************
        *                                                           *
        *  Thank you very much for using Q-Chem.  Have a nice day.  *
        *                                                           *
        *************************************************************


