                  Welcome to Q-Chem
     A Quantum Leap Into The Future Of Chemistry


 Q-Chem 5.2 (devel), Q-Chem, Inc., Pleasanton, CA (2019)

 Yihan Shao,  Zhengting Gan,  E. Epifanovsky,  A. T. B. Gilbert,  M. Wormit,  
 J. Kussmann,  A. W. Lange,  A. Behn,  Jia Deng,  Xintian Feng,  D. Ghosh,  
 M. Goldey,  P. R. Horn,  L. D. Jacobson,  I. Kaliman,  T. Kus,  A. Landau,  
 Jie Liu,  E. I. Proynov,  R. M. Richard,  R. P. Steele,  E. J. Sundstrom,  
 H. L. Woodcock III,  P. M. Zimmerman,  D. Zuev,  B. Alam,  B. Albrecht,  
 E. Alguire,  S. A. Baeppler,  D. Barton,  Z. Benda,  Y. A. Bernard,  
 E. J. Berquist,  K. B. Bravaya,  H. Burton,  K. Carter-Fenk,  D. Casanova,  
 Chun-Min Chang,  Yunqing Chen,  A. Chien,  K. D. Closser,  M. P. Coons,  
 S. Coriani,  S. Dasgupta,  A. L. Dempwolff,  M. Diedenhofen,  Hainam Do,  
 R. G. Edgar,  Po-Tung Fang,  S. Faraji,  S. Fatehi,  Qingguo Feng,  
 J. Fosso-Tande,  J. Gayvert,  Qinghui Ge,  A. Ghysels,  G. Gidofalvi,  
 J. Gomes,  J. Gonthier,  A. Gunina,  D. Hait,  M. W. D. Hanson-Heine,  
 P. H. P. Harbach,  A. W. Hauser,  M. F. Herbst,  J. E. Herr,  
 E. G. Hohenstein,  Z. C. Holden,  Kerwin Hui,  B. C. Huynh,  T.-C. Jagau,  
 Hyunjun Ji,  B. Kaduk,  K. Khistyaev,  Jaehoon Kim,  P. Klunzinger,  K. Koh,  
 D. Kosenkov,  L. Koulias,  T. Kowalczyk,  C. M. Krauter,  A. Kunitsa,  
 Ka Un Lao,  A. Laurent,  K. V. Lawler,  Joonho Lee,  D. Lefrancois,  
 S. Lehtola,  D. S. Levine,  Yi-Pei Li,  You-Sheng Lin,  Fenglai Liu,  
 Kuan-Yu Liu,  E. Livshits,  M. Loipersberger,  A. Luenser,  P. Manohar,  
 E. Mansoor,  S. F. Manzer,  Shan-Ping Mao,  Yuezhi Mao,  N. Mardirossian,  
 A. V. Marenich,  T. Markovich,  L. A. Martinez-Martinez,  S. A. Maurer,  
 N. J. Mayhall,  S. C. McKenzie,  J.-M. Mewes,  P. Morgante,  A. F. Morrison,  
 J. W. Mullinax,  K. Nanda,  T. S. Nguyen-Beck,  R. Olivares-Amaya,  
 J. A. Parkhill,  S. K. Paul,  F. Pavosevic,  Zheng Pei,  T. M. Perrine,  
 F. Plasser,  P. Pokhilko,  S. Prager,  A. Prociuk,  E. Ramos,  B. Rana,  
 D. R. Rehn,  F. Rob,  M. Scheurer,  M. Schneider,  N. Sergueev,  
 S. M. Sharada,  S. Sharma,  D. W. Small,  T. Stauch,  C. J. Stein,  
 T. Stein,  Yu-Chuan Su,  S. P. Veccham,  Zhen Tao,  A. J. W. Thom,  
 A. Tkatchenko,  T. Tsuchimochi,  N. M. Tubman,  L. Vogt,  M. L. Vidal,  
 O. Vydrov,  M. A. Watson,  J. Wenzel,  M. de Wergifosse,  T. A. Wesolowski,  
 A. White,  J. Witte,  A. Yamada,  Jun Yang,  K. Yao,  S. Yeganeh,  
 S. R. Yost,  Zhi-Qiang You,  A. Zech,  Igor Ying Zhang,  Xing Zhang,  
 Yan Zhao,  Ying Zhu,  B. R. Brooks,  G. K. L. Chan,  C. J. Cramer,  
 M. S. Gordon,  W. J. Hehre,  A. Klamt,  M. W. Schmidt,  C. D. Sherrill,  
 D. G. Truhlar,  A. Aspuru-Guzik,  R. Baer,  A. T. Bell,  N. A. Besley,  
 Jeng-Da Chai,  A. E. DePrince, III,  R. A. DiStasio Jr.,  A. Dreuw,  
 B. D. Dunietz,  T. R. Furlani,  Chao-Ping Hsu,  Yousung Jung,  Jing Kong,  
 D. S. Lambrecht,  WanZhen Liang,  C. Ochsenfeld,  V. A. Rassolov,  
 L. V. Slipchenko,  J. E. Subotnik,  T. Van Voorhis,  J. M. Herbert,  
 A. I. Krylov,  P. M. W. Gill,  M. Head-Gordon

 Contributors to earlier versions of Q-Chem not listed above: 
 R. D. Adamson,  B. Austin,  J. Baker,  G. J. O. Beran,  K. Brandhorst,  
 S. T. Brown,  E. F. C. Byrd,  A. K. Chakraborty,  C.-L. Cheng,  
 Siu Hung Chien,  D. M. Chipman,  D. L. Crittenden,  H. Dachsel,  
 R. J. Doerksen,  A. D. Dutoi,  L. Fusti-Molnar,  W. A. Goddard III,  
 A. Golubeva-Zadorozhnaya,  S. R. Gwaltney,  G. Hawkins,  A. Heyden,  
 S. Hirata,  G. Kedziora,  F. J. Keil,  C. Kelley,  Jihan Kim,  R. A. King,  
 R. Z. Khaliullin,  P. P. Korambath,  W. Kurlancheek,  A. M. Lee,  M. S. Lee,  
 S. V. Levchenko,  Ching Yeh Lin,  D. Liotard,  R. C. Lochan,  I. Lotan,  
 P. E. Maslen,  N. Nair,  D. P. O'Neill,  D. Neuhauser,  E. Neuscamman,  
 C. M. Oana,  R. Olson,  B. Peters,  R. Peverati,  P. A. Pieniazek,  
 Y. M. Rhee,  J. Ritchie,  M. A. Rohrdanz,  E. Rosta,  N. J. Russ,  
 H. F. Schaefer III,  N. E. Schultz,  N. Shenvi,  A. C. Simmonett,  A. Sodt,  
 D. Stuck,  K. S. Thanthiriwatte,  V. Vanovschi,  Tao Wang,  A. Warshel,  
 C. F. Williams,  Q. Wu,  X. Xu,  W. Zhang

 Please cite Q-Chem as follows:
 Y. Shao et al., Mol. Phys. 113, 184-215 (2015)
 DOI: 10.1080/00268976.2014.952696

 Q-Chem 5.2.2 for Intel X86 EM64T Linux

 Parts of Q-Chem use Armadillo 9.800.1 (Horizon Scraper).
 http://arma.sourceforge.net/

 Q-Chem begins on Thu Mar 11 13:37:48 2021  

Host: n0100.mhg0
0

     Scratch files written to /local/scratch/users/ymao/r7.00_frame_0059_almo_B3LYP_dp.in20210311133745//

Checking the input file for inconsistencies... 	...done.

--------------------------------------------------------------
User input:
--------------------------------------------------------------
$molecule
0 1
--
0 1
C    24.00800   22.23000   27.03400  
C    25.35100   22.94800   27.25000  
C    26.40900   22.37100   26.29600  
C    25.95000   22.46000   24.83100  
C    24.53200   21.92700   24.56800  
C    23.51300   22.44600   25.59500  
H    27.39000   22.84500   26.41800  
H    25.25600   24.02600   27.07600  
H    24.02900   21.14300   27.17800  
H    23.33700   22.67300   27.78000  
H    26.14400   23.45700   24.41800  
H    26.55400   21.73300   24.27500  
H    24.16900   22.24400   23.58200  
H    24.44900   20.83300   24.57400  
H    23.41500   23.52900   25.45100  
H    22.47500   22.09400   25.56100  
H    26.63700   21.34200   26.60100  
N    25.82800   22.68100   28.60600  
H    26.53100   21.97700   28.79600  
C    25.33800   23.29000   29.74300  
H    25.89700   22.98600   30.64700  
O    24.54900   24.21600   29.79800  
--
0 1
C    25.77100   27.22000   29.95000  
H    24.83700   27.13800   30.51200  
H    26.53800   26.55500   30.35300  
H    26.01500   28.28400   29.88500  
S    25.33700   26.70200   28.27400  
C    26.97400   27.16300   27.66400  
H    26.95900   27.70500   26.71400  
H    27.46700   27.71900   28.46600  
H    27.57300   26.26200   27.51200  
O    24.51100   27.89800   27.91500  
C    32.61400   27.46400   28.46000  
H    32.81200   26.48600   28.01300  
H    33.54800   27.97800   28.70000  
H    32.10400   27.32800   29.41700  
S    31.71800   28.55000   27.32800  
C    30.36800   27.52900   26.69300  
H    29.69300   28.08100   26.03600  
H    30.91700   26.76600   26.13500  
H    29.76800   27.11900   27.50900  
O    32.62600   28.67700   26.14500  
C    28.74900   24.34800   29.64500  
H    28.34100   24.46500   28.63800  
H    29.09200   23.32900   29.84300  
H    27.94400   24.53800   30.36000  
S    30.05000   25.57100   29.91800  
C    30.30600   25.26600   31.68100  
H    29.62900   25.93400   32.21900  
H    30.12100   24.19500   31.80000  
H    31.37400   25.41000   31.86200  
O    29.42400   26.93000   29.86600  
C    20.71400   26.18900   35.01700  
H    21.03500   26.46300   34.00900  
H    19.94800   25.41100   34.97700  
H    20.24800   27.10000   35.40200  
S    22.20200   25.61300   35.86400  
C    22.11100   23.99000   35.07500  
H    22.59500   23.19300   35.64500  
H    21.04400   23.77400   34.97300  
H    22.58300   24.05900   34.09200  
O    21.59800   25.54900   37.23300  
C    30.43400   22.28200   25.83500  
H    30.85800   22.55900   26.80300  
H    29.40200   21.94300   25.95700  
H    31.04700   21.50000   25.38100  
S    30.48200   23.77200   24.81300  
C    31.88900   24.57500   25.61400  
H    32.74700   23.90000   25.56800  
H    32.17700   25.50500   25.11700  
H    31.57800   24.68900   26.65600  
O    29.37200   24.60300   25.37800  
C    23.12400   21.15600   30.29700  
H    24.12400   20.86000   29.97200  
H    22.39900   20.37200   30.06400  
H    22.85800   22.12500   29.86600  
S    23.17700   21.16200   32.10400  
C    21.41500   21.56200   32.08400  
H    21.15000   21.72200   33.13300  
H    21.20900   22.40600   31.42200  
H    20.82600   20.67400   31.84000  
O    23.89100   22.39700   32.55600  
C    30.52800   20.07000   28.54700  
H    30.19300   19.78700   27.54600  
H    31.23300   20.90200   28.47800  
H    30.95200   19.22100   29.08800  
S    29.23700   20.54500   29.71900  
C    28.74800   18.82100   29.94400  
H    27.82500   18.80200   30.52900  
H    28.44900   18.58100   28.92000  
H    29.52700   18.21700   30.41600  
O    28.11600   21.17100   28.94900  
C    23.54500   21.23100   18.89400  
H    23.53800   20.96400   17.83400  
H    22.93100   22.09300   19.16600  
H    24.61600   21.37400   19.06200  
S    23.01100   19.70400   19.70000  
C    23.54500   20.26900   21.33200  
H    23.31000   19.40200   21.95400  
H    24.59200   20.57600   21.27700  
H    22.83800   21.04000   21.64800  
O    23.96900   18.67600   19.18600  
C    26.74400   20.92500   33.93200  
H    27.53600   21.67500   33.87900  
H    27.18300   19.95300   33.68900  
H    25.85100   21.25500   33.39500  
S    26.56700   20.57000   35.69500  
C    26.03300   22.25100   36.08800  
H    26.75500   22.96600   35.68700  
H    25.02100   22.42500   35.71300  
H    26.14800   22.39200   37.16600  
O    27.94300   20.45200   36.27400  
C    17.80300   21.09900   22.75100  
H    18.29900   20.12900   22.83900  
H    17.21000   21.27700   23.65100  
H    17.21500   21.21600   21.83700  
S    19.00800   22.44500   22.80000  
C    17.86900   23.72400   22.22200  
H    18.30000   24.71600   22.37800  
H    17.67300   23.66600   21.14800  
H    16.93400   23.68100   22.78600  
O    19.81100   22.22600   21.55500  
C    24.27000   13.49300   23.09500  
H    24.03700   12.88800   22.21500  
H    25.32500   13.28500   23.28600  
H    23.62500   13.28200   23.95200  
S    24.22600   15.27100   22.77400  
C    24.60100   15.82800   24.45200  
H    24.24100   16.86000   24.42400  
H    24.04200   15.27900   25.21500  
H    25.68100   15.83100   24.61900  
O    22.76500   15.44700   22.50000  
C    21.26000   27.70800   23.46700  
H    20.37600   28.07900   22.94300  
H    21.75300   28.60400   23.85100  
H    21.85900   27.10600   22.77900  
S    20.55600   26.89800   24.92100  
C    22.08600   26.27500   25.65400  
H    21.75900   25.65000   26.48900  
H    22.65900   25.77100   24.87100  
H    22.59700   27.19300   25.95400  
O    19.93700   25.61500   24.45800  
C    27.96700   25.81400   22.09900  
H    29.01800   25.94700   21.83000  
H    27.57300   24.79500   22.11100  
H    27.33800   26.48400   21.50800  
S    27.86700   26.60700   23.72000  
C    26.07400   26.47500   23.89800  
H    25.53500   27.08000   23.16400  
H    25.93100   25.40600   23.72300  
H    25.73300   26.62200   24.92600  
O    28.10100   28.02100   23.29000  
C    27.90000   15.57900   30.71200  
H    28.12700   14.52000   30.86000  
H    27.98500   15.84900   29.65700  
H    28.50100   16.26000   31.32200  
S    26.20300   15.80900   31.28800  
C    25.29300   15.01700   29.94300  
H    25.54300   13.95800   30.04900  
H    24.20700   15.09300   30.04300  
H    25.65800   15.57500   29.07700  
O    25.93700   17.26700   31.07800  
C    21.62900   18.54100   23.98400  
H    22.34700   19.36600   23.98000  
H    21.96000   17.50600   23.86900  
H    20.84900   18.77600   23.25600  
S    20.79100   18.57000   25.58400  
C    19.75600   17.17700   25.08100  
H    18.93100   16.87000   25.72900  
H    19.30600   17.44700   24.12200  
H    20.41100   16.33200   24.85900  
O    19.75300   19.63200   25.39200  
C    27.97400   17.85600   18.80100  
H    28.53500   17.30500   18.04200  
H    27.59400   18.76600   18.33000  
H    28.68000   18.20900   19.55700  
S    26.57000   17.00700   19.55800  
C    26.50300   18.18900   20.92300  
H    27.45400   18.18000   21.46300  
H    26.24800   19.17400   20.52300  
H    25.73900   17.97500   21.67400  
O    27.19200   15.78400   20.15600  
C    27.66700   22.11900   21.11600  
H    26.60200   22.36100   21.11800  
H    27.63700   21.04200   21.29900  
H    28.18900   22.68900   21.88900  
S    28.29000   22.44000   19.45000  
C    26.86300   23.33000   18.78900  
H    26.88000   24.36000   19.15200  
H    26.97100   23.28300   17.70200  
H    25.99900   22.73500   19.09500  
O    28.10600   21.03700   18.95900  
C    21.96900   25.02000   31.73700  
H    21.47600   24.49400   32.55900  
H    22.48400   24.17600   31.27100  
H    22.69400   25.75100   32.10400  
S    20.72400   25.73400   30.64000  
C    21.93100   26.38200   29.46200  
H    22.82600   26.68300   30.01200  
H    22.19500   25.52700   28.83400  
H    21.43300   27.18100   28.90800  
O    20.43800   27.03000   31.33400  
C    30.21500   18.54500   25.19200  
H    30.34600   17.97700   24.26700  
H    31.03200   19.26000   25.32000  
H    29.99300   17.99700   26.11100  
S    28.78900   19.63300   24.97200  
C    27.59200   18.36400   24.50300  
H    27.51000   17.71400   25.37800  
H    26.58400   18.65500   24.19700  
H    27.94100   17.65700   23.74700  
O    28.96300   20.31400   23.65000  
C    18.50000   20.17200   30.16400  
H    17.48300   20.34600   29.80500  
H    18.47800   19.77300   31.18100  
H    19.01800   21.13300   30.21500  
S    19.43300   19.07300   29.07400  
C    18.28700   17.68100   29.19700  
H    18.81400   16.75600   28.95100  
H    17.99500   17.71300   30.25000  
H    17.42800   18.00900   28.60600  
O    20.56100   18.54200   29.90400  
C    17.49200   22.97800   27.13500  
H    17.72200   21.91100   27.19900  
H    16.81700   23.22800   27.95800  
H    17.16200   23.25100   26.12900  
S    19.04900   23.79600   27.54700  
C    19.96300   22.89900   26.27200  
H    19.31300   22.52700   25.47600  
H    20.65300   23.64700   25.87300  
H    20.50000   22.06200   26.72400  
O    19.45100   23.11500   28.81800  
C    22.06400   24.43300   21.61700  
H    21.78300   24.59300   22.66100  
H    21.31300   24.83500   20.93200  
H    22.07300   23.35400   21.44500  
S    23.70700   25.18300   21.64200  
C    23.71100   25.49200   19.86100  
H    22.68400   25.77200   19.61300  
H    24.28600   26.41100   19.72300  
H    24.14900   24.62800   19.35400  
O    24.64900   24.03700   21.84500  
C    27.33400   27.01800   34.62000  
H    27.03000   28.05400   34.45400  
H    26.83800   26.47600   35.42900  
H    28.40300   27.11200   34.82900  
S    27.09500   26.19600   33.02900  
C    25.33900   25.82500   33.23100  
H    25.21900   25.10500   32.41800  
H    25.17000   25.40000   34.22300  
H    24.64600   26.65300   33.05700  
O    27.71100   24.84000   33.18000  
C    23.39200   17.99000   28.27600  
H    23.15000   19.04800   28.40500  
H    22.52400   17.57400   27.76000  
H    23.55300   17.52100   29.25000  
S    24.83200   17.87100   27.19000  
C    25.75300   18.98500   28.27500  
H    26.78800   19.03400   27.92600  
H    25.37900   20.00300   28.13700  
H    25.70600   18.66700   29.31900  
O    24.53400   18.69100   25.97400  
C    34.94200   22.81300   28.40500  
H    35.53900   22.48800   29.26100  
H    34.86500   21.91800   27.78200  
H    35.53100   23.61200   27.94800  
S    33.35100   23.48200   28.94000  
C    34.22900   24.50800   30.14100  
H    34.73500   25.30500   29.59000  
H    33.48200   25.03500   30.74100  
H    34.87200   23.82800   30.70500  
O    32.92100   22.40000   29.88100  
$end

$rem
JOBTYPE  SP
METHOD  B3LYP
BASIS  6-31+G(D)
SYMMETRY  FALSE
SYM_IGNORE  TRUE
MEM_TOTAL  16000
MEM_STATIC  8000
MAX_SUB_FILE_NUM  16000
BASIS_LIN_DEP_THRESH  6
THRESH  14
SCF_CONVERGENCE  8
GEN_SCFMAN  TRUE
SCF_GUESS  FRAGMO
FD_MAT_VEC_PROD  FALSE
XC_GRID  000075000302
NL_GRID  1
MAX_SCF_CYCLES  200
FRGM_METHOD  STOLL
SCFMI_MODE  1
$end

$development
almo_efield  1
$end

$rem_frgm
SCF_CONVERGENCE  4
$end

--------------------------------------------------------------
 ----------------------------------------------------------------
             Standard Nuclear Orientation (Angstroms)
    I     Atom           X                Y                Z
 ----------------------------------------------------------------
    1      C      24.0080000000    22.2300000000    27.0340000000
    2      C      25.3510000000    22.9480000000    27.2500000000
    3      C      26.4090000000    22.3710000000    26.2960000000
    4      C      25.9500000000    22.4600000000    24.8310000000
    5      C      24.5320000000    21.9270000000    24.5680000000
    6      C      23.5130000000    22.4460000000    25.5950000000
    7      H      27.3900000000    22.8450000000    26.4180000000
    8      H      25.2560000000    24.0260000000    27.0760000000
    9      H      24.0290000000    21.1430000000    27.1780000000
   10      H      23.3370000000    22.6730000000    27.7800000000
   11      H      26.1440000000    23.4570000000    24.4180000000
   12      H      26.5540000000    21.7330000000    24.2750000000
   13      H      24.1690000000    22.2440000000    23.5820000000
   14      H      24.4490000000    20.8330000000    24.5740000000
   15      H      23.4150000000    23.5290000000    25.4510000000
   16      H      22.4750000000    22.0940000000    25.5610000000
   17      H      26.6370000000    21.3420000000    26.6010000000
   18      N      25.8280000000    22.6810000000    28.6060000000
   19      H      26.5310000000    21.9770000000    28.7960000000
   20      C      25.3380000000    23.2900000000    29.7430000000
   21      H      25.8970000000    22.9860000000    30.6470000000
   22      O      24.5490000000    24.2160000000    29.7980000000
   23      C      25.7710000000    27.2200000000    29.9500000000
   24      H      24.8370000000    27.1380000000    30.5120000000
   25      H      26.5380000000    26.5550000000    30.3530000000
   26      H      26.0150000000    28.2840000000    29.8850000000
   27      S      25.3370000000    26.7020000000    28.2740000000
   28      C      26.9740000000    27.1630000000    27.6640000000
   29      H      26.9590000000    27.7050000000    26.7140000000
   30      H      27.4670000000    27.7190000000    28.4660000000
   31      H      27.5730000000    26.2620000000    27.5120000000
   32      O      24.5110000000    27.8980000000    27.9150000000
   33      C      32.6140000000    27.4640000000    28.4600000000
   34      H      32.8120000000    26.4860000000    28.0130000000
   35      H      33.5480000000    27.9780000000    28.7000000000
   36      H      32.1040000000    27.3280000000    29.4170000000
   37      S      31.7180000000    28.5500000000    27.3280000000
   38      C      30.3680000000    27.5290000000    26.6930000000
   39      H      29.6930000000    28.0810000000    26.0360000000
   40      H      30.9170000000    26.7660000000    26.1350000000
   41      H      29.7680000000    27.1190000000    27.5090000000
   42      O      32.6260000000    28.6770000000    26.1450000000
   43      C      28.7490000000    24.3480000000    29.6450000000
   44      H      28.3410000000    24.4650000000    28.6380000000
   45      H      29.0920000000    23.3290000000    29.8430000000
   46      H      27.9440000000    24.5380000000    30.3600000000
   47      S      30.0500000000    25.5710000000    29.9180000000
   48      C      30.3060000000    25.2660000000    31.6810000000
   49      H      29.6290000000    25.9340000000    32.2190000000
   50      H      30.1210000000    24.1950000000    31.8000000000
   51      H      31.3740000000    25.4100000000    31.8620000000
   52      O      29.4240000000    26.9300000000    29.8660000000
   53      C      20.7140000000    26.1890000000    35.0170000000
   54      H      21.0350000000    26.4630000000    34.0090000000
   55      H      19.9480000000    25.4110000000    34.9770000000
   56      H      20.2480000000    27.1000000000    35.4020000000
   57      S      22.2020000000    25.6130000000    35.8640000000
   58      C      22.1110000000    23.9900000000    35.0750000000
   59      H      22.5950000000    23.1930000000    35.6450000000
   60      H      21.0440000000    23.7740000000    34.9730000000
   61      H      22.5830000000    24.0590000000    34.0920000000
   62      O      21.5980000000    25.5490000000    37.2330000000
   63      C      30.4340000000    22.2820000000    25.8350000000
   64      H      30.8580000000    22.5590000000    26.8030000000
   65      H      29.4020000000    21.9430000000    25.9570000000
   66      H      31.0470000000    21.5000000000    25.3810000000
   67      S      30.4820000000    23.7720000000    24.8130000000
   68      C      31.8890000000    24.5750000000    25.6140000000
   69      H      32.7470000000    23.9000000000    25.5680000000
   70      H      32.1770000000    25.5050000000    25.1170000000
   71      H      31.5780000000    24.6890000000    26.6560000000
   72      O      29.3720000000    24.6030000000    25.3780000000
   73      C      23.1240000000    21.1560000000    30.2970000000
   74      H      24.1240000000    20.8600000000    29.9720000000
   75      H      22.3990000000    20.3720000000    30.0640000000
   76      H      22.8580000000    22.1250000000    29.8660000000
   77      S      23.1770000000    21.1620000000    32.1040000000
   78      C      21.4150000000    21.5620000000    32.0840000000
   79      H      21.1500000000    21.7220000000    33.1330000000
   80      H      21.2090000000    22.4060000000    31.4220000000
   81      H      20.8260000000    20.6740000000    31.8400000000
   82      O      23.8910000000    22.3970000000    32.5560000000
   83      C      30.5280000000    20.0700000000    28.5470000000
   84      H      30.1930000000    19.7870000000    27.5460000000
   85      H      31.2330000000    20.9020000000    28.4780000000
   86      H      30.9520000000    19.2210000000    29.0880000000
   87      S      29.2370000000    20.5450000000    29.7190000000
   88      C      28.7480000000    18.8210000000    29.9440000000
   89      H      27.8250000000    18.8020000000    30.5290000000
   90      H      28.4490000000    18.5810000000    28.9200000000
   91      H      29.5270000000    18.2170000000    30.4160000000
   92      O      28.1160000000    21.1710000000    28.9490000000
   93      C      23.5450000000    21.2310000000    18.8940000000
   94      H      23.5380000000    20.9640000000    17.8340000000
   95      H      22.9310000000    22.0930000000    19.1660000000
   96      H      24.6160000000    21.3740000000    19.0620000000
   97      S      23.0110000000    19.7040000000    19.7000000000
   98      C      23.5450000000    20.2690000000    21.3320000000
   99      H      23.3100000000    19.4020000000    21.9540000000
  100      H      24.5920000000    20.5760000000    21.2770000000
  101      H      22.8380000000    21.0400000000    21.6480000000
  102      O      23.9690000000    18.6760000000    19.1860000000
  103      C      26.7440000000    20.9250000000    33.9320000000
  104      H      27.5360000000    21.6750000000    33.8790000000
  105      H      27.1830000000    19.9530000000    33.6890000000
  106      H      25.8510000000    21.2550000000    33.3950000000
  107      S      26.5670000000    20.5700000000    35.6950000000
  108      C      26.0330000000    22.2510000000    36.0880000000
  109      H      26.7550000000    22.9660000000    35.6870000000
  110      H      25.0210000000    22.4250000000    35.7130000000
  111      H      26.1480000000    22.3920000000    37.1660000000
  112      O      27.9430000000    20.4520000000    36.2740000000
  113      C      17.8030000000    21.0990000000    22.7510000000
  114      H      18.2990000000    20.1290000000    22.8390000000
  115      H      17.2100000000    21.2770000000    23.6510000000
  116      H      17.2150000000    21.2160000000    21.8370000000
  117      S      19.0080000000    22.4450000000    22.8000000000
  118      C      17.8690000000    23.7240000000    22.2220000000
  119      H      18.3000000000    24.7160000000    22.3780000000
  120      H      17.6730000000    23.6660000000    21.1480000000
  121      H      16.9340000000    23.6810000000    22.7860000000
  122      O      19.8110000000    22.2260000000    21.5550000000
  123      C      24.2700000000    13.4930000000    23.0950000000
  124      H      24.0370000000    12.8880000000    22.2150000000
  125      H      25.3250000000    13.2850000000    23.2860000000
  126      H      23.6250000000    13.2820000000    23.9520000000
  127      S      24.2260000000    15.2710000000    22.7740000000
  128      C      24.6010000000    15.8280000000    24.4520000000
  129      H      24.2410000000    16.8600000000    24.4240000000
  130      H      24.0420000000    15.2790000000    25.2150000000
  131      H      25.6810000000    15.8310000000    24.6190000000
  132      O      22.7650000000    15.4470000000    22.5000000000
  133      C      21.2600000000    27.7080000000    23.4670000000
  134      H      20.3760000000    28.0790000000    22.9430000000
  135      H      21.7530000000    28.6040000000    23.8510000000
  136      H      21.8590000000    27.1060000000    22.7790000000
  137      S      20.5560000000    26.8980000000    24.9210000000
  138      C      22.0860000000    26.2750000000    25.6540000000
  139      H      21.7590000000    25.6500000000    26.4890000000
  140      H      22.6590000000    25.7710000000    24.8710000000
  141      H      22.5970000000    27.1930000000    25.9540000000
  142      O      19.9370000000    25.6150000000    24.4580000000
  143      C      27.9670000000    25.8140000000    22.0990000000
  144      H      29.0180000000    25.9470000000    21.8300000000
  145      H      27.5730000000    24.7950000000    22.1110000000
  146      H      27.3380000000    26.4840000000    21.5080000000
  147      S      27.8670000000    26.6070000000    23.7200000000
  148      C      26.0740000000    26.4750000000    23.8980000000
  149      H      25.5350000000    27.0800000000    23.1640000000
  150      H      25.9310000000    25.4060000000    23.7230000000
  151      H      25.7330000000    26.6220000000    24.9260000000
  152      O      28.1010000000    28.0210000000    23.2900000000
  153      C      27.9000000000    15.5790000000    30.7120000000
  154      H      28.1270000000    14.5200000000    30.8600000000
  155      H      27.9850000000    15.8490000000    29.6570000000
  156      H      28.5010000000    16.2600000000    31.3220000000
  157      S      26.2030000000    15.8090000000    31.2880000000
  158      C      25.2930000000    15.0170000000    29.9430000000
  159      H      25.5430000000    13.9580000000    30.0490000000
  160      H      24.2070000000    15.0930000000    30.0430000000
  161      H      25.6580000000    15.5750000000    29.0770000000
  162      O      25.9370000000    17.2670000000    31.0780000000
  163      C      21.6290000000    18.5410000000    23.9840000000
  164      H      22.3470000000    19.3660000000    23.9800000000
  165      H      21.9600000000    17.5060000000    23.8690000000
  166      H      20.8490000000    18.7760000000    23.2560000000
  167      S      20.7910000000    18.5700000000    25.5840000000
  168      C      19.7560000000    17.1770000000    25.0810000000
  169      H      18.9310000000    16.8700000000    25.7290000000
  170      H      19.3060000000    17.4470000000    24.1220000000
  171      H      20.4110000000    16.3320000000    24.8590000000
  172      O      19.7530000000    19.6320000000    25.3920000000
  173      C      27.9740000000    17.8560000000    18.8010000000
  174      H      28.5350000000    17.3050000000    18.0420000000
  175      H      27.5940000000    18.7660000000    18.3300000000
  176      H      28.6800000000    18.2090000000    19.5570000000
  177      S      26.5700000000    17.0070000000    19.5580000000
  178      C      26.5030000000    18.1890000000    20.9230000000
  179      H      27.4540000000    18.1800000000    21.4630000000
  180      H      26.2480000000    19.1740000000    20.5230000000
  181      H      25.7390000000    17.9750000000    21.6740000000
  182      O      27.1920000000    15.7840000000    20.1560000000
  183      C      27.6670000000    22.1190000000    21.1160000000
  184      H      26.6020000000    22.3610000000    21.1180000000
  185      H      27.6370000000    21.0420000000    21.2990000000
  186      H      28.1890000000    22.6890000000    21.8890000000
  187      S      28.2900000000    22.4400000000    19.4500000000
  188      C      26.8630000000    23.3300000000    18.7890000000
  189      H      26.8800000000    24.3600000000    19.1520000000
  190      H      26.9710000000    23.2830000000    17.7020000000
  191      H      25.9990000000    22.7350000000    19.0950000000
  192      O      28.1060000000    21.0370000000    18.9590000000
  193      C      21.9690000000    25.0200000000    31.7370000000
  194      H      21.4760000000    24.4940000000    32.5590000000
  195      H      22.4840000000    24.1760000000    31.2710000000
  196      H      22.6940000000    25.7510000000    32.1040000000
  197      S      20.7240000000    25.7340000000    30.6400000000
  198      C      21.9310000000    26.3820000000    29.4620000000
  199      H      22.8260000000    26.6830000000    30.0120000000
  200      H      22.1950000000    25.5270000000    28.8340000000
  201      H      21.4330000000    27.1810000000    28.9080000000
  202      O      20.4380000000    27.0300000000    31.3340000000
  203      C      30.2150000000    18.5450000000    25.1920000000
  204      H      30.3460000000    17.9770000000    24.2670000000
  205      H      31.0320000000    19.2600000000    25.3200000000
  206      H      29.9930000000    17.9970000000    26.1110000000
  207      S      28.7890000000    19.6330000000    24.9720000000
  208      C      27.5920000000    18.3640000000    24.5030000000
  209      H      27.5100000000    17.7140000000    25.3780000000
  210      H      26.5840000000    18.6550000000    24.1970000000
  211      H      27.9410000000    17.6570000000    23.7470000000
  212      O      28.9630000000    20.3140000000    23.6500000000
  213      C      18.5000000000    20.1720000000    30.1640000000
  214      H      17.4830000000    20.3460000000    29.8050000000
  215      H      18.4780000000    19.7730000000    31.1810000000
  216      H      19.0180000000    21.1330000000    30.2150000000
  217      S      19.4330000000    19.0730000000    29.0740000000
  218      C      18.2870000000    17.6810000000    29.1970000000
  219      H      18.8140000000    16.7560000000    28.9510000000
  220      H      17.9950000000    17.7130000000    30.2500000000
  221      H      17.4280000000    18.0090000000    28.6060000000
  222      O      20.5610000000    18.5420000000    29.9040000000
  223      C      17.4920000000    22.9780000000    27.1350000000
  224      H      17.7220000000    21.9110000000    27.1990000000
  225      H      16.8170000000    23.2280000000    27.9580000000
  226      H      17.1620000000    23.2510000000    26.1290000000
  227      S      19.0490000000    23.7960000000    27.5470000000
  228      C      19.9630000000    22.8990000000    26.2720000000
  229      H      19.3130000000    22.5270000000    25.4760000000
  230      H      20.6530000000    23.6470000000    25.8730000000
  231      H      20.5000000000    22.0620000000    26.7240000000
  232      O      19.4510000000    23.1150000000    28.8180000000
  233      C      22.0640000000    24.4330000000    21.6170000000
  234      H      21.7830000000    24.5930000000    22.6610000000
  235      H      21.3130000000    24.8350000000    20.9320000000
  236      H      22.0730000000    23.3540000000    21.4450000000
  237      S      23.7070000000    25.1830000000    21.6420000000
  238      C      23.7110000000    25.4920000000    19.8610000000
  239      H      22.6840000000    25.7720000000    19.6130000000
  240      H      24.2860000000    26.4110000000    19.7230000000
  241      H      24.1490000000    24.6280000000    19.3540000000
  242      O      24.6490000000    24.0370000000    21.8450000000
  243      C      27.3340000000    27.0180000000    34.6200000000
  244      H      27.0300000000    28.0540000000    34.4540000000
  245      H      26.8380000000    26.4760000000    35.4290000000
  246      H      28.4030000000    27.1120000000    34.8290000000
  247      S      27.0950000000    26.1960000000    33.0290000000
  248      C      25.3390000000    25.8250000000    33.2310000000
  249      H      25.2190000000    25.1050000000    32.4180000000
  250      H      25.1700000000    25.4000000000    34.2230000000
  251      H      24.6460000000    26.6530000000    33.0570000000
  252      O      27.7110000000    24.8400000000    33.1800000000
  253      C      23.3920000000    17.9900000000    28.2760000000
  254      H      23.1500000000    19.0480000000    28.4050000000
  255      H      22.5240000000    17.5740000000    27.7600000000
  256      H      23.5530000000    17.5210000000    29.2500000000
  257      S      24.8320000000    17.8710000000    27.1900000000
  258      C      25.7530000000    18.9850000000    28.2750000000
  259      H      26.7880000000    19.0340000000    27.9260000000
  260      H      25.3790000000    20.0030000000    28.1370000000
  261      H      25.7060000000    18.6670000000    29.3190000000
  262      O      24.5340000000    18.6910000000    25.9740000000
  263      C      34.9420000000    22.8130000000    28.4050000000
  264      H      35.5390000000    22.4880000000    29.2610000000
  265      H      34.8650000000    21.9180000000    27.7820000000
  266      H      35.5310000000    23.6120000000    27.9480000000
  267      S      33.3510000000    23.4820000000    28.9400000000
  268      C      34.2290000000    24.5080000000    30.1410000000
  269      H      34.7350000000    25.3050000000    29.5900000000
  270      H      33.4820000000    25.0350000000    30.7410000000
  271      H      34.8720000000    23.8280000000    30.7050000000
  272      O      32.9210000000    22.4000000000    29.8810000000
 ----------------------------------------------------------------
 Nuclear Repulsion Energy =       43113.35802822 hartrees
 There are      560 alpha and      560 beta electrons
 Requested basis set is 6-31+G(d)
 There are 896 shells and 2497 basis functions

 Total QAlloc Memory Limit  16000 MB
 Mega-Array Size      7821 MB
 MEM_STATIC part      8000 MB
 A cutoff of  1.0D-14 yielded 162548 shell pairs
 There are   1400859 function pairs
 Smallest overlap matrix eigenvalue = 4.54E-07
 Linear dependence detected in AO basis
 Tighter screening thresholds may be required for diffuse basis sets
 Use S2THRESH > 14 and THRESH = 14 in case of SCF convergence issues
 Number of orthogonalized atomic orbitals = 2494
 Maximum deviation from orthogonality = 1.101E-10

 Scale SEOQF with 1.000000e-03/1.000000e-03/1.000000e-03

 Standard Electronic Orientation quadrupole field applied
 Nucleus-field energy     =    -0.0000002320 hartrees
Attempting to make child job directory: /local/scratch/users/ymao/r7.00_frame_0059_almo_B3LYP_dp.in20210311133745//Frg1/
Attempting to make child job directory: /local/scratch/users/ymao/r7.00_frame_0059_almo_B3LYP_dp.in20210311133745//Frg2/
Creating input file /local/scratch/users/ymao/r7.00_frame_0059_almo_B3LYP_dp.in20210311133745/Frg1.input
using default PutDataFrgm: nothing
calling putenv with: QCSCRATCH=/local/scratch/users/ymao/r7.00_frame_0059_almo_B3LYP_dp.in20210311133745/ 
Spawning Job For Fragment 0
Done Job For Fragment 0
calling putenv with: QCSCRATCH=/local/scratch/users/ymao 
calling putenv with: QCTHREADS=8 
Creating input file /local/scratch/users/ymao/r7.00_frame_0059_almo_B3LYP_dp.in20210311133745/Frg2.input
using default PutDataFrgm: nothing
calling putenv with: QCSCRATCH=/local/scratch/users/ymao/r7.00_frame_0059_almo_B3LYP_dp.in20210311133745/ 
Spawning Job For Fragment 1
Done Job For Fragment 1
calling putenv with: QCSCRATCH=/local/scratch/users/ymao 
calling putenv with: QCTHREADS=8 
 Time for running child jobs:  CPU 0.71 s  wall 17375.75 s

 -----------------------------------------------------------------------
  General SCF calculation program by
  Eric Jon Sundstrom, Paul Horn, Yuezhi Mao, Dmitri Zuev, Alec White,
  David Stuck, Shaama M.S., Shane Yost, Joonho Lee, David Small,
  Daniel Levine, Susi Lehtola, Hugh Burton, Evgeny Epifanovsky,
  Bang C. Huynh
 -----------------------------------------------------------------------
Performing Restricted Closed Shell SCFMI
Doing General SCFMI
 Exchange:     0.2000 Hartree-Fock + 0.0800 Slater + 0.7200 B88
 Correlation:  0.1900 VWN1RPA + 0.8100 LYP
 Using Euler-Maclaurin-Lebedev (75,302) quadrature formula
performing fock build before subrot guess so that all methods have access
Printing subrot_rss_gen Method Specification:
Occupied Subspace Method is 0
Virtual Subspace Method is 0
Energy prior to optimization (guess energy) = -14234.265017784906
Begin Timing: Total SCF Calculation
begin iterations for algorithm: DIIS         
the SCF tolerance is set to 1.00e-08
    1  -14234.2650177849      4.95e-05     00000 
    2  -14234.2658661140      7.22e-05     00000 
    3  -14234.2767067355      1.96e-05     00000 
    4  -14234.2775090070      7.79e-06     00000 
    5  -14234.2776574688      3.87e-06     00000 
    6  -14234.2776912122      2.44e-06     00000 
    7  -14234.2777047064      1.52e-06     00000 
    8  -14234.2777105755      7.51e-07     00000 
    9  -14234.2777116925      5.03e-07     00000 
   10  -14234.2777120716      3.53e-07     00000 
   11  -14234.2777122670      2.32e-07     00000 
   12  -14234.2777123726      1.31e-07     00000 
   13  -14234.2777124121      7.55e-08     00000 
   14  -14234.2777124234      5.47e-08     00000 
   15  -14234.2777124282      3.71e-08     00000 
   16  -14234.2777124307      1.87e-08     00000 
   17  -14234.2777124315      9.81e-09     00000 Convergence criterion met
write pseudocanon occs and virts to disk
write pseudocanon orbital energies to disk
Timing for Total SCF: 46611.00s (wall), 372083.52s (cpu)
SCFMI Energy  -14234.2777124315
<S^2>            0.00000
 Total energy in the final basis set =   -14234.2777124315
    ==================================================
        The end of Object-Oriented SCFman: SCFMI      
    ==================================================
 
 --------------------------------------------------------------
 
                    Orbital Energies (a.u.)
 --------------------------------------------------------------
 
 Alpha MOs
 -- Occupied --
-89.0349 -89.0333 -89.0324 -89.0263 -89.0204 -89.0148 -89.0131 -89.0124
-89.0106 -89.0096 -89.0048 -89.0042 -89.0025 -89.0017 -88.9993 -88.9978
-88.9931 -88.9891 -88.9887 -88.9814 -88.9806 -88.9784 -88.9775 -88.9773
-88.9654 -19.1549 -19.1498 -19.1409 -19.1388 -19.1347 -19.1336 -19.1295
-19.1285 -19.1279 -19.1250 -19.1225 -19.1200 -19.1194 -19.1182 -19.1161
-19.1155 -19.1151 -19.1093 -19.1052 -19.1010 -19.0946 -19.0931 -19.0929
-19.0902 -19.0832 -19.0786 -14.3566 -10.2863 -10.2619 -10.2599 -10.2536
-10.2483 -10.2468 -10.2428 -10.2420 -10.2351 -10.2344 -10.2331 -10.2331
-10.2330 -10.2312 -10.2275 -10.2259 -10.2258 -10.2249 -10.2240 -10.2226
-10.2225 -10.2218 -10.2212 -10.2206 -10.2195 -10.2193 -10.2180 -10.2179
-10.2173 -10.2164 -10.2161 -10.2156 -10.2153 -10.2136 -10.2127 -10.2113
-10.2112 -10.2068 -10.2050 -10.2019 -10.1992 -10.1992 -10.1986 -10.1981
-10.1975 -10.1945 -10.1942 -10.1929 -10.1911 -10.1903 -10.1878 -10.1830
-10.1813 -10.1802 -10.1786 -10.1739 -10.1727  -8.0816  -8.0790  -8.0785
 -8.0721  -8.0662  -8.0613  -8.0587  -8.0586  -8.0566  -8.0559  -8.0505
 -8.0499  -8.0487  -8.0478  -8.0452  -8.0439  -8.0396  -8.0350  -8.0347
 -8.0278  -8.0271  -8.0246  -8.0236  -8.0236  -8.0108  -6.0460  -6.0447
 -6.0436  -6.0427  -6.0418  -6.0413  -6.0387  -6.0365  -6.0364  -6.0363
 -6.0353  -6.0306  -6.0295  -6.0291  -6.0255  -6.0243  -6.0239  -6.0230
 -6.0230  -6.0219  -6.0216  -6.0209  -6.0203  -6.0194  -6.0190  -6.0188
 -6.0161  -6.0159  -6.0150  -6.0144  -6.0143  -6.0133  -6.0132  -6.0130
 -6.0130  -6.0123  -6.0118  -6.0109  -6.0095  -6.0085  -6.0083  -6.0081
 -6.0074  -6.0069  -6.0060  -6.0052  -6.0038  -6.0027  -6.0024  -6.0014
 -5.9993  -5.9989  -5.9982  -5.9977  -5.9971  -5.9925  -5.9923  -5.9920
 -5.9914  -5.9909  -5.9900  -5.9890  -5.9879  -5.9879  -5.9878  -5.9867
 -5.9866  -5.9853  -5.9847  -5.9816  -5.9812  -5.9808  -5.9753  -5.9739
 -5.9681  -1.0648  -1.0608  -1.0540  -1.0489  -1.0456  -1.0431  -1.0426
 -1.0396  -1.0352  -1.0346  -1.0343  -1.0333  -1.0309  -1.0295  -1.0267
 -1.0259  -1.0236  -1.0160  -1.0156  -1.0088  -1.0071  -1.0057  -1.0031
 -1.0019  -0.9987  -0.9874  -0.9265  -0.8446  -0.8418  -0.8295  -0.8292
 -0.8232  -0.8212  -0.8185  -0.8161  -0.8142  -0.8135  -0.8124  -0.8098
 -0.8057  -0.8051  -0.8032  -0.8029  -0.8004  -0.7986  -0.7915  -0.7905
 -0.7872  -0.7853  -0.7827  -0.7791  -0.7750  -0.7742  -0.7663  -0.7584
 -0.7544  -0.7483  -0.7468  -0.7450  -0.7422  -0.7408  -0.7407  -0.7376
 -0.7358  -0.7350  -0.7327  -0.7296  -0.7290  -0.7278  -0.7249  -0.7234
 -0.7212  -0.7209  -0.7185  -0.7167  -0.7106  -0.7090  -0.7074  -0.7048
 -0.6894  -0.6514  -0.6464  -0.6453  -0.6392  -0.6355  -0.6317  -0.6285
 -0.6260  -0.6256  -0.6231  -0.6201  -0.6188  -0.6169  -0.6153  -0.6142
 -0.6138  -0.6118  -0.6086  -0.6084  -0.6036  -0.6014  -0.5983  -0.5941
 -0.5928  -0.5926  -0.5920  -0.5825  -0.5819  -0.5612  -0.5318  -0.5267
 -0.5225  -0.5154  -0.5137  -0.5112  -0.5108  -0.5059  -0.4978  -0.4966
 -0.4956  -0.4954  -0.4944  -0.4935  -0.4918  -0.4910  -0.4908  -0.4906
 -0.4901  -0.4892  -0.4882  -0.4871  -0.4862  -0.4850  -0.4843  -0.4836
 -0.4829  -0.4825  -0.4825  -0.4818  -0.4812  -0.4803  -0.4796  -0.4793
 -0.4789  -0.4780  -0.4774  -0.4770  -0.4761  -0.4748  -0.4744  -0.4740
 -0.4738  -0.4726  -0.4713  -0.4711  -0.4704  -0.4697  -0.4691  -0.4685
 -0.4683  -0.4667  -0.4662  -0.4654  -0.4648  -0.4644  -0.4634  -0.4633
 -0.4626  -0.4618  -0.4612  -0.4595  -0.4588  -0.4577  -0.4574  -0.4562
 -0.4535  -0.4532  -0.4524  -0.4512  -0.4503  -0.4502  -0.4493  -0.4482
 -0.4473  -0.4466  -0.4462  -0.4454  -0.4448  -0.4446  -0.4440  -0.4437
 -0.4434  -0.4429  -0.4423  -0.4412  -0.4396  -0.4395  -0.4388  -0.4381
 -0.4374  -0.4369  -0.4365  -0.4345  -0.4344  -0.4332  -0.4328  -0.4318
 -0.4306  -0.4302  -0.4294  -0.4278  -0.4270  -0.4267  -0.4254  -0.4249
 -0.4244  -0.4241  -0.4237  -0.4231  -0.4213  -0.4205  -0.4193  -0.4193
 -0.4190  -0.4176  -0.4169  -0.4157  -0.4138  -0.4132  -0.4126  -0.4115
 -0.4109  -0.4105  -0.4100  -0.4094  -0.4084  -0.4064  -0.4050  -0.4042
 -0.4037  -0.4032  -0.4031  -0.4022  -0.4016  -0.4009  -0.4000  -0.3984
 -0.3976  -0.3962  -0.3960  -0.3947  -0.3942  -0.3935  -0.3925  -0.3906
 -0.3904  -0.3884  -0.3881  -0.3864  -0.3862  -0.3852  -0.3841  -0.3832
 -0.3818  -0.3813  -0.3803  -0.3786  -0.3779  -0.3772  -0.3768  -0.3753
 -0.3738  -0.3734  -0.3725  -0.3717  -0.3704  -0.3704  -0.3698  -0.3683
 -0.3677  -0.3652  -0.3651  -0.3636  -0.3624  -0.3588  -0.3581  -0.3550
 -0.3544  -0.3502  -0.3479  -0.3471  -0.3430  -0.3407  -0.3402  -0.3388
 -0.3276  -0.3190  -0.3175  -0.3148  -0.3116  -0.3043  -0.3000  -0.2951
 -0.2926  -0.2908  -0.2896  -0.2859  -0.2850  -0.2849  -0.2830  -0.2809
 -0.2794  -0.2790  -0.2754  -0.2752  -0.2747  -0.2744  -0.2736  -0.2692
 -0.2656  -0.2639  -0.2630  -0.2626  -0.2624  -0.2608  -0.2574  -0.2559
 -0.2557  -0.2538  -0.2530  -0.2526  -0.2522  -0.2514  -0.2511  -0.2508
 -0.2474  -0.2449  -0.2432  -0.2425  -0.2412  -0.2404  -0.2355  -0.2340
 -0.2293  -0.2261  -0.2241  -0.2221  -0.2153  -0.2143  -0.2127  -0.2045
 -- Virtual --
 -0.0482  -0.0396  -0.0349  -0.0327  -0.0290  -0.0273  -0.0270  -0.0246
 -0.0223  -0.0217  -0.0204  -0.0172  -0.0164  -0.0153  -0.0140  -0.0136
 -0.0127  -0.0118  -0.0108  -0.0097  -0.0082  -0.0080  -0.0063  -0.0055
 -0.0043  -0.0031  -0.0026  -0.0015  -0.0008   0.0005   0.0006   0.0009
  0.0019   0.0022   0.0034   0.0044   0.0051   0.0057   0.0064   0.0068
  0.0080   0.0088   0.0096   0.0100   0.0104   0.0122   0.0133   0.0140
  0.0144   0.0152   0.0165   0.0176   0.0183   0.0186   0.0192   0.0207
  0.0210   0.0222   0.0227   0.0230   0.0236   0.0243   0.0254   0.0260
  0.0266   0.0270   0.0278   0.0287   0.0292   0.0296   0.0298   0.0306
  0.0314   0.0315   0.0323   0.0330   0.0334   0.0343   0.0349   0.0358
  0.0368   0.0379   0.0380   0.0385   0.0389   0.0399   0.0402   0.0412
  0.0418   0.0424   0.0431   0.0443   0.0445   0.0455   0.0462   0.0466
  0.0475   0.0480   0.0489   0.0497   0.0507   0.0510   0.0511   0.0522
  0.0528   0.0535   0.0542   0.0547   0.0556   0.0559   0.0567   0.0574
  0.0579   0.0588   0.0592   0.0597   0.0610   0.0612   0.0622   0.0630
  0.0635   0.0643   0.0647   0.0660   0.0662   0.0669   0.0673   0.0674
  0.0680   0.0697   0.0702   0.0712   0.0720   0.0728   0.0737   0.0740
  0.0747   0.0756   0.0765   0.0776   0.0780   0.0788   0.0799   0.0804
  0.0814   0.0817   0.0822   0.0824   0.0829   0.0833   0.0843   0.0846
  0.0863   0.0863   0.0875   0.0879   0.0887   0.0897   0.0900   0.0904
  0.0909   0.0921   0.0926   0.0933   0.0937   0.0953   0.0958   0.0964
  0.0974   0.0988   0.0994   0.1001   0.1003   0.1010   0.1017   0.1026
  0.1039   0.1040   0.1046   0.1055   0.1056   0.1064   0.1074   0.1077
  0.1084   0.1092   0.1097   0.1109   0.1115   0.1126   0.1128   0.1132
  0.1147   0.1153   0.1158   0.1169   0.1170   0.1176   0.1179   0.1186
  0.1197   0.1199   0.1208   0.1213   0.1218   0.1222   0.1232   0.1240
  0.1244   0.1255   0.1261   0.1263   0.1273   0.1280   0.1282   0.1288
  0.1295   0.1306   0.1316   0.1318   0.1323   0.1327   0.1336   0.1340
  0.1348   0.1360   0.1367   0.1370   0.1376   0.1386   0.1399   0.1412
  0.1420   0.1424   0.1427   0.1436   0.1443   0.1448   0.1453   0.1454
  0.1463   0.1466   0.1469   0.1484   0.1486   0.1494   0.1505   0.1508
  0.1510   0.1524   0.1526   0.1529   0.1536   0.1541   0.1550   0.1554
  0.1558   0.1567   0.1572   0.1579   0.1587   0.1590   0.1602   0.1607
  0.1611   0.1614   0.1626   0.1634   0.1639   0.1646   0.1656   0.1658
  0.1663   0.1670   0.1679   0.1686   0.1691   0.1700   0.1708   0.1713
  0.1718   0.1721   0.1730   0.1734   0.1741   0.1744   0.1760   0.1766
  0.1768   0.1777   0.1778   0.1786   0.1794   0.1799   0.1802   0.1808
  0.1815   0.1827   0.1831   0.1837   0.1841   0.1843   0.1851   0.1854
  0.1859   0.1868   0.1880   0.1882   0.1885   0.1890   0.1896   0.1909
  0.1914   0.1925   0.1925   0.1935   0.1943   0.1952   0.1953   0.1967
  0.1971   0.1978   0.1987   0.1988   0.1997   0.2000   0.2008   0.2019
  0.2025   0.2028   0.2036   0.2043   0.2047   0.2058   0.2066   0.2072
  0.2075   0.2083   0.2088   0.2096   0.2100   0.2104   0.2114   0.2125
  0.2127   0.2131   0.2139   0.2149   0.2156   0.2160   0.2167   0.2177
  0.2181   0.2190   0.2197   0.2199   0.2213   0.2222   0.2227   0.2230
  0.2237   0.2242   0.2243   0.2248   0.2263   0.2266   0.2266   0.2284
  0.2290   0.2297   0.2307   0.2316   0.2327   0.2328   0.2331   0.2341
  0.2348   0.2357   0.2370   0.2381   0.2385   0.2388   0.2395   0.2402
  0.2411   0.2422   0.2430   0.2436   0.2444   0.2452   0.2464   0.2466
  0.2469   0.2476   0.2492   0.2496   0.2504   0.2507   0.2518   0.2524
  0.2529   0.2541   0.2551   0.2559   0.2566   0.2573   0.2579   0.2586
  0.2589   0.2592   0.2607   0.2617   0.2622   0.2626   0.2637   0.2643
  0.2650   0.2655   0.2669   0.2690   0.2697   0.2705   0.2714   0.2718
  0.2723   0.2729   0.2737   0.2751   0.2751   0.2758   0.2766   0.2782
  0.2788   0.2797   0.2807   0.2811   0.2821   0.2831   0.2834   0.2848
  0.2852   0.2858   0.2873   0.2880   0.2892   0.2896   0.2906   0.2911
  0.2917   0.2923   0.2930   0.2935   0.2944   0.2955   0.2960   0.2964
  0.2971   0.2981   0.2999   0.3010   0.3018   0.3018   0.3027   0.3037
  0.3047   0.3051   0.3061   0.3069   0.3074   0.3093   0.3103   0.3107
  0.3108   0.3117   0.3123   0.3130   0.3139   0.3146   0.3152   0.3161
  0.3174   0.3175   0.3187   0.3193   0.3196   0.3211   0.3216   0.3229
  0.3241   0.3244   0.3252   0.3260   0.3273   0.3280   0.3292   0.3305
  0.3309   0.3326   0.3329   0.3341   0.3354   0.3364   0.3373   0.3388
  0.3396   0.3410   0.3419   0.3422   0.3432   0.3435   0.3445   0.3451
  0.3466   0.3467   0.3474   0.3490   0.3493   0.3510   0.3516   0.3522
  0.3524   0.3534   0.3544   0.3556   0.3575   0.3582   0.3590   0.3599
  0.3605   0.3608   0.3619   0.3626   0.3644   0.3654   0.3656   0.3674
  0.3688   0.3693   0.3696   0.3704   0.3712   0.3721   0.3727   0.3737
  0.3747   0.3766   0.3770   0.3773   0.3784   0.3791   0.3800   0.3815
  0.3823   0.3832   0.3836   0.3841   0.3844   0.3863   0.3870   0.3887
  0.3891   0.3903   0.3913   0.3917   0.3922   0.3934   0.3943   0.3960
  0.3970   0.3974   0.3985   0.3993   0.4007   0.4015   0.4023   0.4030
  0.4042   0.4054   0.4055   0.4076   0.4084   0.4106   0.4118   0.4119
  0.4127   0.4147   0.4152   0.4157   0.4162   0.4175   0.4179   0.4186
  0.4211   0.4217   0.4228   0.4233   0.4237   0.4258   0.4267   0.4270
  0.4290   0.4299   0.4311   0.4328   0.4335   0.4358   0.4363   0.4370
  0.4382   0.4400   0.4401   0.4419   0.4428   0.4434   0.4451   0.4461
  0.4493   0.4504   0.4510   0.4526   0.4533   0.4545   0.4550   0.4569
  0.4579   0.4584   0.4596   0.4611   0.4622   0.4636   0.4648   0.4658
  0.4671   0.4687   0.4704   0.4717   0.4722   0.4737   0.4757   0.4770
  0.4780   0.4805   0.4817   0.4840   0.4854   0.4863   0.4869   0.4898
  0.4902   0.4927   0.4936   0.4959   0.4973   0.4985   0.5014   0.5028
  0.5031   0.5046   0.5057   0.5069   0.5096   0.5112   0.5142   0.5153
  0.5173   0.5188   0.5203   0.5213   0.5236   0.5250   0.5283   0.5300
  0.5311   0.5330   0.5333   0.5349   0.5354   0.5389   0.5406   0.5442
  0.5449   0.5469   0.5476   0.5484   0.5550   0.5560   0.5577   0.5588
  0.5599   0.5607   0.5629   0.5646   0.5661   0.5681   0.5696   0.5719
  0.5734   0.5757   0.5771   0.5786   0.5795   0.5811   0.5818   0.5823
  0.5850   0.5859   0.5874   0.5898   0.5905   0.5926   0.5940   0.5946
  0.5969   0.5973   0.5990   0.5993   0.6007   0.6026   0.6043   0.6055
  0.6070   0.6078   0.6091   0.6105   0.6128   0.6143   0.6150   0.6161
  0.6170   0.6178   0.6195   0.6207   0.6224   0.6232   0.6246   0.6254
  0.6267   0.6276   0.6294   0.6306   0.6311   0.6329   0.6340   0.6345
  0.6371   0.6373   0.6379   0.6398   0.6413   0.6421   0.6452   0.6455
  0.6464   0.6484   0.6499   0.6515   0.6518   0.6535   0.6537   0.6544
  0.6547   0.6558   0.6579   0.6596   0.6599   0.6611   0.6616   0.6624
  0.6628   0.6639   0.6647   0.6656   0.6678   0.6705   0.6715   0.6719
  0.6728   0.6738   0.6751   0.6768   0.6781   0.6791   0.6799   0.6807
  0.6832   0.6845   0.6854   0.6874   0.6888   0.6890   0.6904   0.6918
  0.6929   0.6939   0.6941   0.6972   0.6974   0.6988   0.6997   0.6999
  0.7016   0.7044   0.7052   0.7073   0.7077   0.7099   0.7118   0.7123
  0.7141   0.7161   0.7170   0.7177   0.7198   0.7214   0.7218   0.7229
  0.7248   0.7269   0.7278   0.7286   0.7300   0.7327   0.7337   0.7340
  0.7360   0.7372   0.7378   0.7389   0.7405   0.7445   0.7449   0.7477
  0.7483   0.7517   0.7522   0.7545   0.7548   0.7564   0.7585   0.7598
  0.7609   0.7611   0.7648   0.7666   0.7677   0.7698   0.7733   0.7738
  0.7753   0.7785   0.7789   0.7804   0.7823   0.7839   0.7859   0.7888
  0.7901   0.7915   0.7931   0.7936   0.7948   0.7979   0.7990   0.8005
  0.8024   0.8030   0.8047   0.8057   0.8081   0.8093   0.8097   0.8124
  0.8129   0.8146   0.8154   0.8173   0.8188   0.8210   0.8230   0.8241
  0.8262   0.8272   0.8294   0.8303   0.8317   0.8338   0.8342   0.8366
  0.8388   0.8396   0.8405   0.8420   0.8437   0.8447   0.8466   0.8477
  0.8485   0.8504   0.8523   0.8537   0.8541   0.8554   0.8562   0.8578
  0.8589   0.8604   0.8614   0.8621   0.8639   0.8651   0.8674   0.8683
  0.8690   0.8713   0.8726   0.8746   0.8757   0.8775   0.8793   0.8800
  0.8803   0.8825   0.8828   0.8850   0.8856   0.8874   0.8880   0.8883
  0.8897   0.8906   0.8922   0.8933   0.8941   0.8955   0.8956   0.8974
  0.8996   0.9004   0.9021   0.9049   0.9064   0.9065   0.9074   0.9090
  0.9105   0.9123   0.9127   0.9147   0.9159   0.9169   0.9173   0.9196
  0.9203   0.9222   0.9226   0.9234   0.9243   0.9262   0.9285   0.9290
  0.9308   0.9314   0.9325   0.9335   0.9348   0.9369   0.9373   0.9390
  0.9398   0.9422   0.9431   0.9433   0.9448   0.9457   0.9474   0.9494
  0.9503   0.9511   0.9521   0.9535   0.9555   0.9561   0.9567   0.9589
  0.9602   0.9610   0.9623   0.9627   0.9639   0.9650   0.9660   0.9668
  0.9688   0.9711   0.9714   0.9725   0.9737   0.9750   0.9758   0.9772
  0.9783   0.9790   0.9795   0.9810   0.9816   0.9832   0.9845   0.9858
  0.9866   0.9884   0.9890   0.9909   0.9919   0.9929   0.9936   0.9945
  0.9953   0.9968   0.9983   0.9994   1.0005   1.0017   1.0021   1.0056
  1.0059   1.0066   1.0078   1.0089   1.0104   1.0118   1.0126   1.0136
  1.0155   1.0171   1.0178   1.0192   1.0204   1.0216   1.0220   1.0224
  1.0236   1.0249   1.0264   1.0281   1.0296   1.0305   1.0332   1.0343
  1.0344   1.0355   1.0370   1.0387   1.0411   1.0422   1.0427   1.0442
  1.0451   1.0460   1.0463   1.0469   1.0486   1.0507   1.0518   1.0533
  1.0540   1.0546   1.0578   1.0592   1.0605   1.0622   1.0628   1.0640
  1.0655   1.0667   1.0673   1.0691   1.0725   1.0730   1.0764   1.0764
  1.0781   1.0799   1.0809   1.0817   1.0826   1.0840   1.0861   1.0871
  1.0878   1.0911   1.0913   1.0931   1.0947   1.0958   1.0975   1.0980
  1.0986   1.1019   1.1036   1.1045   1.1072   1.1078   1.1093   1.1116
  1.1125   1.1127   1.1141   1.1159   1.1165   1.1181   1.1205   1.1220
  1.1229   1.1251   1.1268   1.1281   1.1285   1.1303   1.1329   1.1334
  1.1349   1.1370   1.1383   1.1394   1.1409   1.1433   1.1450   1.1455
  1.1470   1.1486   1.1490   1.1498   1.1506   1.1527   1.1543   1.1555
  1.1566   1.1573   1.1607   1.1610   1.1624   1.1630   1.1652   1.1656
  1.1679   1.1690   1.1706   1.1718   1.1727   1.1738   1.1759   1.1786
  1.1794   1.1808   1.1824   1.1830   1.1862   1.1876   1.1897   1.1906
  1.1929   1.1939   1.1949   1.1962   1.1974   1.1993   1.2043   1.2068
  1.2077   1.2088   1.2099   1.2121   1.2132   1.2146   1.2160   1.2190
  1.2197   1.2217   1.2238   1.2252   1.2281   1.2303   1.2316   1.2327
  1.2355   1.2377   1.2401   1.2416   1.2433   1.2437   1.2456   1.2483
  1.2493   1.2514   1.2529   1.2565   1.2600   1.2621   1.2635   1.2646
  1.2691   1.2701   1.2704   1.2720   1.2765   1.2810   1.2834   1.2839
  1.2869   1.2912   1.2916   1.2952   1.2971   1.3018   1.3043   1.3062
  1.3082   1.3085   1.3145   1.3163   1.3176   1.3203   1.3232   1.3234
  1.3259   1.3270   1.3292   1.3313   1.3325   1.3375   1.3379   1.3386
  1.3407   1.3428   1.3457   1.3463   1.3493   1.3507   1.3545   1.3575
  1.3602   1.3609   1.3627   1.3635   1.3650   1.3663   1.3688   1.3704
  1.3735   1.3754   1.3770   1.3778   1.3805   1.3828   1.3845   1.3852
  1.3869   1.3894   1.3910   1.3916   1.3927   1.3934   1.3947   1.3953
  1.3969   1.3993   1.4019   1.4033   1.4035   1.4061   1.4071   1.4085
  1.4096   1.4115   1.4117   1.4128   1.4161   1.4167   1.4188   1.4205
  1.4214   1.4218   1.4241   1.4268   1.4275   1.4292   1.4308   1.4316
  1.4331   1.4341   1.4360   1.4381   1.4388   1.4401   1.4413   1.4443
  1.4464   1.4481   1.4497   1.4502   1.4518   1.4533   1.4574   1.4602
  1.4616   1.4625   1.4641   1.4669   1.4684   1.4697   1.4701   1.4725
  1.4741   1.4743   1.4794   1.4801   1.4820   1.4856   1.4869   1.4897
  1.4914   1.4947   1.4960   1.4965   1.4989   1.5001   1.5040   1.5047
  1.5065   1.5075   1.5108   1.5146   1.5163   1.5176   1.5194   1.5220
  1.5237   1.5250   1.5290   1.5330   1.5380   1.5381   1.5421   1.5439
  1.5463   1.5474   1.5496   1.5519   1.5537   1.5585   1.5596   1.5611
  1.5656   1.5720   1.5742   1.5754   1.5805   1.5829   1.5855   1.5877
  1.5929   1.5968   1.5989   1.6045   1.6088   1.6125   1.6178   1.6232
  1.6266   1.6334   1.6350   1.6364   1.6391   1.6416   1.6480   1.6504
  1.6538   1.6576   1.6587   1.6620   1.6628   1.6639   1.6650   1.6677
  1.6705   1.6713   1.6719   1.6728   1.6746   1.6776   1.6788   1.6806
  1.6811   1.6820   1.6854   1.6869   1.6877   1.6887   1.6902   1.6912
  1.6947   1.6957   1.6969   1.6986   1.7000   1.7033   1.7034   1.7042
  1.7050   1.7069   1.7098   1.7103   1.7120   1.7133   1.7152   1.7168
  1.7174   1.7190   1.7198   1.7211   1.7223   1.7248   1.7265   1.7280
  1.7284   1.7296   1.7314   1.7320   1.7338   1.7344   1.7350   1.7362
  1.7371   1.7387   1.7409   1.7432   1.7439   1.7469   1.7483   1.7501
  1.7517   1.7528   1.7544   1.7563   1.7594   1.7606   1.7613   1.7634
  1.7646   1.7670   1.7679   1.7693   1.7713   1.7725   1.7737   1.7745
  1.7766   1.7789   1.7800   1.7820   1.7842   1.7855   1.7871   1.7882
  1.7932   1.7955   1.7960   1.7972   1.7999   1.8031   1.8047   1.8055
  1.8073   1.8099   1.8121   1.8149   1.8176   1.8204   1.8233   1.8248
  1.8260   1.8283   1.8331   1.8360   1.8391   1.8447   1.8468   1.8481
  1.8492   1.8508   1.8545   1.8576   1.8591   1.8605   1.8615   1.8656
  1.8687   1.8695   1.8728   1.8730   1.8769   1.8798   1.8812   1.8825
  1.8836   1.8861   1.8880   1.8911   1.8914   1.8926   1.8937   1.8947
  1.8960   1.8980   1.8985   1.8992   1.9013   1.9025   1.9038   1.9055
  1.9064   1.9077   1.9085   1.9102   1.9105   1.9124   1.9129   1.9141
  1.9176   1.9184   1.9201   1.9214   1.9226   1.9248   1.9265   1.9280
  1.9300   1.9318   1.9329   1.9337   1.9368   1.9387   1.9397   1.9444
  1.9457   1.9482   1.9490   1.9507   1.9542   1.9562   1.9592   1.9605
  1.9648   1.9663   1.9694   1.9721   1.9757   1.9819   1.9842   1.9891
  1.9933   1.9971   1.9997   2.0142   2.0179   2.0253   2.0311   2.0329
  2.0448   2.0455   2.0507   2.0541   2.0560   2.0570   2.0602   2.0619
  2.0640   2.0644   2.0651   2.0657   2.0663   2.0679   2.0690   2.0691
  2.0698   2.0726   2.0737   2.0763   2.0772   2.0820   2.0826   2.0845
  2.0851   2.0865   2.0876   2.0893   2.0907   2.0914   2.0932   2.0946
  2.0958   2.0976   2.0979   2.0995   2.1001   2.1018   2.1040   2.1048
  2.1059   2.1080   2.1090   2.1112   2.1116   2.1127   2.1172   2.1263
  2.1289   2.1304   2.1317   2.1368   2.1399   2.1427   2.1462   2.1483
  2.1580   2.1656   2.1710   2.1742   2.1802   2.1823   2.1829   2.1836
  2.1839   2.1860   2.1883   2.1899   2.1915   2.1947   2.1971   2.1982
  2.2005   2.2013   2.2046   2.2058   2.2099   2.2110   2.2144   2.2157
  2.2175   2.2181   2.2214   2.2229   2.2237   2.2260   2.2270   2.2275
  2.2300   2.2313   2.2323   2.2343   2.2358   2.2365   2.2369   2.2382
  2.2395   2.2417   2.2441   2.2445   2.2476   2.2479   2.2486   2.2508
  2.2512   2.2514   2.2523   2.2549   2.2556   2.2563   2.2571   2.2584
  2.2594   2.2617   2.2621   2.2643   2.2652   2.2660   2.2669   2.2674
  2.2680   2.2686   2.2697   2.2704   2.2708   2.2727   2.2734   2.2737
  2.2752   2.2753   2.2757   2.2777   2.2799   2.2801   2.2812   2.2838
  2.2842   2.2864   2.2871   2.2885   2.2903   2.2920   2.2923   2.2934
  2.2935   2.2952   2.2956   2.2961   2.2985   2.2995   2.3007   2.3024
  2.3028   2.3031   2.3040   2.3053   2.3070   2.3078   2.3090   2.3097
  2.3103   2.3116   2.3119   2.3135   2.3165   2.3171   2.3198   2.3204
  2.3224   2.3235   2.3236   2.3251   2.3261   2.3282   2.3287   2.3298
  2.3311   2.3319   2.3339   2.3352   2.3363   2.3392   2.3420   2.3428
  2.3443   2.3459   2.3507   2.3534   2.3566   2.3573   2.3591   2.3608
  2.3620   2.3642   2.3674   2.3705   2.3714   2.3737   2.3746   2.3774
  2.3811   2.3832   2.3849   2.3869   2.3895   2.3900   2.3990   2.4007
  2.4025   2.4056   2.4068   2.4199   2.4248   2.4374   2.4626   2.4891
  2.5062   2.5274   2.5321   2.5589   2.6178   2.6984   2.7232   2.7530
  2.7914   2.8056   2.8211   2.8245   2.8262   2.8310   2.8362   2.8373
  2.8413   2.8462   2.8482   2.8491   2.8508   2.8562   2.8574   2.8616
  2.8617   2.8624   2.8655   2.8661   2.8670   2.8685   2.8720   2.8740
  2.8792   2.8885   2.8906   2.8935   2.9064   2.9262   2.9732   3.0950
  3.2834   3.9402   3.9499   3.9566   3.9648   3.9715   3.9751   3.9772
  3.9778   3.9800   3.9806   3.9829   3.9863   3.9872   3.9901   3.9949
  3.9983   3.9992   4.0011   4.0054   4.0081   4.0095   4.0135   4.0195
  4.0291   4.0543   4.1819   4.2156   4.2158   4.2258   4.2270   4.2359
  4.2412   4.2467   4.2511   4.2538   4.2551   4.2564   4.2606   4.2615
  4.2641   4.2664   4.2683   4.2699   4.2752   4.2809   4.2826   4.2840
  4.2893   4.2908   4.2940   4.2979   4.3010   4.3029   4.3050   4.3078
  4.3103   4.3114   4.3176   4.3185   4.3213   4.3233   4.3249   4.3263
  4.3317   4.3348   4.3368   4.3440   4.3449   4.3453   4.3475   4.3536
  4.3567   4.3633   4.3645   4.3649   4.3708   4.3739   4.3772   4.3826
  4.3832   4.3901   4.3941   4.4060   4.4089   4.4121   4.4197   4.4201
  4.4285   4.4313   4.4362   4.4475   4.4549   4.4708   4.4876   4.5062
  4.5175   4.5340   4.5429   4.5576   4.5756   4.5872   4.6029   4.6142
  4.6561   4.6775   4.7277   4.7990   4.8121   5.0142
 --------------------------------------------------------------
 
          Ground-State Mulliken Net Atomic Charges

     Atom                 Charge (a.u.)
  ----------------------------------------
      1 C                    -0.065140
      2 C                    -0.563979
      3 C                    -0.357061
      4 C                    -0.340921
      5 C                    -0.428335
      6 C                    -0.564513
      7 H                     0.231168
      8 H                     0.224411
      9 H                     0.197843
     10 H                     0.197619
     11 H                     0.194345
     12 H                     0.216640
     13 H                     0.232172
     14 H                     0.225694
     15 H                     0.181484
     16 H                     0.195208
     17 H                     0.210774
     18 N                    -0.480147
     19 H                     0.505475
     20 C                     0.371608
     21 H                     0.178425
     22 O                    -0.562772
     23 C                    -1.051884
     24 H                     0.226487
     25 H                     0.236009
     26 H                     0.272077
     27 S                     1.683425
     28 C                    -1.274101
     29 H                     0.268105
     30 H                     0.292537
     31 H                     0.250892
     32 O                    -0.744865
     33 C                    -0.741077
     34 H                     0.223346
     35 H                     0.249572
     36 H                     0.245177
     37 S                     0.706771
     38 C                    -0.673132
     39 H                     0.283029
     40 H                     0.228443
     41 H                     0.264737
     42 O                    -0.683826
     43 C                    -1.008109
     44 H                     0.283317
     45 H                     0.245582
     46 H                     0.304439
     47 S                     0.706898
     48 C                    -0.830875
     49 H                     0.264140
     50 H                     0.272969
     51 H                     0.226505
     52 O                    -0.621003
     53 C                    -0.841281
     54 H                     0.273278
     55 H                     0.231487
     56 H                     0.260301
     57 S                     0.926305
     58 C                    -0.848781
     59 H                     0.250826
     60 H                     0.226794
     61 H                     0.280243
     62 O                    -0.725432
     63 C                    -0.883235
     64 H                     0.236012
     65 H                     0.300701
     66 H                     0.229686
     67 S                     0.892651
     68 C                    -0.855980
     69 H                     0.233273
     70 H                     0.289408
     71 H                     0.267749
     72 O                    -0.697491
     73 C                    -0.823556
     74 H                     0.246791
     75 H                     0.275719
     76 H                     0.295663
     77 S                     0.806931
     78 C                    -0.971234
     79 H                     0.242668
     80 H                     0.269078
     81 H                     0.267612
     82 O                    -0.613560
     83 C                    -0.759677
     84 H                     0.246566
     85 H                     0.286219
     86 H                     0.227568
     87 S                     0.606318
     88 C                    -0.760824
     89 H                     0.318795
     90 H                     0.227114
     91 H                     0.229281
     92 O                    -0.638250
     93 C                    -0.831423
     94 H                     0.258191
     95 H                     0.233123
     96 H                     0.240258
     97 S                     0.805915
     98 C                    -0.779379
     99 H                     0.241484
    100 H                     0.250320
    101 H                     0.263424
    102 O                    -0.650609
    103 C                    -0.726305
    104 H                     0.270327
    105 H                     0.221397
    106 H                     0.278767
    107 S                     0.763476
    108 C                    -0.825909
    109 H                     0.262045
    110 H                     0.227533
    111 H                     0.248170
    112 O                    -0.716572
    113 C                    -0.936462
    114 H                     0.271315
    115 H                     0.231408
    116 H                     0.246908
    117 S                     1.193385
    118 C                    -0.940863
    119 H                     0.283871
    120 H                     0.267428
    121 H                     0.224565
    122 O                    -0.744426
    123 C                    -0.822460
    124 H                     0.263681
    125 H                     0.228920
    126 H                     0.235920
    127 S                     0.808018
    128 C                    -0.790678
    129 H                     0.296710
    130 H                     0.238616
    131 H                     0.242132
    132 O                    -0.659773
    133 C                    -0.845078
    134 H                     0.252985
    135 H                     0.252701
    136 H                     0.243138
    137 S                     0.975029
    138 C                    -0.925988
    139 H                     0.248626
    140 H                     0.256948
    141 H                     0.289208
    142 O                    -0.741304
    143 C                    -1.005269
    144 H                     0.252491
    145 H                     0.246149
    146 H                     0.246154
    147 S                     1.104419
    148 C                    -0.940665
    149 H                     0.254256
    150 H                     0.248331
    151 H                     0.244888
    152 O                    -0.721351
    153 C                    -0.795146
    154 H                     0.242555
    155 H                     0.243782
    156 H                     0.257805
    157 S                     0.880423
    158 C                    -0.759910
    159 H                     0.232189
    160 H                     0.270414
    161 H                     0.245162
    162 O                    -0.751772
    163 C                    -0.916534
    164 H                     0.272714
    165 H                     0.270442
    166 H                     0.269022
    167 S                     0.893652
    168 C                    -0.799667
    169 H                     0.242572
    170 H                     0.258552
    171 H                     0.252979
    172 O                    -0.700147
    173 C                    -0.929650
    174 H                     0.236832
    175 H                     0.282284
    176 H                     0.249761
    177 S                     1.134389
    178 C                    -0.949469
    179 H                     0.238617
    180 H                     0.249759
    181 H                     0.232992
    182 O                    -0.715185
    183 C                    -1.060506
    184 H                     0.274414
    185 H                     0.315701
    186 H                     0.241187
    187 S                     1.081033
    188 C                    -0.782102
    189 H                     0.240736
    190 H                     0.255190
    191 H                     0.225214
    192 O                    -0.762248
    193 C                    -0.976342
    194 H                     0.244162
    195 H                     0.289072
    196 H                     0.240682
    197 S                     0.982880
    198 C                    -0.868275
    199 H                     0.231755
    200 H                     0.244561
    201 H                     0.265122
    202 O                    -0.725710
    203 C                    -0.709410
    204 H                     0.277306
    205 H                     0.252354
    206 H                     0.233998
    207 S                     0.630377
    208 C                    -0.893489
    209 H                     0.204644
    210 H                     0.316700
    211 H                     0.282871
    212 O                    -0.637382
    213 C                    -0.943826
    214 H                     0.242712
    215 H                     0.254871
    216 H                     0.322327
    217 S                     0.958854
    218 C                    -0.845980
    219 H                     0.254140
    220 H                     0.246610
    221 H                     0.237261
    222 O                    -0.734277
    223 C                    -0.964219
    224 H                     0.275659
    225 H                     0.249311
    226 H                     0.235652
    227 S                     0.961224
    228 C                    -0.862323
    229 H                     0.251869
    230 H                     0.264883
    231 H                     0.291567
    232 O                    -0.720907
    233 C                    -0.845756
    234 H                     0.268213
    235 H                     0.246846
    236 H                     0.305567
    237 S                     0.639548
    238 C                    -0.792067
    239 H                     0.232078
    240 H                     0.250459
    241 H                     0.272592
    242 O                    -0.650406
    243 C                    -0.881051
    244 H                     0.248307
    245 H                     0.248800
    246 H                     0.253283
    247 S                     0.619209
    248 C                    -0.737993
    249 H                     0.308919
    250 H                     0.249458
    251 H                     0.247755
    252 O                    -0.609770
    253 C                    -0.896252
    254 H                     0.280799
    255 H                     0.255372
    256 H                     0.276975
    257 S                     0.796626
    258 C                    -1.143807
    259 H                     0.230561
    260 H                     0.290100
    261 H                     0.313121
    262 O                    -0.596033
    263 C                    -0.978533
    264 H                     0.258208
    265 H                     0.248250
    266 H                     0.246129
    267 S                     1.128764
    268 C                    -0.862975
    269 H                     0.242575
    270 H                     0.254350
    271 H                     0.251305
    272 O                    -0.738287
  ----------------------------------------
  Sum of atomic charges =     0.000000

 -----------------------------------------------------------------
                    Cartesian Multipole Moments
 -----------------------------------------------------------------
    Charge (ESU x 10^10)
                -0.0000
    Dipole Moment (Debye)
         X      -0.4768      Y     -14.4522      Z      -1.3513
       Tot      14.5231
    Quadrupole Moments (Debye-Ang)
        XX    -799.7994     XY    -397.5187     YY   -1569.2555
        XZ      37.7298     YZ    -534.0848     ZZ   -1171.6766
    Octopole Moments (Debye-Ang^2)
       XXX  -59589.8955    XXY  -28691.1840    XYY  -41147.5527
       YYY  -84634.2606    XXZ  -18193.4979    XYZ  -11878.1500
       YYZ  -47521.5047    XZZ  -25438.8503    YZZ  -42083.1035
       ZZZ  -93472.9573
    Hexadecapole Moments (Debye-Ang^3)
      XXXX ************   XXXY ************   XXYY ************
      XYYY ************   YYYY ************   XXXZ ************
      XXYZ -744433.1741   XYYZ ************   YYYZ ************
      XXZZ ************   XYZZ -952969.7935   YYZZ ************
      XZZZ ************   YZZZ ************   ZZZZ ************
 -----------------------------------------------------------------
Archival summary:
[...]
    2  -0.0047762   0.0006661  -0.0230365   0.0092780   0.0292278  -0.0786714
    3  -0.0001609   0.0061638   0.0264268   0.0104296   0.0116900  -0.0396023
          103         104         105         106         107         108
    1   0.0051033   0.0236368   0.0106890  -0.0261031  -0.0439652   0.0022401
    2   0.0029210   0.0234803  -0.0241176   0.0072572  -0.0368082   0.0069672
    3  -0.0082356  -0.0089686  -0.0357878  -0.0168883   0.0082163   0.0023287
          109         110         111         112         113         114
    1   0.0208177  -0.0277732  -0.0060324   0.1000791  -0.0038844   0.0156332
    2   0.0194855   0.0080442   0.0005769  -0.0115567  -0.0056187  -0.0248898
    3  -0.0207387  -0.0089201   0.0336191   0.0450610  -0.0005258   0.0024295
          115         116         117         118         119         120
    1  -0.0268708  -0.0163398   0.0205501  -0.0043583   0.0169717  -0.0013984
    2  -0.0071185  -0.0038040   0.0083391   0.0077418   0.0265043  -0.0142007
    3   0.0253381  -0.0268067   0.0504572  -0.0036075   0.0127064  -0.0313873
          121         122         123         124         125         126
    1  -0.0308814   0.0583092   0.0016898  -0.0153260   0.0326288  -0.0200916
    2   0.0026657  -0.0164193  -0.0064434  -0.0094615  -0.0158620  -0.0102359
    3   0.0142044  -0.0916452   0.0009863  -0.0268307   0.0132394   0.0208856
          127         128         129         130         131         132
    1   0.0431081  -0.0017162  -0.0035542  -0.0144794   0.0306487  -0.1060236
    2   0.0164409   0.0054811   0.0345589  -0.0163796  -0.0002814   0.0113866
    3  -0.0391862   0.0049027   0.0112246   0.0224302   0.0072936  -0.0263344
          133         134         135         136         137         138
    1   0.0016793  -0.0238607   0.0237102   0.0194041  -0.0228416   0.0073163
    2   0.0037827   0.0110257   0.0275420  -0.0185746   0.0361945   0.0012866
    3  -0.0063479  -0.0227220   0.0032462  -0.0134868   0.0332807   0.0007014
          139         140         141         142         143         144
    1   0.0017657   0.0177705   0.0302462  -0.0463497  -0.0022803   0.0276166
    2  -0.0173493  -0.0225171   0.0181335  -0.0938758  -0.0016835  -0.0024187
    3   0.0210854  -0.0179949   0.0231213  -0.0324227  -0.0037617  -0.0151979
          145         146         147         148         149         150
    1  -0.0088891  -0.0129869   0.0302747  -0.0041344  -0.0111330  -0.0193547
    2  -0.0309270   0.0173940  -0.0277626  -0.0042948   0.0200859  -0.0384817
    3  -0.0024993  -0.0244638   0.0447619  -0.0004527  -0.0188178  -0.0101151
          151         152         153         154         155         156
    1  -0.0067884   0.0189777   0.0053497   0.0190570   0.0048942   0.0200072
    2   0.0128646   0.1036241  -0.0003164  -0.0288483   0.0097991   0.0134258
    3   0.0266129  -0.0307345  -0.0036975   0.0048063  -0.0314304   0.0174464
          157         158         159         160         161         162
    1  -0.0089113  -0.0015358   0.0071721  -0.0290448   0.0040691  -0.0207167
    2  -0.0262237  -0.0015364  -0.0348218   0.0093322   0.0041192   0.1076732
    3   0.0519308  -0.0061340  -0.0146970   0.0072867  -0.0361892  -0.0113486
          163         164         165         166         167         168
    1   0.0032847   0.0307598   0.0250111  -0.0200803   0.0313059  -0.0027295
    2  -0.0004112   0.0143591  -0.0241279   0.0063620  -0.0076689  -0.0073240
    3  -0.0078064  -0.0000977  -0.0215823  -0.0229576   0.0384015  -0.0064312
          169         170         171         172         173         174
    1  -0.0182311  -0.0139145   0.0138246  -0.0756099   0.0063985   0.0091324
    2  -0.0029233   0.0119207  -0.0341332   0.0766315   0.0095852  -0.0250843
    3   0.0256620  -0.0254439  -0.0060409  -0.0131463  -0.0025743  -0.0189983
          175         176         177         178         179         180
    1  -0.0067109   0.0206046  -0.0477796   0.0010850   0.0304475  -0.0003826
    2   0.0318222   0.0081008  -0.0008963   0.0067248   0.0021544   0.0271438
    3  -0.0133767   0.0224145  -0.0342219   0.0058004   0.0088010  -0.0136384
          181         182         183         184         185         186
    1  -0.0271363   0.0441740  -0.0054920  -0.0317399   0.0200222   0.0147763
    2  -0.0153400  -0.0910470  -0.0040254   0.0172843  -0.0291493   0.0065311
    3   0.0136149   0.0414045   0.0116950   0.0102093   0.0038477   0.0276293
          187         188         189         190         191         192
    1   0.0464404  -0.0051720  -0.0064110   0.0003745  -0.0267711  -0.0107258
    2   0.0267519  -0.0002578   0.0305354   0.0006848  -0.0085225  -0.1044502
    3   0.0001888  -0.0012462   0.0109929  -0.0316181   0.0070425  -0.0334698
          193         194         195         196         197         198
    1   0.0002613  -0.0224939   0.0199529   0.0109311  -0.0381674  -0.0003296
    2  -0.0056634  -0.0036531  -0.0181350   0.0267616  -0.0311631   0.0053572
    3   0.0077791   0.0275827  -0.0105111   0.0128223  -0.0197947  -0.0053641
          199         200         201         202         203         204
    1   0.0135339   0.0088304  -0.0095061  -0.0244701   0.0026791   0.0067760
    2   0.0253803  -0.0157558   0.0288357   0.0976055  -0.0017954  -0.0201702
    3   0.0106428  -0.0308113  -0.0149629   0.0500974  -0.0029431  -0.0224151
          205         206         207         208         209         210
    1   0.0304711   0.0053491  -0.0169266  -0.0079906  -0.0153383  -0.0258885
    2   0.0104467  -0.0263659   0.0273105  -0.0080238  -0.0197531   0.0246868
    3   0.0046101   0.0237191   0.0462232  -0.0019021   0.0294731   0.0016324
          211         212         213         214         215         216
    1   0.0189877   0.0090622  -0.0016266  -0.0306332  -0.0005473   0.0105324
    2  -0.0093464   0.0512364   0.0078627   0.0075225  -0.0174256   0.0305048
    3  -0.0298433  -0.0968977   0.0071897  -0.0103728   0.0291200  -0.0070805
          217         218         219         220         221         222
    1   0.0049596  -0.0041546   0.0100327  -0.0091527  -0.0306761   0.0826207
    2   0.0194690  -0.0020987  -0.0259868  -0.0130064  -0.0092745  -0.0414816
    3  -0.0549401   0.0035642  -0.0104675   0.0302524  -0.0227428   0.0589307
          223         224         225         226         227         228
    1  -0.0044102   0.0041272  -0.0279332  -0.0166980  -0.0007675   0.0069131
    2  -0.0052255  -0.0323261   0.0076260   0.0096734   0.0536130  -0.0065436
    3   0.0006721  -0.0010289   0.0165025  -0.0258501  -0.0125543  -0.0096772
          229         230         231         232         233         234
    1  -0.0098562   0.0210669   0.0122288   0.0283631  -0.0079987  -0.0299316
    2  -0.0122200   0.0116863  -0.0270813  -0.0474959  -0.0096744  -0.0061615
    3  -0.0233499  -0.0255520   0.0132171   0.0923642   0.0039553   0.0267284
          235         236         237         238         239         240
    1  -0.0218501   0.0043137  -0.0026988   0.0010428  -0.0263600   0.0242617
    2   0.0141881  -0.0315580   0.0459808   0.0019802   0.0005433   0.0222076
    3  -0.0148857  -0.0028197   0.0268539  -0.0054016  -0.0211807  -0.0138250
          241         242         243         244         245         246
    1   0.0084512   0.0698193   0.0030043  -0.0176223  -0.0137939   0.0329550
    2  -0.0233668  -0.0845235   0.0025569   0.0326251  -0.0115010  -0.0056026
    3  -0.0156634   0.0180588   0.0066958   0.0066312   0.0254832   0.0072271
          247         248         249         250         251         252
    1   0.0120607  -0.0056198  -0.0117112  -0.0042971  -0.0149770   0.0484293
    2   0.0361535  -0.0047318  -0.0311548  -0.0196226   0.0301442  -0.1006607
    3  -0.0414212   0.0034155  -0.0080445   0.0270355   0.0001538   0.0096979
          253         254         255         256         257         258
    1  -0.0095841  -0.0062636  -0.0255845   0.0031499   0.0224722   0.0086435
    2   0.0033271   0.0283250  -0.0142112  -0.0108850  -0.0485429   0.0108819
    3   0.0038439   0.0039449  -0.0093424   0.0281086   0.0036557   0.0064340
          259         260         261         262         263         264
    1   0.0290597  -0.0084235   0.0033451  -0.0188725   0.0089932   0.0087085
    2   0.0116918   0.0336275  -0.0078879   0.0616105  -0.0038424  -0.0118863
    3  -0.0075541  -0.0062110   0.0314718  -0.0895621  -0.0010546   0.0296210
          265         266         267         268         269         270
    1  -0.0067395   0.0197348  -0.0256673   0.0027602   0.0259899  -0.0184180
    2  -0.0213560   0.0185816   0.0234848   0.0050897   0.0239329   0.0081900
    3  -0.0236355  -0.0236991  -0.0332995   0.0051631  -0.0097397   0.0243063
          271         272
    1   0.0143334  -0.0315189
    2  -0.0133962  -0.0796510
    3   0.0218642   0.0707612
  --- DONE ESP SUMMARY ---
Archival summary:
1\1\n0100.mhg0\SP\ProcedureUnspecified\6-31+G*\252550h22\ymao\FriMar1209:13:262021FriMar1209:13:262021\0\\#,ProcedureUnspecified,6-31+G*,\\0,1\S\O,1,1.49662\C,1,1.80734,2,104.568\H,3,1.09237,1,111.863,2,158.164,0\H,3,1.09327,1,108.895,2,33.645,0\H,3,1.09336,1,108.566,2,-78.9724,0\C,1,1.80753,2,107.066,3,94.868,0\H,7,1.09212,1,108.919,2,61.7104,0\H,7,1.09296,1,112.943,2,-173.177,0\H,7,1.09296,1,108.122,2,-51.156,0\H,6,1.98801,3,128.397,1,-121.459,0\C,11,1.09342,6,130.294,3,-43.736,0\H,12,1.0929,11,118.559,6,159.679,0\H,12,1.09294,11,105.457,6,34.4287,0\S,12,1.80608,11,99.6069,6,-77.5983,0\O,15,1.49714,12,105.098,11,47.9084,0\Gh,16,1.78473,15,153.882,12,85.6059,0\Gh,17,1.01288,16,161.148,15,113.65,0\Gh,18,1.37976,17,113.496,16,-103.023,0\Gh,19,1.10549,18,111.895,17,7.23887,0\Gh,19,1.21779,18,127.08,17,175.442,0\Gh,18,1.46204,17,121.827,16,80.0715,0\Gh,22,1.09608,18,110.801,17,-137.569,0\Gh,22,1.53701,18,106.411,17,-18.8665,0\Gh,24,1.09632,22,112.617,18,-61.3288,0\Gh,24,1.0972,22,108.818,18,49.6379,0\Gh,24,1.5378,22,111.353,18,174.079,0\Gh,27,1.09646,24,111.017,22,82.3085,0\Gh,27,1.09658,24,106.276,22,-160.108,0\Gh,27,1.53752,24,114.719,22,-49.3796,0\Gh,30,1.09716,27,114.488,24,-75.0207,0\Gh,30,1.09748,27,111.014,24,165.618,0\Gh,30,1.53703,27,112.339,24,46.5281,0\Gh,33,1.09659,30,119.897,27,-176.221,0\Gh,33,1.09692,30,107.752,27,66.3557,0\Gh,33,1.53701,30,111.383,27,-50.5705,0\Gh,36,1.0967,33,105.568,30,-66.5128,0\Gh,36,1.09682,33,112.519,30,174.92,0\C,15,1.80718,12,91.336,11,-61.2852,0\H,39,1.09236,15,99.229,12,-44.6314,0\H,39,1.09271,15,107.561,12,-161.208,0\H,39,1.09285,15,116.302,12,75.3673,0\H,28,2.08014,27,163.678,24,-102.972,0\C,43,1.09263,28,148.188,27,104.434,0\H,44,1.09301,43,103.969,28,-45.0494,0\H,44,1.0933,43,111.676,28,-168.14,0\S,44,1.80664,43,100.696,28,72.2446,0\O,47,1.49635,44,104.629,43,153.666,0\C,47,1.80734,44,96.3857,43,53.1,0\H,49,1.09258,47,112.297,44,-59.309,0\H,49,1.09262,47,100.616,44,59.638,0\H,49,1.093,47,102.741,44,173.411,0\H,50,2.20544,49,142.071,47,-113.354,0\C,53,1.09312,50,115.832,49,-123.711,0\H,54,1.09215,53,110.415,50,-41.0511,0\H,54,1.09285,53,114.115,50,-154.021,0\S,54,1.80741,53,113.242,50,79.3756,0\O,57,1.49778,54,95.3628,53,144.207,0\C,57,1.80703,54,98.7687,53,-110.552,0\H,59,1.09223,57,109.305,54,78.6293,0\H,59,1.09277,57,104.701,54,-45.836,0\H,59,1.09336,57,105.337,54,-161.242,0\H,61,1.94064,59,160.144,57,-87.366,0\C,63,1.09349,61,142.403,59,-106.068,0\H,64,1.09271,63,114.138,61,-30.2299,0\H,64,1.09313,63,100.789,61,94.2134,0\S,64,1.80735,63,109.351,61,-157.799,0\O,67,1.49624,64,103.775,63,-52.0633,0\C,67,1.80771,64,92.9384,63,58.9583,0\H,69,1.09247,67,108.995,64,-53.6484,0\H,69,1.09261,67,101.677,64,-178.087,0\H,69,1.09277,67,106.886,64,72.2788,0\H,38,2.20933,36,132.426,33,150.018,0\C,73,1.09338,38,122.634,36,-14.2555,0\H,74,1.09236,73,110.217,38,40.7643,0\H,74,1.09296,73,112.973,38,-83.3327,0\S,74,1.80779,73,113.466,38,159.139,0\O,77,1.49644,74,108.581,73,-44.2173,0\C,77,1.80694,74,87.7696,73,62.5673,0\H,79,1.09225,77,111.203,74,-50.329,0\H,79,1.09316,77,110.368,74,75.9097,0\H,79,1.09372,77,104.953,74,-175.271,0\H,80,2.18662,79,123.874,77,-40.3151,0\C,83,1.09303,80,108.715,79,-108.405,0\H,84,1.09301,83,110.307,80,153.307,0\H,84,1.09335,83,99.294,80,36.0099,0\S,84,1.80644,83,111.779,80,-79.5823,0\O,87,1.49768,84,101.083,83,-166.041,0\C,87,1.80678,84,94.4321,83,-68.1578,0\H,89,1.09239,87,106.764,84,-158.625,0\H,89,1.09276,87,108.529,84,-33.7726,0\H,89,1.09321,87,104.795,84,81.2616,0\H,86,1.9403,84,116.398,83,78.4568,0\C,93,1.09263,86,118.588,84,151.135,0\H,94,1.09287,93,108.903,86,144.135,0\H,94,1.09341,93,110.493,86,23.6048,0\S,94,1.80691,93,108.323,86,-91.5074,0\O,97,1.49769,94,109.904,93,-178.411,0\C,97,1.80647,94,92.3028,93,84.0233,0\H,99,1.09254,97,111.569,94,40.5849,0\H,99,1.09279,97,105.693,94,-79.6008,0\H,99,1.0933,97,116.851,94,165.38,0\H,91,2.12159,89,162.559,87,153.041,0\C,103,1.09313,91,134.815,89,7.69566,0\H,104,1.09221,103,111.386,91,-123.545,0\H,104,1.09355,103,107.109,91,107.051,0\S,104,1.80711,103,104.484,91,-5.23604,0\O,107,1.49719,104,97.2329,103,70.5599,0\C,107,1.80676,104,91.283,103,173.252,0\H,109,1.09257,107,109.469,104,103.89,0\H,109,1.09334,107,106.896,104,-10.3984,0\H,109,1.09384,107,114.031,104,-136.072,0\H,71,2.24351,69,128.253,67,-136.534,0\C,113,1.09369,71,107.289,69,138.072,0\H,114,1.09252,113,107.698,71,-64.675,0\H,114,1.09271,113,121.014,71,63.6673,0\S,114,1.8064,113,107.198,71,-176.982,0\O,117,1.49738,114,102.674,113,81.0342,0\C,117,1.80684,114,90.3885,113,177.833,0\H,119,1.09194,117,108.035,114,60.1772,0\H,119,1.09306,117,118.937,114,-172.398,0\H,119,1.0932,117,106.834,114,-52.3955,0\H,25,2.25261,24,127.109,22,153.733,0\C,123,1.09308,25,137.896,24,166.013,0\H,124,1.09243,123,110.742,25,-166.668,0\H,124,1.09249,123,110.253,25,72.1288,0\S,124,1.80745,123,110.111,25,-44.9261,0\O,127,1.49729,124,102.972,123,44.9966,0\C,127,1.80722,124,97.8367,123,146.585,0\H,129,1.09266,127,108.554,124,57.2559,0\H,129,1.09309,127,112.435,124,175.97,0\H,129,1.09338,127,104.316,124,-59.0139,0\H,131,2.05281,129,97.7838,127,87.6962,0\C,133,1.09313,131,171.958,129,133.457,0\H,134,1.09178,133,110.869,131,107.318,0\H,134,1.09268,133,113.271,131,-131.818,0\S,134,1.80781,133,101.447,131,-12.7046,0\O,137,1.49669,134,102.905,133,43.4767,0\C,137,1.80655,134,104.534,133,-65.1545,0\H,139,1.09277,137,106.187,134,168.541,0\H,139,1.09291,137,113.082,134,-76.3886,0\H,139,1.09339,137,111.799,134,47.5407,0\H,125,2.24088,124,136.312,123,-28.1821,0\C,143,1.09321,125,131.451,124,42.5838,0\H,144,1.09277,143,112.417,125,-109.151,0\H,144,1.09335,143,110.444,125,116.221,0\S,144,1.8071,143,102.135,125,1.86765,0\O,147,1.49724,144,106.836,143,68.5736,0\C,147,1.80641,144,97.5592,143,171.075,0\H,149,1.09233,147,115.003,144,-46.9623,0\H,149,1.09288,147,119.79,144,-174.869,0\H,149,1.09309,147,105.047,144,63.2811,0\H,110,2.25542,109,140.74,107,-57.4085,0\C,153,1.0928,110,132.259,109,-40.5473,0\H,154,1.09326,153,112.571,110,-176.008,0\H,154,1.09332,153,108.007,110,67.3932,0\S,154,1.80634,153,109.614,110,-50.3901,0\O,157,1.49715,154,107.95,153,64.2901,0\C,157,1.80741,154,97.7691,153,172.077,0\H,159,1.0927,157,106.819,154,-90.1793,0\H,159,1.09276,157,106.126,154,145.098,0\H,159,1.09336,157,104.33,154,33.3303,0\O,4,2.25997,3,156.898,1,55.7369,0\S,163,1.49687,4,136.949,3,-11.8298,0\C,164,1.80676,163,103.476,4,-37.0786,0\H,165,1.09295,164,101.411,163,51.362,0\H,165,1.09324,164,113.688,163,-68.5934,0\H,165,1.09326,164,103.725,163,176.051,0\C,164,1.80679,163,104.251,4,67.5035,0\H,169,1.09231,164,110.459,163,-60.4047,0\H,169,1.09312,164,105.974,163,179.603,0\H,169,1.0941,164,105.008,163,58.1379,0\H,34,2.29221,33,143.546,30,168.411,0\C,173,1.09236,34,101.708,33,96.8093,0\H,174,1.09293,173,109.447,34,94.9762,0\H,174,1.09307,173,111.411,34,-26.9335,0\S,174,1.80711,173,109.696,34,-141.197,0\O,177,1.49693,174,103.734,173,4.33974,0\C,177,1.80641,174,92.8806,173,-99.4376,0\H,179,1.09337,177,104.886,174,167.94,0\H,179,1.09337,177,110.912,174,-65.2551,0\H,179,1.09338,177,104.314,174,54.5033,0\H,70,2.29705,69,122.407,67,-55.8107,0\C,183,1.09327,70,126.724,69,-57.0031,0\H,184,1.09247,183,105.36,70,6.01642,0\H,184,1.09366,183,113.01,70,-108.665,0\S,184,1.80689,183,108.762,70,129.393,0\O,187,1.49674,184,104.366,183,168.706,0\C,187,1.80695,184,92.174,183,64.4849,0\H,189,1.09286,187,107.555,184,-75.1945,0\H,189,1.09289,187,116.931,184,163.979,0\H,189,1.09297,187,111.338,184,38.9692,0\H,85,2.35205,84,160.564,83,-36.9395,0\C,193,1.09367,85,107.457,84,6.29069,0\H,194,1.09236,193,109.938,85,-89.2365,0\H,194,1.0926,193,108.115,85,35.4441,0\S,194,1.8061,193,116.28,85,145.811,0\O,197,1.49699,194,101.697,193,-173.753,0\C,197,1.80668,194,97.0991,193,78.6407,0\H,199,1.09237,197,105.121,194,-84.549,0\H,199,1.09282,197,111.482,194,43.373,0\H,199,1.09329,197,109.683,194,165.679,0\H,176,2.36954,174,141.096,173,-92.6063,0\C,203,1.09306,176,115.112,174,-158.398,0\H,204,1.09263,203,114.241,176,-179.809,0\H,204,1.09336,203,116.121,176,-50.4147,0\S,204,1.8073,203,104.695,176,68.7924,0\O,207,1.49787,204,100.367,203,-63.6106,0\C,207,1.80716,204,98.6869,203,-173.035,0\H,209,1.09239,207,105.107,204,-72.8605,0\H,209,1.09255,207,102.879,204,177.694,0\H,209,1.09295,207,118.235,204,57.3403,0\H,2,2.4168,1,97.4773,3,156.652,0\C,213,1.09335,2,131.206,1,-22.483,0\H,214,1.09284,213,109.07,2,-52.2704,0\H,214,1.09364,213,108.868,2,72.1518,0\S,214,1.80736,213,101.467,2,-168.731,0\O,217,1.49685,214,109.647,213,-56.9114,0\C,217,1.80728,214,97.6567,213,-160.339,0\H,219,1.09214,217,104.001,214,-69.5276,0\H,219,1.09303,217,113.35,214,178.23,0\H,219,1.09316,217,108.347,214,51.3221,0\H,161,2.4168,159,139.042,157,-35.5287,0\C,223,1.0935,161,157.688,159,-41.8459,0\H,224,1.09268,223,114.753,161,-87.185,0\H,224,1.09309,223,103.97,161,144.81,0\S,224,1.8072,223,107.841,161,30.6685,0\O,227,1.49703,224,97.594,223,-75.6864,0\C,227,1.80695,224,88.8073,223,-175.486,0\H,229,1.09278,227,109.129,224,-65.4659,0\H,229,1.09306,227,111.046,224,49.2154,0\H,229,1.0932,227,114.194,224,166.369,0\H,78,2.41861,77,95.8405,74,-110.908,0\C,233,1.09303,78,167.176,77,-149.285,0\H,234,1.09205,233,111.182,78,-59.285,0\H,234,1.09387,233,119.145,78,174.217,0\S,234,1.80708,233,117.297,78,61.0913,0\O,237,1.49751,234,107.619,233,-167.116,0\C,237,1.80703,234,93.3466,233,-60.101,0\H,239,1.09239,237,109.495,234,-52.6493,0\H,239,1.09318,237,110.306,234,71.6005,0\H,239,1.09325,237,107.659,234,-162.788,0\H,72,2.44561,69,147.774,67,-76.7065,0\C,243,1.09266,72,157.498,69,-80.4186,0\H,244,1.09293,243,107.28,72,-68.3573,0\H,244,1.09308,243,105.675,72,172.452,0\S,244,1.80626,243,113.873,72,40.352,0\O,247,1.49729,244,104.853,243,-17.4088,0\C,247,1.80761,244,93.4028,243,89.3516,0\H,249,1.09281,247,105.625,244,147.419,0\H,249,1.09299,247,105.383,244,37.1438,0\H,249,1.09334,247,108.826,244,-90.649,0\H,178,2.46321,177,143.168,174,-80.0749,0\C,253,1.09291,178,139.852,177,11.5601,0\H,254,1.09245,253,108.452,178,-50.039,0\H,254,1.09269,253,106.69,178,-168.727,0\S,254,1.80732,253,108.552,178,72.216,0\O,257,1.49775,254,105.674,253,80.094,0\C,257,1.80724,254,95.7373,253,-178.235,0\H,259,1.09264,257,109.323,254,-157.343,0\H,259,1.09304,257,103.321,254,72.8743,0\H,259,1.0932,257,102.262,254,-38.7905,0\O,243,2.53005,72,81.6168,69,139.269,0\S,263,1.4976,243,116.765,72,110.043,0\C,264,1.80725,263,103.065,243,-161.581,0\H,265,1.0924,264,102.606,263,-178.957,0\H,265,1.09301,264,110.867,263,64.8599,0\H,265,1.09308,264,107.555,263,-60.3656,0\C,264,1.80755,263,100.108,243,100.154,0\H,269,1.09278,264,110.374,263,-88.6863,0\H,269,1.09278,264,110.259,263,152.782,0\H,269,1.09328,264,112.927,263,28.5199,0\\\@

 Total job time:  59.72s(wall), 207.46s(cpu) 
 Fri Mar 12 09:13:26 2021

        *************************************************************
        *                                                           *
        *  Thank you very much for using Q-Chem.  Have a nice day.  *
        *                                                           *
        *************************************************************


