                  Welcome to Q-Chem
     A Quantum Leap Into The Future Of Chemistry


 Q-Chem 5.2 (devel), Q-Chem, Inc., Pleasanton, CA (2019)

 Yihan Shao,  Zhengting Gan,  E. Epifanovsky,  A. T. B. Gilbert,  M. Wormit,  
 J. Kussmann,  A. W. Lange,  A. Behn,  Jia Deng,  Xintian Feng,  D. Ghosh,  
 M. Goldey,  P. R. Horn,  L. D. Jacobson,  I. Kaliman,  T. Kus,  A. Landau,  
 Jie Liu,  E. I. Proynov,  R. M. Richard,  R. P. Steele,  E. J. Sundstrom,  
 H. L. Woodcock III,  P. M. Zimmerman,  D. Zuev,  B. Alam,  B. Albrecht,  
 E. Alguire,  S. A. Baeppler,  D. Barton,  Z. Benda,  Y. A. Bernard,  
 E. J. Berquist,  K. B. Bravaya,  H. Burton,  K. Carter-Fenk,  D. Casanova,  
 Chun-Min Chang,  Yunqing Chen,  A. Chien,  K. D. Closser,  M. P. Coons,  
 S. Coriani,  S. Dasgupta,  A. L. Dempwolff,  M. Diedenhofen,  Hainam Do,  
 R. G. Edgar,  Po-Tung Fang,  S. Faraji,  S. Fatehi,  Qingguo Feng,  
 J. Fosso-Tande,  J. Gayvert,  Qinghui Ge,  A. Ghysels,  G. Gidofalvi,  
 J. Gomes,  J. Gonthier,  A. Gunina,  D. Hait,  M. W. D. Hanson-Heine,  
 P. H. P. Harbach,  A. W. Hauser,  M. F. Herbst,  J. E. Herr,  
 E. G. Hohenstein,  Z. C. Holden,  Kerwin Hui,  B. C. Huynh,  T.-C. Jagau,  
 Hyunjun Ji,  B. Kaduk,  K. Khistyaev,  Jaehoon Kim,  P. Klunzinger,  K. Koh,  
 D. Kosenkov,  L. Koulias,  T. Kowalczyk,  C. M. Krauter,  A. Kunitsa,  
 Ka Un Lao,  A. Laurent,  K. V. Lawler,  Joonho Lee,  D. Lefrancois,  
 S. Lehtola,  D. S. Levine,  Yi-Pei Li,  You-Sheng Lin,  Fenglai Liu,  
 Kuan-Yu Liu,  E. Livshits,  M. Loipersberger,  A. Luenser,  P. Manohar,  
 E. Mansoor,  S. F. Manzer,  Shan-Ping Mao,  Yuezhi Mao,  N. Mardirossian,  
 A. V. Marenich,  T. Markovich,  L. A. Martinez-Martinez,  S. A. Maurer,  
 N. J. Mayhall,  S. C. McKenzie,  J.-M. Mewes,  P. Morgante,  A. F. Morrison,  
 J. W. Mullinax,  K. Nanda,  T. S. Nguyen-Beck,  R. Olivares-Amaya,  
 J. A. Parkhill,  S. K. Paul,  F. Pavosevic,  Zheng Pei,  T. M. Perrine,  
 F. Plasser,  P. Pokhilko,  S. Prager,  A. Prociuk,  E. Ramos,  B. Rana,  
 D. R. Rehn,  F. Rob,  M. Scheurer,  M. Schneider,  N. Sergueev,  
 S. M. Sharada,  S. Sharma,  D. W. Small,  T. Stauch,  C. J. Stein,  
 T. Stein,  Yu-Chuan Su,  S. P. Veccham,  Zhen Tao,  A. J. W. Thom,  
 A. Tkatchenko,  T. Tsuchimochi,  N. M. Tubman,  L. Vogt,  M. L. Vidal,  
 O. Vydrov,  M. A. Watson,  J. Wenzel,  M. de Wergifosse,  T. A. Wesolowski,  
 A. White,  J. Witte,  A. Yamada,  Jun Yang,  K. Yao,  S. Yeganeh,  
 S. R. Yost,  Zhi-Qiang You,  A. Zech,  Igor Ying Zhang,  Xing Zhang,  
 Yan Zhao,  Ying Zhu,  B. R. Brooks,  G. K. L. Chan,  C. J. Cramer,  
 M. S. Gordon,  W. J. Hehre,  A. Klamt,  M. W. Schmidt,  C. D. Sherrill,  
 D. G. Truhlar,  A. Aspuru-Guzik,  R. Baer,  A. T. Bell,  N. A. Besley,  
 Jeng-Da Chai,  A. E. DePrince, III,  R. A. DiStasio Jr.,  A. Dreuw,  
 B. D. Dunietz,  T. R. Furlani,  Chao-Ping Hsu,  Yousung Jung,  Jing Kong,  
 D. S. Lambrecht,  WanZhen Liang,  C. Ochsenfeld,  V. A. Rassolov,  
 L. V. Slipchenko,  J. E. Subotnik,  T. Van Voorhis,  J. M. Herbert,  
 A. I. Krylov,  P. M. W. Gill,  M. Head-Gordon

 Contributors to earlier versions of Q-Chem not listed above: 
 R. D. Adamson,  B. Austin,  J. Baker,  G. J. O. Beran,  K. Brandhorst,  
 S. T. Brown,  E. F. C. Byrd,  A. K. Chakraborty,  C.-L. Cheng,  
 Siu Hung Chien,  D. M. Chipman,  D. L. Crittenden,  H. Dachsel,  
 R. J. Doerksen,  A. D. Dutoi,  L. Fusti-Molnar,  W. A. Goddard III,  
 A. Golubeva-Zadorozhnaya,  S. R. Gwaltney,  G. Hawkins,  A. Heyden,  
 S. Hirata,  G. Kedziora,  F. J. Keil,  C. Kelley,  Jihan Kim,  R. A. King,  
 R. Z. Khaliullin,  P. P. Korambath,  W. Kurlancheek,  A. M. Lee,  M. S. Lee,  
 S. V. Levchenko,  Ching Yeh Lin,  D. Liotard,  R. C. Lochan,  I. Lotan,  
 P. E. Maslen,  N. Nair,  D. P. O'Neill,  D. Neuhauser,  E. Neuscamman,  
 C. M. Oana,  R. Olson,  B. Peters,  R. Peverati,  P. A. Pieniazek,  
 Y. M. Rhee,  J. Ritchie,  M. A. Rohrdanz,  E. Rosta,  N. J. Russ,  
 H. F. Schaefer III,  N. E. Schultz,  N. Shenvi,  A. C. Simmonett,  A. Sodt,  
 D. Stuck,  K. S. Thanthiriwatte,  V. Vanovschi,  Tao Wang,  A. Warshel,  
 C. F. Williams,  Q. Wu,  X. Xu,  W. Zhang

 Please cite Q-Chem as follows:
 Y. Shao et al., Mol. Phys. 113, 184-215 (2015)
 DOI: 10.1080/00268976.2014.952696

 Q-Chem 5.2.2 for Intel X86 EM64T Linux

 Parts of Q-Chem use Armadillo 9.800.1 (Horizon Scraper).
 http://arma.sourceforge.net/

 Q-Chem begins on Thu Mar 11 13:37:44 2021  

Host: n0095.mhg0
0

     Scratch files written to /local/scratch/users/ymao/r7.00_frame_0079_almo_B3LYP_dp.in20210311133740//

Checking the input file for inconsistencies... 	...done.

--------------------------------------------------------------
User input:
--------------------------------------------------------------
$molecule
0 1
--
0 1
C    30.11000   28.25000   26.57000  
C    29.38100   28.09800   27.91500  
C    29.29800   26.64300   28.40500  
C    30.69700   26.00900   28.33400  
C    31.35800   26.08300   26.94700  
C    31.46400   27.53200   26.44200  
H    29.00300   26.57000   29.45900  
H    30.06300   28.56500   28.63700  
H    29.41200   27.90400   25.79800  
H    30.26600   29.30200   26.30400  
H    31.26300   26.58000   29.07900  
H    30.57200   24.95900   28.62500  
H    32.41100   25.80100   27.06000  
H    30.79400   25.48500   26.22100  
H    32.17000   28.10100   27.05900  
H    31.84600   27.53500   25.41400  
H    28.56100   26.06800   27.83000  
N    28.11000   28.81900   27.91600  
H    27.36400   28.59700   27.26700  
C    27.70000   29.64600   28.94100  
H    26.66600   30.01000   28.80500  
O    28.42400   29.98900   29.85900  
--
0 1
C    23.94100   31.75800   24.60000  
H    23.80000   30.73100   24.94600  
H    24.20200   32.42500   25.42600  
H    23.06800   32.10100   24.03900  
S    25.33300   31.88300   23.45400  
C    25.01000   33.61300   23.04300  
H    24.79100   34.17200   23.95600  
H    25.85700   34.00900   22.47700  
H    24.19600   33.79900   22.33800  
O    24.94600   30.99700   22.31200  
C    32.38400   31.19500   27.80900  
H    32.17100   30.87300   26.78700  
H    33.18900   30.65700   28.31700  
H    31.60500   31.41300   28.54400  
S    33.34700   32.68400   27.45700  
C    34.36100   32.61000   28.95000  
H    33.62500   32.69000   29.75400  
H    34.93200   31.68400   29.06300  
H    35.07200   33.43200   29.06800  
O    32.47700   33.88100   27.68100  
C    26.84300   25.84000   32.09100  
H    27.15300   25.80600   31.04400  
H    27.72300   25.62000   32.70000  
H    26.03800   25.11800   32.24900  
S    26.08600   27.39900   32.60200  
C    27.69700   28.14700   32.93700  
H    27.63100   29.19700   33.23200  
H    28.11300   27.61200   33.79400  
H    28.36400   28.07100   32.07500  
O    25.45800   27.22200   33.94900  
C    38.26400   24.31200   30.34700  
H    38.06000   23.60500   29.53800  
H    38.33800   25.34400   29.99400  
H    39.24000   24.23700   30.83300  
S    37.02200   24.22900   31.65700  
C    36.90800   22.44700   31.93300  
H    37.90900   22.09300   32.19300  
H    36.19900   22.29500   32.75100  
H    36.55000   22.00500   31.00000  
O    35.83500   24.37300   30.75700  
C    32.17900   34.15500   24.53300  
H    32.08700   34.94200   25.28500  
H    32.16800   33.13400   24.92500  
H    33.13600   34.28100   24.02000  
S    30.91300   34.39600   23.26600  
C    31.58700   35.91500   22.55700  
H    30.88400   36.06500   21.73500  
H    31.62600   36.78000   23.22400  
H    32.53400   35.61800   22.09900  
O    29.61700   34.80100   23.89700  
C    28.95100   31.56500   22.97200  
H    28.54000   32.57200   22.85800  
H    28.78800   31.31000   24.02300  
H    30.04000   31.55500   22.88600  
S    28.21600   30.38200   21.82100  
C    29.61700   29.26400   22.04800  
H    29.97200   29.29600   23.08100  
H    29.45700   28.21300   21.79300  
H    30.42400   29.64300   21.41600  
O    28.53100   30.89800   20.45100  
C    33.46700   21.28500   32.19000  
H    34.41100   20.73600   32.22400  
H    33.50700   22.18800   32.80500  
H    32.67700   20.57600   32.45500  
S    32.98300   21.75500   30.51400  
C    31.30400   22.32200   30.86800  
H    30.63200   21.50500   31.14400  
H    31.30500   23.15900   31.57200  
H    30.89200   22.62000   29.90100  
O    32.71900   20.38100   29.98100  
C    28.32200   20.20900   29.85700  
H    28.46000   20.78000   30.77900  
H    29.08800   20.49500   29.13100  
H    27.31300   20.39000   29.47700  
S    28.47600   18.43000   30.12900  
C    30.24500   18.52600   30.48500  
H    30.51700   17.48100   30.65900  
H    30.83600   18.88700   29.64000  
H    30.50700   19.15500   31.33900  
O    28.60400   17.94100   28.72000  
C    30.06800   35.25200   30.03100  
H    30.83600   35.56400   29.31900  
H    29.06200   35.20100   29.60500  
H    30.01400   35.97000   30.85300  
S    30.67800   33.70800   30.74500  
C    28.97700   33.10800   30.85200  
H    28.51700   33.15700   29.86100  
H    29.04300   32.05600   31.13800  
H    28.35000   33.74900   31.47700  
O    30.80300   34.11600   32.18000  
C    30.26900   22.37900   34.91300  
H    30.48100   21.84300   35.84200  
H    31.15700   22.75000   34.39500  
H    29.59200   23.21600   35.10100  
S    29.35300   21.25100   33.83900  
C    28.55800   20.40300   35.22300  
H    27.73000   19.73500   34.97400  
H    29.33700   19.81000   35.70900  
H    28.21100   21.20500   35.88100  
O    30.33300   20.18700   33.45500  
C    24.77900   24.31300   27.97700  
H    25.28900   25.04500   27.34500  
H    24.26000   23.53700   27.40800  
H    24.11700   24.73700   28.73600  
S    26.09800   23.59200   28.98000  
C    26.92100   22.76700   27.59900  
H    27.75600   22.17100   27.97700  
H    26.07200   22.34000   27.06000  
H    27.28400   23.63300   27.03900  
O    25.45800   22.45300   29.71100  
C    38.00100   26.67000   25.11600  
H    38.70900   26.28900   25.85700  
H    37.03400   26.54500   25.60900  
H    37.89900   26.09700   24.19100  
S    38.18700   28.43000   24.74800  
C    39.76300   28.25000   23.88200  
H    40.30500   29.19600   23.96300  
H    40.42000   27.60100   24.46800  
H    39.80800   27.84100   22.87000  
O    38.57900   29.01200   26.07000  
C    28.76000   24.18700   24.22200  
H    29.53200   24.91900   24.47500  
H    27.80200   24.48200   24.65800  
H    28.97000   23.16200   24.53700  
S    28.57200   24.56300   22.46500  
C    30.24900   23.99500   22.10800  
H    30.23700   22.90800   22.21700  
H    30.33400   24.39600   21.09400  
H    30.85300   24.55900   22.82300  
O    28.71900   26.05100   22.54600  
C    32.21500   22.49400   25.56400  
H    33.20000   22.02900   25.47600  
H    31.45100   22.36800   24.79300  
H    32.39000   23.57300   25.59000  
S    31.57400   22.01000   27.18300  
C    31.37000   20.25600   26.79600  
H    30.73900   19.83600   27.58400  
H    30.85000   20.16100   25.84000  
H    32.38100   19.85500   26.69300  
O    30.17200   22.53100   27.24500  
C    22.07300   36.01100   28.27800  
H    22.56900   36.83400   27.75700  
H    21.25500   35.57200   27.70000  
H    21.80100   36.19000   29.32100  
S    23.29500   34.69500   28.47400  
C    24.62600   35.60600   29.28800  
H    25.43300   34.87000   29.32300  
H    25.07000   36.41600   28.70200  
H    24.39900   35.96300   30.29600  
O    23.72500   34.59800   27.04300  
C    32.88300   25.91900   32.41100  
H    33.45500   26.84800   32.35400  
H    33.02600   25.52500   33.42000  
H    33.32600   25.34700   31.59100  
S    31.17600   26.36700   32.02300  
C    31.41700   28.05600   31.42600  
H    30.40200   28.43400   31.27900  
H    31.91800   28.51900   32.28000  
H    32.04100   28.10800   30.53100  
O    30.53900   26.60400   33.35700  
C    33.27100   29.04200   22.68500  
H    32.80900   29.61100   21.87400  
H    33.65900   28.10200   22.28500  
H    32.54600   28.68600   23.42000  
S    34.49300   30.01700   23.59200  
C    34.61700   28.87400   24.98600  
H    35.15500   29.41000   25.77300  
H    33.62500   28.58900   25.34500  
H    35.23400   28.01100   24.72600  
O    33.67100   31.06700   24.27200  
C    24.69300   26.36200   24.39500  
H    25.62200   25.78800   24.45300  
H    23.90200   25.89500   24.98700  
H    24.39300   26.57900   23.36700  
S    25.13700   27.88400   25.26200  
C    26.67500   28.19800   24.36700  
H    27.01800   29.23300   24.43800  
H    27.38900   27.45900   24.73900  
H    26.55400   28.00400   23.29800  
O    25.72800   27.37600   26.53900  
C    35.93300   30.15700   33.56600  
H    36.50300   29.26200   33.82600  
H    36.43300   30.85700   32.89100  
H    35.56600   30.59000   34.50000  
S    34.35300   29.52800   32.95300  
C    33.63400   31.17800   32.79900  
H    33.56900   31.51500   33.83700  
H    34.27200   31.70500   32.08500  
H    32.62700   31.04300   32.39700  
O    33.67400   28.91200   34.13600  
C    33.94400   24.94600   23.69500  
H    34.44700   25.23200   24.62300  
H    33.04600   25.56000   23.59500  
H    33.73700   23.87300   23.72000  
S    35.17600   25.20400   22.39800  
C    36.31200   23.91500   22.95900  
H    37.24600   23.88200   22.39300  
H    36.52100   24.09400   24.01700  
H    35.84000   22.93800   22.82900  
O    35.73300   26.54500   22.76200  
C    23.53300   32.28000   32.71800  
H    22.59300   32.67000   32.32000  
H    23.45900   31.19000   32.75200  
H    23.81200   32.72300   33.67800  
S    24.71500   32.66900   31.40700  
C    26.07900   31.59900   31.91700  
H    26.91800   31.63700   31.21700  
H    26.48900   31.92300   32.87800  
H    25.70300   30.58700   32.08500  
O    25.26500   34.03100   31.69700  
C    37.52300   23.39300   26.81300  
H    37.42500   22.91200   25.83700  
H    37.99100   24.37400   26.70000  
H    38.18500   22.78000   27.43000  
S    35.91300   23.55300   27.61700  
C    35.46000   21.83000   27.92400  
H    34.37900   21.77000   28.07400  
H    35.91000   21.27000   27.10000  
H    35.88800   21.37700   28.82100  
O    34.87600   24.04900   26.65800  
C    23.46600   31.29300   28.58300  
H    24.46400   31.71000   28.42500  
H    22.99800   31.46700   27.61000  
H    23.01200   31.76600   29.45700  
S    23.92500   29.56400   28.83700  
C    22.22900   28.95600   28.69800  
H    21.45600   29.46300   29.28000  
H    22.11000   29.07300   27.61800  
H    22.16800   27.89400   28.94900  
O    24.30800   29.35100   30.26900  
C    26.87800   34.28300   26.20800  
H    26.83400   33.94400   25.17000  
H    25.84900   34.36300   26.56700  
H    27.32400   35.26200   26.40100  
S    27.66800   32.93600   27.11900  
C    29.37000   33.49300   26.87600  
H    29.73800   33.59500   25.85200  
H    29.34300   34.48100   27.34100  
H    30.03300   32.74900   27.32400  
O    27.55100   31.75700   26.20500  
C    30.33900   33.03200   35.36500  
H    31.42600   32.91400   35.38100  
H    30.01300   33.28500   34.35300  
H    29.89800   33.69900   36.11000  
S    29.73800   31.37800   35.77800  
C    30.53200   30.49300   34.41800  
H    30.11800   29.49900   34.23300  
H    30.61200   31.09500   33.51000  
H    31.56100   30.39000   34.77300  
O    28.28100   31.46000   35.44500  
C    35.87000   27.03300   28.42700  
H    36.72600   26.61500   27.89100  
H    35.33900   26.23100   28.94700  
H    35.09200   27.34400   27.72500  
S    36.21400   28.51600   29.40000  
C    36.98300   27.63900   30.78000  
H    37.93700   27.24300   30.42100  
H    37.24100   28.40500   31.51600  
H    36.33300   26.90600   31.26300  
O    34.84700   28.90300   29.87000  
$end

$rem
JOBTYPE  SP
METHOD  B3LYP
BASIS  6-31+G(D)
SYMMETRY  FALSE
SYM_IGNORE  TRUE
MEM_TOTAL  16000
MEM_STATIC  8000
MAX_SUB_FILE_NUM  16000
BASIS_LIN_DEP_THRESH  6
THRESH  14
SCF_CONVERGENCE  8
GEN_SCFMAN  TRUE
SCF_GUESS  FRAGMO
FD_MAT_VEC_PROD  FALSE
XC_GRID  000075000302
NL_GRID  1
MAX_SCF_CYCLES  200
FRGM_METHOD  STOLL
SCFMI_MODE  1
$end

$development
almo_efield  1
$end

$rem_frgm
SCF_CONVERGENCE  4
$end

--------------------------------------------------------------
 ----------------------------------------------------------------
             Standard Nuclear Orientation (Angstroms)
    I     Atom           X                Y                Z
 ----------------------------------------------------------------
    1      C      30.1100000000    28.2500000000    26.5700000000
    2      C      29.3810000000    28.0980000000    27.9150000000
    3      C      29.2980000000    26.6430000000    28.4050000000
    4      C      30.6970000000    26.0090000000    28.3340000000
    5      C      31.3580000000    26.0830000000    26.9470000000
    6      C      31.4640000000    27.5320000000    26.4420000000
    7      H      29.0030000000    26.5700000000    29.4590000000
    8      H      30.0630000000    28.5650000000    28.6370000000
    9      H      29.4120000000    27.9040000000    25.7980000000
   10      H      30.2660000000    29.3020000000    26.3040000000
   11      H      31.2630000000    26.5800000000    29.0790000000
   12      H      30.5720000000    24.9590000000    28.6250000000
   13      H      32.4110000000    25.8010000000    27.0600000000
   14      H      30.7940000000    25.4850000000    26.2210000000
   15      H      32.1700000000    28.1010000000    27.0590000000
   16      H      31.8460000000    27.5350000000    25.4140000000
   17      H      28.5610000000    26.0680000000    27.8300000000
   18      N      28.1100000000    28.8190000000    27.9160000000
   19      H      27.3640000000    28.5970000000    27.2670000000
   20      C      27.7000000000    29.6460000000    28.9410000000
   21      H      26.6660000000    30.0100000000    28.8050000000
   22      O      28.4240000000    29.9890000000    29.8590000000
   23      C      23.9410000000    31.7580000000    24.6000000000
   24      H      23.8000000000    30.7310000000    24.9460000000
   25      H      24.2020000000    32.4250000000    25.4260000000
   26      H      23.0680000000    32.1010000000    24.0390000000
   27      S      25.3330000000    31.8830000000    23.4540000000
   28      C      25.0100000000    33.6130000000    23.0430000000
   29      H      24.7910000000    34.1720000000    23.9560000000
   30      H      25.8570000000    34.0090000000    22.4770000000
   31      H      24.1960000000    33.7990000000    22.3380000000
   32      O      24.9460000000    30.9970000000    22.3120000000
   33      C      32.3840000000    31.1950000000    27.8090000000
   34      H      32.1710000000    30.8730000000    26.7870000000
   35      H      33.1890000000    30.6570000000    28.3170000000
   36      H      31.6050000000    31.4130000000    28.5440000000
   37      S      33.3470000000    32.6840000000    27.4570000000
   38      C      34.3610000000    32.6100000000    28.9500000000
   39      H      33.6250000000    32.6900000000    29.7540000000
   40      H      34.9320000000    31.6840000000    29.0630000000
   41      H      35.0720000000    33.4320000000    29.0680000000
   42      O      32.4770000000    33.8810000000    27.6810000000
   43      C      26.8430000000    25.8400000000    32.0910000000
   44      H      27.1530000000    25.8060000000    31.0440000000
   45      H      27.7230000000    25.6200000000    32.7000000000
   46      H      26.0380000000    25.1180000000    32.2490000000
   47      S      26.0860000000    27.3990000000    32.6020000000
   48      C      27.6970000000    28.1470000000    32.9370000000
   49      H      27.6310000000    29.1970000000    33.2320000000
   50      H      28.1130000000    27.6120000000    33.7940000000
   51      H      28.3640000000    28.0710000000    32.0750000000
   52      O      25.4580000000    27.2220000000    33.9490000000
   53      C      38.2640000000    24.3120000000    30.3470000000
   54      H      38.0600000000    23.6050000000    29.5380000000
   55      H      38.3380000000    25.3440000000    29.9940000000
   56      H      39.2400000000    24.2370000000    30.8330000000
   57      S      37.0220000000    24.2290000000    31.6570000000
   58      C      36.9080000000    22.4470000000    31.9330000000
   59      H      37.9090000000    22.0930000000    32.1930000000
   60      H      36.1990000000    22.2950000000    32.7510000000
   61      H      36.5500000000    22.0050000000    31.0000000000
   62      O      35.8350000000    24.3730000000    30.7570000000
   63      C      32.1790000000    34.1550000000    24.5330000000
   64      H      32.0870000000    34.9420000000    25.2850000000
   65      H      32.1680000000    33.1340000000    24.9250000000
   66      H      33.1360000000    34.2810000000    24.0200000000
   67      S      30.9130000000    34.3960000000    23.2660000000
   68      C      31.5870000000    35.9150000000    22.5570000000
   69      H      30.8840000000    36.0650000000    21.7350000000
   70      H      31.6260000000    36.7800000000    23.2240000000
   71      H      32.5340000000    35.6180000000    22.0990000000
   72      O      29.6170000000    34.8010000000    23.8970000000
   73      C      28.9510000000    31.5650000000    22.9720000000
   74      H      28.5400000000    32.5720000000    22.8580000000
   75      H      28.7880000000    31.3100000000    24.0230000000
   76      H      30.0400000000    31.5550000000    22.8860000000
   77      S      28.2160000000    30.3820000000    21.8210000000
   78      C      29.6170000000    29.2640000000    22.0480000000
   79      H      29.9720000000    29.2960000000    23.0810000000
   80      H      29.4570000000    28.2130000000    21.7930000000
   81      H      30.4240000000    29.6430000000    21.4160000000
   82      O      28.5310000000    30.8980000000    20.4510000000
   83      C      33.4670000000    21.2850000000    32.1900000000
   84      H      34.4110000000    20.7360000000    32.2240000000
   85      H      33.5070000000    22.1880000000    32.8050000000
   86      H      32.6770000000    20.5760000000    32.4550000000
   87      S      32.9830000000    21.7550000000    30.5140000000
   88      C      31.3040000000    22.3220000000    30.8680000000
   89      H      30.6320000000    21.5050000000    31.1440000000
   90      H      31.3050000000    23.1590000000    31.5720000000
   91      H      30.8920000000    22.6200000000    29.9010000000
   92      O      32.7190000000    20.3810000000    29.9810000000
   93      C      28.3220000000    20.2090000000    29.8570000000
   94      H      28.4600000000    20.7800000000    30.7790000000
   95      H      29.0880000000    20.4950000000    29.1310000000
   96      H      27.3130000000    20.3900000000    29.4770000000
   97      S      28.4760000000    18.4300000000    30.1290000000
   98      C      30.2450000000    18.5260000000    30.4850000000
   99      H      30.5170000000    17.4810000000    30.6590000000
  100      H      30.8360000000    18.8870000000    29.6400000000
  101      H      30.5070000000    19.1550000000    31.3390000000
  102      O      28.6040000000    17.9410000000    28.7200000000
  103      C      30.0680000000    35.2520000000    30.0310000000
  104      H      30.8360000000    35.5640000000    29.3190000000
  105      H      29.0620000000    35.2010000000    29.6050000000
  106      H      30.0140000000    35.9700000000    30.8530000000
  107      S      30.6780000000    33.7080000000    30.7450000000
  108      C      28.9770000000    33.1080000000    30.8520000000
  109      H      28.5170000000    33.1570000000    29.8610000000
  110      H      29.0430000000    32.0560000000    31.1380000000
  111      H      28.3500000000    33.7490000000    31.4770000000
  112      O      30.8030000000    34.1160000000    32.1800000000
  113      C      30.2690000000    22.3790000000    34.9130000000
  114      H      30.4810000000    21.8430000000    35.8420000000
  115      H      31.1570000000    22.7500000000    34.3950000000
  116      H      29.5920000000    23.2160000000    35.1010000000
  117      S      29.3530000000    21.2510000000    33.8390000000
  118      C      28.5580000000    20.4030000000    35.2230000000
  119      H      27.7300000000    19.7350000000    34.9740000000
  120      H      29.3370000000    19.8100000000    35.7090000000
  121      H      28.2110000000    21.2050000000    35.8810000000
  122      O      30.3330000000    20.1870000000    33.4550000000
  123      C      24.7790000000    24.3130000000    27.9770000000
  124      H      25.2890000000    25.0450000000    27.3450000000
  125      H      24.2600000000    23.5370000000    27.4080000000
  126      H      24.1170000000    24.7370000000    28.7360000000
  127      S      26.0980000000    23.5920000000    28.9800000000
  128      C      26.9210000000    22.7670000000    27.5990000000
  129      H      27.7560000000    22.1710000000    27.9770000000
  130      H      26.0720000000    22.3400000000    27.0600000000
  131      H      27.2840000000    23.6330000000    27.0390000000
  132      O      25.4580000000    22.4530000000    29.7110000000
  133      C      38.0010000000    26.6700000000    25.1160000000
  134      H      38.7090000000    26.2890000000    25.8570000000
  135      H      37.0340000000    26.5450000000    25.6090000000
  136      H      37.8990000000    26.0970000000    24.1910000000
  137      S      38.1870000000    28.4300000000    24.7480000000
  138      C      39.7630000000    28.2500000000    23.8820000000
  139      H      40.3050000000    29.1960000000    23.9630000000
  140      H      40.4200000000    27.6010000000    24.4680000000
  141      H      39.8080000000    27.8410000000    22.8700000000
  142      O      38.5790000000    29.0120000000    26.0700000000
  143      C      28.7600000000    24.1870000000    24.2220000000
  144      H      29.5320000000    24.9190000000    24.4750000000
  145      H      27.8020000000    24.4820000000    24.6580000000
  146      H      28.9700000000    23.1620000000    24.5370000000
  147      S      28.5720000000    24.5630000000    22.4650000000
  148      C      30.2490000000    23.9950000000    22.1080000000
  149      H      30.2370000000    22.9080000000    22.2170000000
  150      H      30.3340000000    24.3960000000    21.0940000000
  151      H      30.8530000000    24.5590000000    22.8230000000
  152      O      28.7190000000    26.0510000000    22.5460000000
  153      C      32.2150000000    22.4940000000    25.5640000000
  154      H      33.2000000000    22.0290000000    25.4760000000
  155      H      31.4510000000    22.3680000000    24.7930000000
  156      H      32.3900000000    23.5730000000    25.5900000000
  157      S      31.5740000000    22.0100000000    27.1830000000
  158      C      31.3700000000    20.2560000000    26.7960000000
  159      H      30.7390000000    19.8360000000    27.5840000000
  160      H      30.8500000000    20.1610000000    25.8400000000
  161      H      32.3810000000    19.8550000000    26.6930000000
  162      O      30.1720000000    22.5310000000    27.2450000000
  163      C      22.0730000000    36.0110000000    28.2780000000
  164      H      22.5690000000    36.8340000000    27.7570000000
  165      H      21.2550000000    35.5720000000    27.7000000000
  166      H      21.8010000000    36.1900000000    29.3210000000
  167      S      23.2950000000    34.6950000000    28.4740000000
  168      C      24.6260000000    35.6060000000    29.2880000000
  169      H      25.4330000000    34.8700000000    29.3230000000
  170      H      25.0700000000    36.4160000000    28.7020000000
  171      H      24.3990000000    35.9630000000    30.2960000000
  172      O      23.7250000000    34.5980000000    27.0430000000
  173      C      32.8830000000    25.9190000000    32.4110000000
  174      H      33.4550000000    26.8480000000    32.3540000000
  175      H      33.0260000000    25.5250000000    33.4200000000
  176      H      33.3260000000    25.3470000000    31.5910000000
  177      S      31.1760000000    26.3670000000    32.0230000000
  178      C      31.4170000000    28.0560000000    31.4260000000
  179      H      30.4020000000    28.4340000000    31.2790000000
  180      H      31.9180000000    28.5190000000    32.2800000000
  181      H      32.0410000000    28.1080000000    30.5310000000
  182      O      30.5390000000    26.6040000000    33.3570000000
  183      C      33.2710000000    29.0420000000    22.6850000000
  184      H      32.8090000000    29.6110000000    21.8740000000
  185      H      33.6590000000    28.1020000000    22.2850000000
  186      H      32.5460000000    28.6860000000    23.4200000000
  187      S      34.4930000000    30.0170000000    23.5920000000
  188      C      34.6170000000    28.8740000000    24.9860000000
  189      H      35.1550000000    29.4100000000    25.7730000000
  190      H      33.6250000000    28.5890000000    25.3450000000
  191      H      35.2340000000    28.0110000000    24.7260000000
  192      O      33.6710000000    31.0670000000    24.2720000000
  193      C      24.6930000000    26.3620000000    24.3950000000
  194      H      25.6220000000    25.7880000000    24.4530000000
  195      H      23.9020000000    25.8950000000    24.9870000000
  196      H      24.3930000000    26.5790000000    23.3670000000
  197      S      25.1370000000    27.8840000000    25.2620000000
  198      C      26.6750000000    28.1980000000    24.3670000000
  199      H      27.0180000000    29.2330000000    24.4380000000
  200      H      27.3890000000    27.4590000000    24.7390000000
  201      H      26.5540000000    28.0040000000    23.2980000000
  202      O      25.7280000000    27.3760000000    26.5390000000
  203      C      35.9330000000    30.1570000000    33.5660000000
  204      H      36.5030000000    29.2620000000    33.8260000000
  205      H      36.4330000000    30.8570000000    32.8910000000
  206      H      35.5660000000    30.5900000000    34.5000000000
  207      S      34.3530000000    29.5280000000    32.9530000000
  208      C      33.6340000000    31.1780000000    32.7990000000
  209      H      33.5690000000    31.5150000000    33.8370000000
  210      H      34.2720000000    31.7050000000    32.0850000000
  211      H      32.6270000000    31.0430000000    32.3970000000
  212      O      33.6740000000    28.9120000000    34.1360000000
  213      C      33.9440000000    24.9460000000    23.6950000000
  214      H      34.4470000000    25.2320000000    24.6230000000
  215      H      33.0460000000    25.5600000000    23.5950000000
  216      H      33.7370000000    23.8730000000    23.7200000000
  217      S      35.1760000000    25.2040000000    22.3980000000
  218      C      36.3120000000    23.9150000000    22.9590000000
  219      H      37.2460000000    23.8820000000    22.3930000000
  220      H      36.5210000000    24.0940000000    24.0170000000
  221      H      35.8400000000    22.9380000000    22.8290000000
  222      O      35.7330000000    26.5450000000    22.7620000000
  223      C      23.5330000000    32.2800000000    32.7180000000
  224      H      22.5930000000    32.6700000000    32.3200000000
  225      H      23.4590000000    31.1900000000    32.7520000000
  226      H      23.8120000000    32.7230000000    33.6780000000
  227      S      24.7150000000    32.6690000000    31.4070000000
  228      C      26.0790000000    31.5990000000    31.9170000000
  229      H      26.9180000000    31.6370000000    31.2170000000
  230      H      26.4890000000    31.9230000000    32.8780000000
  231      H      25.7030000000    30.5870000000    32.0850000000
  232      O      25.2650000000    34.0310000000    31.6970000000
  233      C      37.5230000000    23.3930000000    26.8130000000
  234      H      37.4250000000    22.9120000000    25.8370000000
  235      H      37.9910000000    24.3740000000    26.7000000000
  236      H      38.1850000000    22.7800000000    27.4300000000
  237      S      35.9130000000    23.5530000000    27.6170000000
  238      C      35.4600000000    21.8300000000    27.9240000000
  239      H      34.3790000000    21.7700000000    28.0740000000
  240      H      35.9100000000    21.2700000000    27.1000000000
  241      H      35.8880000000    21.3770000000    28.8210000000
  242      O      34.8760000000    24.0490000000    26.6580000000
  243      C      23.4660000000    31.2930000000    28.5830000000
  244      H      24.4640000000    31.7100000000    28.4250000000
  245      H      22.9980000000    31.4670000000    27.6100000000
  246      H      23.0120000000    31.7660000000    29.4570000000
  247      S      23.9250000000    29.5640000000    28.8370000000
  248      C      22.2290000000    28.9560000000    28.6980000000
  249      H      21.4560000000    29.4630000000    29.2800000000
  250      H      22.1100000000    29.0730000000    27.6180000000
  251      H      22.1680000000    27.8940000000    28.9490000000
  252      O      24.3080000000    29.3510000000    30.2690000000
  253      C      26.8780000000    34.2830000000    26.2080000000
  254      H      26.8340000000    33.9440000000    25.1700000000
  255      H      25.8490000000    34.3630000000    26.5670000000
  256      H      27.3240000000    35.2620000000    26.4010000000
  257      S      27.6680000000    32.9360000000    27.1190000000
  258      C      29.3700000000    33.4930000000    26.8760000000
  259      H      29.7380000000    33.5950000000    25.8520000000
  260      H      29.3430000000    34.4810000000    27.3410000000
  261      H      30.0330000000    32.7490000000    27.3240000000
  262      O      27.5510000000    31.7570000000    26.2050000000
  263      C      30.3390000000    33.0320000000    35.3650000000
  264      H      31.4260000000    32.9140000000    35.3810000000
  265      H      30.0130000000    33.2850000000    34.3530000000
  266      H      29.8980000000    33.6990000000    36.1100000000
  267      S      29.7380000000    31.3780000000    35.7780000000
  268      C      30.5320000000    30.4930000000    34.4180000000
  269      H      30.1180000000    29.4990000000    34.2330000000
  270      H      30.6120000000    31.0950000000    33.5100000000
  271      H      31.5610000000    30.3900000000    34.7730000000
  272      O      28.2810000000    31.4600000000    35.4450000000
  273      C      35.8700000000    27.0330000000    28.4270000000
  274      H      36.7260000000    26.6150000000    27.8910000000
  275      H      35.3390000000    26.2310000000    28.9470000000
  276      H      35.0920000000    27.3440000000    27.7250000000
  277      S      36.2140000000    28.5160000000    29.4000000000
  278      C      36.9830000000    27.6390000000    30.7800000000
  279      H      37.9370000000    27.2430000000    30.4210000000
  280      H      37.2410000000    28.4050000000    31.5160000000
  281      H      36.3330000000    26.9060000000    31.2630000000
  282      O      34.8470000000    28.9030000000    29.8700000000
 ----------------------------------------------------------------
 Nuclear Repulsion Energy =       45393.31288103 hartrees
 There are      581 alpha and      581 beta electrons
 Requested basis set is 6-31+G(d)
 There are 929 shells and 2589 basis functions

 Total QAlloc Memory Limit  16000 MB
 Mega-Array Size      7821 MB
 MEM_STATIC part      8000 MB
 A cutoff of  1.0D-14 yielded 167586 shell pairs
 There are   1453765 function pairs
 Smallest overlap matrix eigenvalue = 7.24E-07
 Linear dependence detected in AO basis
 Tighter screening thresholds may be required for diffuse basis sets
 Use S2THRESH > 14 and THRESH = 14 in case of SCF convergence issues
 Number of orthogonalized atomic orbitals = 2588
 Maximum deviation from orthogonality = 1.679E-10

 Scale SEOQF with 1.000000e-03/1.000000e-03/1.000000e-03

 Standard Electronic Orientation quadrupole field applied
 Nucleus-field energy     =     0.0000000427 hartrees
Attempting to make child job directory: /local/scratch/users/ymao/r7.00_frame_0079_almo_B3LYP_dp.in20210311133740//Frg1/
Attempting to make child job directory: /local/scratch/users/ymao/r7.00_frame_0079_almo_B3LYP_dp.in20210311133740//Frg2/
Creating input file /local/scratch/users/ymao/r7.00_frame_0079_almo_B3LYP_dp.in20210311133740/Frg1.input
using default PutDataFrgm: nothing
calling putenv with: QCSCRATCH=/local/scratch/users/ymao/r7.00_frame_0079_almo_B3LYP_dp.in20210311133740/ 
Spawning Job For Fragment 0
Done Job For Fragment 0
calling putenv with: QCSCRATCH=/local/scratch/users/ymao 
calling putenv with: QCTHREADS=8 
Creating input file /local/scratch/users/ymao/r7.00_frame_0079_almo_B3LYP_dp.in20210311133740/Frg2.input
using default PutDataFrgm: nothing
calling putenv with: QCSCRATCH=/local/scratch/users/ymao/r7.00_frame_0079_almo_B3LYP_dp.in20210311133740/ 
Spawning Job For Fragment 1
Done Job For Fragment 1
calling putenv with: QCSCRATCH=/local/scratch/users/ymao 
calling putenv with: QCTHREADS=8 
 Time for running child jobs:  CPU 0.82 s  wall 21602.30 s

 -----------------------------------------------------------------------
  General SCF calculation program by
  Eric Jon Sundstrom, Paul Horn, Yuezhi Mao, Dmitri Zuev, Alec White,
  David Stuck, Shaama M.S., Shane Yost, Joonho Lee, David Small,
  Daniel Levine, Susi Lehtola, Hugh Burton, Evgeny Epifanovsky,
  Bang C. Huynh
 -----------------------------------------------------------------------
Performing Restricted Closed Shell SCFMI
Doing General SCFMI
 Exchange:     0.2000 Hartree-Fock + 0.0800 Slater + 0.7200 B88
 Correlation:  0.1900 VWN1RPA + 0.8100 LYP
 Using Euler-Maclaurin-Lebedev (75,302) quadrature formula
performing fock build before subrot guess so that all methods have access
Printing subrot_rss_gen Method Specification:
Occupied Subspace Method is 0
Virtual Subspace Method is 0
Energy prior to optimization (guess energy) = -14787.496035171163
Begin Timing: Total SCF Calculation
begin iterations for algorithm: DIIS         
the SCF tolerance is set to 1.00e-08
    1  -14787.4960351712      3.96e-05     00000 
    2  -14787.4980540809      5.36e-05     00000 
    3  -14787.5046477347      1.86e-05     00000 
    4  -14787.5054033966      5.93e-06     00000 
    5  -14787.5054995238      2.75e-06     00000 
    6  -14787.5055174315      1.66e-06     00000 
    7  -14787.5055223020      1.25e-06     00000 
    8  -14787.5055256467      6.08e-07     00000 
    9  -14787.5055264131      3.09e-07     00000 
   10  -14787.5055265896      1.96e-07     00000 
   11  -14787.5055266609      1.30e-07     00000 
   12  -14787.5055266943      7.53e-08     00000 
   13  -14787.5055267064      3.64e-08     00000 
   14  -14787.5055267092      2.03e-08     00000 
   15  -14787.5055267097      1.45e-08     00000 
   16  -14787.5055267101      7.77e-09     00000 Convergence criterion met
write pseudocanon occs and virts to disk
write pseudocanon orbital energies to disk
Timing for Total SCF: 45348.00s (wall), 359658.32s (cpu)
SCFMI Energy  -14787.5055267101
<S^2>            0.00000
 Total energy in the final basis set =   -14787.5055267101
    ==================================================
        The end of Object-Oriented SCFman: SCFMI      
    ==================================================
 
 --------------------------------------------------------------
 
                    Orbital Energies (a.u.)
 --------------------------------------------------------------
 
 Alpha MOs
 -- Occupied --
-89.0450 -89.0335 -89.0333 -89.0231 -89.0224 -89.0158 -89.0122 -89.0100
-89.0079 -89.0043 -89.0008 -88.9975 -88.9935 -88.9877 -88.9871 -88.9867
-88.9800 -88.9794 -88.9791 -88.9778 -88.9753 -88.9743 -88.9707 -88.9648
-88.9600 -88.9503 -19.1599 -19.1506 -19.1426 -19.1373 -19.1354 -19.1339
-19.1306 -19.1195 -19.1191 -19.1191 -19.1146 -19.1128 -19.1124 -19.1111
-19.1069 -19.1050 -19.1034 -19.0990 -19.0945 -19.0929 -19.0921 -19.0872
-19.0869 -19.0842 -19.0759 -19.0734 -19.0718 -14.3431 -10.2724 -10.2693
-10.2641 -10.2629 -10.2581 -10.2553 -10.2444 -10.2429 -10.2405 -10.2399
-10.2348 -10.2331 -10.2298 -10.2278 -10.2264 -10.2250 -10.2245 -10.2243
-10.2226 -10.2218 -10.2211 -10.2188 -10.2185 -10.2182 -10.2159 -10.2157
-10.2104 -10.2088 -10.2070 -10.2069 -10.2042 -10.2038 -10.2027 -10.2025
-10.2024 -10.2008 -10.2006 -10.1943 -10.1942 -10.1932 -10.1932 -10.1929
-10.1903 -10.1889 -10.1885 -10.1851 -10.1847 -10.1829 -10.1828 -10.1806
-10.1794 -10.1794 -10.1791 -10.1787 -10.1768 -10.1746 -10.1718 -10.1701
-10.1625  -8.0913  -8.0796  -8.0793  -8.0684  -8.0675  -8.0629  -8.0579
 -8.0559  -8.0543  -8.0496  -8.0471  -8.0439  -8.0403  -8.0335  -8.0332
 -8.0328  -8.0263  -8.0257  -8.0247  -8.0245  -8.0218  -8.0200  -8.0171
 -8.0100  -8.0064  -7.9959  -6.0554  -6.0545  -6.0488  -6.0442  -6.0438
 -6.0430  -6.0424  -6.0365  -6.0362  -6.0326  -6.0319  -6.0316  -6.0307
 -6.0269  -6.0257  -6.0257  -6.0250  -6.0224  -6.0209  -6.0206  -6.0202
 -6.0190  -6.0186  -6.0172  -6.0154  -6.0139  -6.0134  -6.0128  -6.0118
 -6.0114  -6.0100  -6.0083  -6.0072  -6.0070  -6.0046  -6.0046  -6.0033
 -6.0013  -5.9980  -5.9976  -5.9975  -5.9972  -5.9966  -5.9964  -5.9961
 -5.9908  -5.9905  -5.9905  -5.9901  -5.9898  -5.9895  -5.9892  -5.9888
 -5.9885  -5.9877  -5.9875  -5.9859  -5.9848  -5.9844  -5.9837  -5.9834
 -5.9832  -5.9823  -5.9820  -5.9815  -5.9802  -5.9796  -5.9772  -5.9744
 -5.9742  -5.9731  -5.9708  -5.9695  -5.9676  -5.9638  -5.9602  -5.9591
 -5.9532  -1.0649  -1.0641  -1.0589  -1.0460  -1.0457  -1.0437  -1.0389
 -1.0345  -1.0326  -1.0297  -1.0269  -1.0263  -1.0255  -1.0239  -1.0155
 -1.0106  -1.0099  -1.0089  -1.0044  -1.0032  -1.0028  -0.9984  -0.9981
 -0.9973  -0.9850  -0.9810  -0.9768  -0.9069  -0.8451  -0.8383  -0.8363
 -0.8273  -0.8238  -0.8197  -0.8184  -0.8158  -0.8104  -0.8102  -0.8029
 -0.8010  -0.7987  -0.7981  -0.7947  -0.7930  -0.7892  -0.7881  -0.7879
 -0.7817  -0.7802  -0.7768  -0.7757  -0.7732  -0.7702  -0.7680  -0.7654
 -0.7648  -0.7620  -0.7579  -0.7510  -0.7505  -0.7479  -0.7459  -0.7411
 -0.7396  -0.7370  -0.7326  -0.7310  -0.7284  -0.7253  -0.7245  -0.7215
 -0.7193  -0.7190  -0.7125  -0.7114  -0.7045  -0.7004  -0.6977  -0.6957
 -0.6923  -0.6918  -0.6849  -0.6780  -0.6581  -0.6553  -0.6471  -0.6398
 -0.6354  -0.6327  -0.6284  -0.6230  -0.6214  -0.6200  -0.6199  -0.6147
 -0.6121  -0.6081  -0.6071  -0.6008  -0.5997  -0.5994  -0.5943  -0.5922
 -0.5896  -0.5890  -0.5864  -0.5863  -0.5819  -0.5800  -0.5715  -0.5712
 -0.5663  -0.5640  -0.5350  -0.5242  -0.5176  -0.5170  -0.5155  -0.5139
 -0.5103  -0.5069  -0.5041  -0.5028  -0.4998  -0.4977  -0.4971  -0.4953
 -0.4944  -0.4939  -0.4919  -0.4898  -0.4879  -0.4871  -0.4864  -0.4855
 -0.4854  -0.4850  -0.4830  -0.4821  -0.4815  -0.4798  -0.4787  -0.4776
 -0.4771  -0.4736  -0.4731  -0.4727  -0.4725  -0.4717  -0.4711  -0.4710
 -0.4694  -0.4693  -0.4675  -0.4673  -0.4650  -0.4645  -0.4644  -0.4630
 -0.4622  -0.4615  -0.4609  -0.4600  -0.4592  -0.4576  -0.4573  -0.4566
 -0.4562  -0.4561  -0.4556  -0.4545  -0.4538  -0.4535  -0.4529  -0.4523
 -0.4518  -0.4516  -0.4508  -0.4507  -0.4496  -0.4487  -0.4483  -0.4479
 -0.4474  -0.4467  -0.4464  -0.4461  -0.4453  -0.4451  -0.4443  -0.4432
 -0.4431  -0.4427  -0.4413  -0.4409  -0.4397  -0.4390  -0.4386  -0.4376
 -0.4368  -0.4362  -0.4343  -0.4341  -0.4323  -0.4315  -0.4303  -0.4298
 -0.4294  -0.4288  -0.4286  -0.4285  -0.4284  -0.4275  -0.4272  -0.4260
 -0.4252  -0.4245  -0.4232  -0.4223  -0.4214  -0.4188  -0.4183  -0.4181
 -0.4154  -0.4143  -0.4140  -0.4124  -0.4117  -0.4107  -0.4102  -0.4095
 -0.4084  -0.4081  -0.4074  -0.4069  -0.4063  -0.4055  -0.4043  -0.4034
 -0.4020  -0.4018  -0.4013  -0.4008  -0.4006  -0.3999  -0.3992  -0.3986
 -0.3972  -0.3960  -0.3950  -0.3936  -0.3930  -0.3927  -0.3922  -0.3917
 -0.3909  -0.3898  -0.3894  -0.3880  -0.3874  -0.3867  -0.3863  -0.3850
 -0.3841  -0.3839  -0.3836  -0.3828  -0.3816  -0.3814  -0.3808  -0.3801
 -0.3789  -0.3765  -0.3756  -0.3752  -0.3730  -0.3714  -0.3710  -0.3700
 -0.3691  -0.3678  -0.3667  -0.3660  -0.3656  -0.3650  -0.3637  -0.3627
 -0.3596  -0.3593  -0.3579  -0.3528  -0.3523  -0.3509  -0.3505  -0.3474
 -0.3450  -0.3446  -0.3439  -0.3429  -0.3421  -0.3389  -0.3376  -0.3370
 -0.3293  -0.3261  -0.3235  -0.3221  -0.3210  -0.3154  -0.3134  -0.3125
 -0.3049  -0.3043  -0.2994  -0.2970  -0.2922  -0.2899  -0.2840  -0.2811
 -0.2800  -0.2791  -0.2782  -0.2756  -0.2712  -0.2699  -0.2691  -0.2653
 -0.2648  -0.2643  -0.2633  -0.2630  -0.2614  -0.2612  -0.2552  -0.2543
 -0.2528  -0.2519  -0.2515  -0.2506  -0.2496  -0.2477  -0.2446  -0.2437
 -0.2425  -0.2402  -0.2399  -0.2395  -0.2382  -0.2358  -0.2340  -0.2315
 -0.2313  -0.2293  -0.2242  -0.2223  -0.2216  -0.2199  -0.2189  -0.2179
 -0.2129  -0.2110  -0.2031  -0.1981  -0.1919
 -- Virtual --
 -0.0586  -0.0436  -0.0425  -0.0379  -0.0331  -0.0303  -0.0265  -0.0230
 -0.0208  -0.0198  -0.0184  -0.0175  -0.0140  -0.0127  -0.0110  -0.0097
 -0.0088  -0.0083  -0.0067  -0.0065  -0.0054  -0.0049  -0.0035  -0.0025
 -0.0021   0.0001   0.0005   0.0014   0.0026   0.0031   0.0037   0.0049
  0.0054   0.0071   0.0081   0.0087   0.0099   0.0108   0.0111   0.0119
  0.0132   0.0136   0.0144   0.0159   0.0161   0.0163   0.0185   0.0190
  0.0197   0.0201   0.0210   0.0211   0.0220   0.0224   0.0228   0.0232
  0.0242   0.0246   0.0253   0.0254   0.0264   0.0274   0.0282   0.0285
  0.0295   0.0297   0.0303   0.0309   0.0315   0.0326   0.0337   0.0340
  0.0351   0.0356   0.0363   0.0372   0.0379   0.0389   0.0392   0.0396
  0.0410   0.0416   0.0422   0.0428   0.0436   0.0437   0.0441   0.0445
  0.0450   0.0460   0.0463   0.0466   0.0474   0.0478   0.0483   0.0496
  0.0501   0.0507   0.0520   0.0524   0.0526   0.0538   0.0543   0.0554
  0.0557   0.0562   0.0565   0.0570   0.0578   0.0588   0.0593   0.0604
  0.0606   0.0616   0.0623   0.0632   0.0635   0.0642   0.0646   0.0647
  0.0657   0.0660   0.0666   0.0672   0.0677   0.0685   0.0696   0.0701
  0.0704   0.0713   0.0718   0.0729   0.0738   0.0741   0.0747   0.0754
  0.0763   0.0769   0.0775   0.0785   0.0791   0.0802   0.0804   0.0806
  0.0811   0.0821   0.0828   0.0832   0.0840   0.0850   0.0866   0.0873
  0.0875   0.0876   0.0881   0.0887   0.0891   0.0900   0.0913   0.0915
  0.0919   0.0925   0.0931   0.0941   0.0945   0.0950   0.0959   0.0966
  0.0979   0.0982   0.0990   0.0999   0.1009   0.1014   0.1025   0.1030
  0.1033   0.1044   0.1051   0.1059   0.1066   0.1071   0.1075   0.1077
  0.1085   0.1093   0.1101   0.1105   0.1113   0.1118   0.1126   0.1128
  0.1133   0.1136   0.1143   0.1153   0.1160   0.1161   0.1168   0.1184
  0.1188   0.1194   0.1198   0.1203   0.1213   0.1215   0.1221   0.1231
  0.1232   0.1243   0.1247   0.1259   0.1266   0.1270   0.1275   0.1288
  0.1292   0.1301   0.1305   0.1309   0.1315   0.1321   0.1326   0.1332
  0.1345   0.1349   0.1350   0.1359   0.1366   0.1372   0.1380   0.1386
  0.1389   0.1395   0.1401   0.1409   0.1419   0.1427   0.1437   0.1445
  0.1453   0.1459   0.1463   0.1473   0.1475   0.1479   0.1485   0.1489
  0.1492   0.1496   0.1501   0.1511   0.1518   0.1521   0.1528   0.1536
  0.1550   0.1554   0.1559   0.1561   0.1566   0.1572   0.1576   0.1584
  0.1589   0.1605   0.1607   0.1614   0.1619   0.1626   0.1633   0.1645
  0.1645   0.1657   0.1658   0.1667   0.1668   0.1678   0.1683   0.1687
  0.1695   0.1700   0.1703   0.1714   0.1718   0.1721   0.1729   0.1732
  0.1742   0.1746   0.1749   0.1754   0.1764   0.1768   0.1773   0.1784
  0.1789   0.1793   0.1801   0.1808   0.1812   0.1819   0.1826   0.1838
  0.1849   0.1855   0.1857   0.1863   0.1870   0.1879   0.1883   0.1885
  0.1896   0.1908   0.1909   0.1918   0.1920   0.1925   0.1937   0.1940
  0.1944   0.1954   0.1961   0.1965   0.1973   0.1978   0.1982   0.1989
  0.1992   0.2005   0.2013   0.2015   0.2020   0.2031   0.2036   0.2039
  0.2045   0.2055   0.2062   0.2066   0.2068   0.2072   0.2083   0.2089
  0.2091   0.2103   0.2108   0.2111   0.2125   0.2135   0.2146   0.2152
  0.2153   0.2158   0.2161   0.2164   0.2173   0.2176   0.2178   0.2190
  0.2205   0.2208   0.2210   0.2220   0.2228   0.2239   0.2242   0.2254
  0.2257   0.2264   0.2270   0.2275   0.2281   0.2289   0.2296   0.2307
  0.2309   0.2313   0.2319   0.2324   0.2330   0.2332   0.2338   0.2353
  0.2354   0.2363   0.2365   0.2373   0.2387   0.2389   0.2397   0.2404
  0.2408   0.2416   0.2421   0.2424   0.2435   0.2437   0.2451   0.2459
  0.2465   0.2474   0.2481   0.2491   0.2499   0.2501   0.2513   0.2515
  0.2519   0.2528   0.2534   0.2541   0.2552   0.2557   0.2560   0.2564
  0.2567   0.2572   0.2582   0.2589   0.2598   0.2605   0.2608   0.2618
  0.2629   0.2638   0.2644   0.2648   0.2654   0.2661   0.2669   0.2670
  0.2680   0.2698   0.2701   0.2707   0.2714   0.2724   0.2731   0.2740
  0.2746   0.2751   0.2757   0.2767   0.2773   0.2780   0.2786   0.2787
  0.2804   0.2809   0.2815   0.2822   0.2839   0.2850   0.2858   0.2865
  0.2869   0.2877   0.2883   0.2889   0.2902   0.2908   0.2918   0.2922
  0.2929   0.2941   0.2956   0.2956   0.2967   0.2974   0.2976   0.2983
  0.2990   0.2997   0.3017   0.3025   0.3034   0.3036   0.3045   0.3051
  0.3058   0.3073   0.3083   0.3094   0.3103   0.3116   0.3124   0.3125
  0.3135   0.3148   0.3161   0.3166   0.3169   0.3178   0.3189   0.3192
  0.3197   0.3218   0.3226   0.3234   0.3244   0.3252   0.3255   0.3258
  0.3272   0.3278   0.3290   0.3293   0.3303   0.3316   0.3324   0.3330
  0.3342   0.3347   0.3351   0.3366   0.3376   0.3381   0.3389   0.3394
  0.3399   0.3403   0.3415   0.3421   0.3431   0.3447   0.3453   0.3461
  0.3463   0.3476   0.3482   0.3496   0.3510   0.3523   0.3532   0.3536
  0.3549   0.3562   0.3567   0.3574   0.3578   0.3589   0.3601   0.3604
  0.3615   0.3620   0.3635   0.3642   0.3652   0.3664   0.3666   0.3671
  0.3677   0.3688   0.3698   0.3719   0.3722   0.3735   0.3743   0.3756
  0.3760   0.3769   0.3773   0.3781   0.3794   0.3797   0.3806   0.3813
  0.3829   0.3840   0.3850   0.3856   0.3879   0.3885   0.3894   0.3904
  0.3909   0.3920   0.3933   0.3938   0.3945   0.3954   0.3967   0.3968
  0.3972   0.3993   0.4001   0.4009   0.4017   0.4019   0.4036   0.4044
  0.4061   0.4062   0.4073   0.4084   0.4088   0.4096   0.4104   0.4109
  0.4116   0.4131   0.4144   0.4151   0.4164   0.4171   0.4176   0.4188
  0.4199   0.4211   0.4216   0.4228   0.4238   0.4257   0.4261   0.4268
  0.4277   0.4287   0.4301   0.4312   0.4325   0.4339   0.4348   0.4356
  0.4367   0.4384   0.4388   0.4403   0.4405   0.4412   0.4420   0.4438
  0.4455   0.4463   0.4473   0.4492   0.4494   0.4504   0.4511   0.4517
  0.4522   0.4550   0.4553   0.4567   0.4580   0.4583   0.4602   0.4605
  0.4614   0.4621   0.4634   0.4656   0.4662   0.4671   0.4684   0.4703
  0.4711   0.4719   0.4734   0.4754   0.4765   0.4776   0.4785   0.4806
  0.4822   0.4827   0.4844   0.4863   0.4876   0.4882   0.4888   0.4897
  0.4911   0.4915   0.4945   0.4974   0.4980   0.4992   0.5001   0.5019
  0.5039   0.5067   0.5082   0.5094   0.5098   0.5108   0.5124   0.5132
  0.5144   0.5148   0.5180   0.5187   0.5204   0.5214   0.5228   0.5240
  0.5256   0.5260   0.5275   0.5295   0.5305   0.5336   0.5344   0.5376
  0.5386   0.5403   0.5423   0.5441   0.5460   0.5469   0.5490   0.5503
  0.5516   0.5525   0.5543   0.5591   0.5600   0.5617   0.5628   0.5653
  0.5662   0.5672   0.5686   0.5699   0.5738   0.5759   0.5777   0.5779
  0.5784   0.5808   0.5838   0.5844   0.5846   0.5876   0.5886   0.5895
  0.5932   0.5940   0.5951   0.5977   0.5989   0.5990   0.6023   0.6029
  0.6040   0.6069   0.6070   0.6094   0.6098   0.6120   0.6136   0.6141
  0.6154   0.6185   0.6191   0.6202   0.6221   0.6230   0.6237   0.6256
  0.6263   0.6268   0.6295   0.6307   0.6313   0.6330   0.6342   0.6352
  0.6364   0.6375   0.6385   0.6396   0.6410   0.6424   0.6442   0.6454
  0.6464   0.6484   0.6487   0.6500   0.6506   0.6521   0.6532   0.6548
  0.6554   0.6571   0.6584   0.6603   0.6608   0.6615   0.6626   0.6631
  0.6654   0.6661   0.6667   0.6678   0.6701   0.6712   0.6722   0.6728
  0.6740   0.6746   0.6765   0.6772   0.6783   0.6790   0.6804   0.6812
  0.6823   0.6830   0.6853   0.6863   0.6873   0.6884   0.6894   0.6901
  0.6910   0.6924   0.6937   0.6953   0.6963   0.6976   0.6981   0.6988
  0.7001   0.7019   0.7023   0.7041   0.7052   0.7062   0.7073   0.7077
  0.7096   0.7103   0.7118   0.7125   0.7152   0.7157   0.7167   0.7176
  0.7195   0.7214   0.7217   0.7222   0.7236   0.7244   0.7268   0.7269
  0.7281   0.7296   0.7310   0.7325   0.7341   0.7351   0.7363   0.7375
  0.7387   0.7401   0.7414   0.7422   0.7445   0.7453   0.7470   0.7475
  0.7485   0.7516   0.7526   0.7530   0.7547   0.7566   0.7575   0.7584
  0.7598   0.7610   0.7620   0.7630   0.7639   0.7658   0.7690   0.7709
  0.7728   0.7732   0.7749   0.7762   0.7789   0.7800   0.7821   0.7851
  0.7861   0.7876   0.7885   0.7897   0.7914   0.7920   0.7935   0.7969
  0.7983   0.8001   0.8021   0.8028   0.8039   0.8048   0.8068   0.8074
  0.8097   0.8103   0.8116   0.8122   0.8148   0.8163   0.8181   0.8204
  0.8227   0.8248   0.8253   0.8255   0.8277   0.8283   0.8309   0.8323
  0.8331   0.8336   0.8350   0.8380   0.8392   0.8412   0.8414   0.8450
  0.8457   0.8476   0.8489   0.8495   0.8507   0.8520   0.8529   0.8540
  0.8570   0.8577   0.8586   0.8598   0.8605   0.8626   0.8637   0.8649
  0.8663   0.8676   0.8688   0.8692   0.8700   0.8719   0.8733   0.8745
  0.8765   0.8770   0.8781   0.8794   0.8805   0.8813   0.8830   0.8836
  0.8855   0.8865   0.8872   0.8884   0.8901   0.8921   0.8931   0.8953
  0.8961   0.8966   0.8986   0.9005   0.9013   0.9029   0.9039   0.9057
  0.9068   0.9077   0.9088   0.9096   0.9114   0.9124   0.9128   0.9138
  0.9154   0.9161   0.9176   0.9183   0.9203   0.9213   0.9228   0.9232
  0.9239   0.9256   0.9269   0.9285   0.9289   0.9305   0.9320   0.9328
  0.9346   0.9369   0.9374   0.9383   0.9406   0.9421   0.9428   0.9450
  0.9453   0.9472   0.9477   0.9486   0.9498   0.9521   0.9531   0.9543
  0.9556   0.9569   0.9575   0.9590   0.9600   0.9608   0.9616   0.9634
  0.9637   0.9639   0.9670   0.9678   0.9692   0.9693   0.9704   0.9714
  0.9741   0.9749   0.9755   0.9762   0.9780   0.9785   0.9795   0.9817
  0.9827   0.9840   0.9848   0.9856   0.9860   0.9870   0.9886   0.9901
  0.9907   0.9921   0.9926   0.9941   0.9952   0.9959   0.9972   0.9977
  0.9998   1.0007   1.0016   1.0019   1.0040   1.0046   1.0050   1.0062
  1.0063   1.0076   1.0106   1.0110   1.0112   1.0128   1.0137   1.0142
  1.0165   1.0177   1.0183   1.0200   1.0208   1.0219   1.0241   1.0257
  1.0263   1.0275   1.0288   1.0304   1.0313   1.0322   1.0350   1.0354
  1.0363   1.0375   1.0389   1.0403   1.0408   1.0413   1.0438   1.0446
  1.0462   1.0473   1.0491   1.0508   1.0518   1.0523   1.0528   1.0538
  1.0550   1.0570   1.0572   1.0593   1.0607   1.0614   1.0624   1.0645
  1.0654   1.0680   1.0687   1.0699   1.0731   1.0739   1.0745   1.0756
  1.0769   1.0780   1.0795   1.0809   1.0829   1.0841   1.0850   1.0872
  1.0884   1.0887   1.0900   1.0933   1.0935   1.0958   1.0973   1.0979
  1.0993   1.1008   1.1022   1.1035   1.1045   1.1051   1.1074   1.1080
  1.1096   1.1115   1.1129   1.1136   1.1150   1.1162   1.1172   1.1189
  1.1207   1.1210   1.1230   1.1253   1.1265   1.1267   1.1279   1.1285
  1.1300   1.1311   1.1340   1.1357   1.1366   1.1378   1.1411   1.1418
  1.1436   1.1446   1.1450   1.1457   1.1463   1.1480   1.1495   1.1514
  1.1521   1.1540   1.1549   1.1560   1.1585   1.1596   1.1608   1.1617
  1.1627   1.1637   1.1641   1.1661   1.1671   1.1683   1.1691   1.1718
  1.1722   1.1738   1.1741   1.1757   1.1769   1.1783   1.1799   1.1808
  1.1816   1.1830   1.1854   1.1859   1.1867   1.1877   1.1905   1.1933
  1.1937   1.1953   1.1986   1.2000   1.2015   1.2028   1.2048   1.2068
  1.2081   1.2091   1.2101   1.2112   1.2136   1.2138   1.2163   1.2177
  1.2190   1.2217   1.2231   1.2250   1.2269   1.2286   1.2292   1.2302
  1.2334   1.2347   1.2364   1.2384   1.2394   1.2429   1.2459   1.2472
  1.2507   1.2536   1.2548   1.2563   1.2585   1.2617   1.2641   1.2655
  1.2696   1.2728   1.2740   1.2752   1.2762   1.2788   1.2803   1.2838
  1.2872   1.2882   1.2935   1.2955   1.2960   1.3007   1.3028   1.3075
  1.3100   1.3109   1.3143   1.3175   1.3188   1.3209   1.3228   1.3255
  1.3277   1.3307   1.3331   1.3345   1.3372   1.3394   1.3412   1.3423
  1.3452   1.3484   1.3495   1.3511   1.3527   1.3546   1.3547   1.3577
  1.3589   1.3618   1.3645   1.3658   1.3661   1.3678   1.3696   1.3716
  1.3737   1.3751   1.3767   1.3781   1.3796   1.3797   1.3832   1.3837
  1.3840   1.3869   1.3885   1.3899   1.3937   1.3947   1.3958   1.3967
  1.3984   1.3998   1.4004   1.4025   1.4029   1.4044   1.4048   1.4076
  1.4088   1.4106   1.4112   1.4152   1.4156   1.4167   1.4170   1.4205
  1.4213   1.4235   1.4249   1.4263   1.4278   1.4301   1.4307   1.4313
  1.4326   1.4337   1.4343   1.4377   1.4392   1.4409   1.4416   1.4424
  1.4454   1.4461   1.4476   1.4500   1.4515   1.4533   1.4540   1.4555
  1.4566   1.4578   1.4610   1.4615   1.4626   1.4635   1.4655   1.4671
  1.4687   1.4702   1.4726   1.4739   1.4751   1.4757   1.4786   1.4804
  1.4838   1.4861   1.4888   1.4906   1.4939   1.4949   1.4953   1.4978
  1.5012   1.5014   1.5049   1.5055   1.5082   1.5099   1.5109   1.5132
  1.5146   1.5169   1.5183   1.5201   1.5222   1.5259   1.5271   1.5291
  1.5317   1.5333   1.5341   1.5370   1.5401   1.5430   1.5439   1.5487
  1.5509   1.5526   1.5566   1.5579   1.5614   1.5635   1.5652   1.5693
  1.5706   1.5794   1.5805   1.5815   1.5885   1.5899   1.5922   1.5951
  1.5964   1.6030   1.6052   1.6065   1.6097   1.6157   1.6180   1.6255
  1.6283   1.6331   1.6335   1.6363   1.6383   1.6427   1.6445   1.6481
  1.6535   1.6557   1.6582   1.6606   1.6607   1.6641   1.6668   1.6693
  1.6723   1.6756   1.6775   1.6794   1.6815   1.6841   1.6851   1.6866
  1.6886   1.6900   1.6908   1.6937   1.6950   1.6965   1.6988   1.6995
  1.7018   1.7036   1.7043   1.7052   1.7065   1.7077   1.7095   1.7106
  1.7111   1.7128   1.7149   1.7167   1.7174   1.7203   1.7210   1.7220
  1.7230   1.7239   1.7263   1.7266   1.7282   1.7289   1.7311   1.7314
  1.7330   1.7339   1.7356   1.7373   1.7388   1.7417   1.7424   1.7429
  1.7435   1.7447   1.7458   1.7474   1.7500   1.7512   1.7520   1.7525
  1.7546   1.7557   1.7565   1.7573   1.7591   1.7610   1.7629   1.7637
  1.7650   1.7677   1.7687   1.7698   1.7726   1.7745   1.7760   1.7768
  1.7792   1.7803   1.7810   1.7819   1.7841   1.7853   1.7855   1.7872
  1.7891   1.7896   1.7925   1.7951   1.7970   1.7977   1.7982   1.8004
  1.8021   1.8058   1.8071   1.8106   1.8138   1.8146   1.8180   1.8194
  1.8224   1.8251   1.8279   1.8317   1.8342   1.8361   1.8393   1.8400
  1.8443   1.8495   1.8511   1.8536   1.8588   1.8624   1.8639   1.8645
  1.8673   1.8698   1.8707   1.8721   1.8742   1.8752   1.8786   1.8799
  1.8812   1.8831   1.8855   1.8866   1.8881   1.8898   1.8901   1.8933
  1.8951   1.8965   1.8973   1.8980   1.9017   1.9024   1.9054   1.9069
  1.9093   1.9100   1.9114   1.9125   1.9128   1.9137   1.9150   1.9160
  1.9172   1.9190   1.9204   1.9210   1.9212   1.9225   1.9245   1.9257
  1.9262   1.9282   1.9288   1.9309   1.9329   1.9336   1.9351   1.9376
  1.9384   1.9400   1.9413   1.9425   1.9439   1.9456   1.9470   1.9494
  1.9528   1.9551   1.9562   1.9613   1.9649   1.9658   1.9677   1.9700
  1.9762   1.9776   1.9802   1.9843   1.9875   1.9947   2.0011   2.0035
  2.0092   2.0123   2.0263   2.0296   2.0305   2.0349   2.0361   2.0404
  2.0436   2.0470   2.0498   2.0549   2.0564   2.0615   2.0617   2.0649
  2.0669   2.0679   2.0716   2.0739   2.0749   2.0755   2.0762   2.0774
  2.0781   2.0801   2.0861   2.0869   2.0882   2.0885   2.0913   2.0930
  2.0947   2.0962   2.0984   2.0996   2.1011   2.1028   2.1032   2.1046
  2.1058   2.1074   2.1084   2.1104   2.1108   2.1119   2.1147   2.1158
  2.1184   2.1203   2.1211   2.1230   2.1257   2.1289   2.1296   2.1323
  2.1338   2.1351   2.1380   2.1384   2.1395   2.1458   2.1498   2.1501
  2.1530   2.1600   2.1671   2.1721   2.1817   2.1853   2.1878   2.1915
  2.1932   2.1960   2.1976   2.1991   2.2007   2.2036   2.2050   2.2103
  2.2129   2.2132   2.2135   2.2157   2.2168   2.2180   2.2192   2.2199
  2.2224   2.2231   2.2240   2.2242   2.2252   2.2271   2.2279   2.2312
  2.2320   2.2332   2.2340   2.2352   2.2362   2.2383   2.2387   2.2394
  2.2403   2.2416   2.2423   2.2441   2.2447   2.2457   2.2469   2.2493
  2.2506   2.2514   2.2534   2.2544   2.2548   2.2560   2.2565   2.2579
  2.2593   2.2617   2.2630   2.2640   2.2651   2.2654   2.2658   2.2675
  2.2692   2.2696   2.2712   2.2718   2.2727   2.2736   2.2742   2.2757
  2.2771   2.2773   2.2780   2.2801   2.2829   2.2839   2.2842   2.2854
  2.2866   2.2878   2.2882   2.2905   2.2918   2.2925   2.2938   2.2952
  2.2959   2.2967   2.2973   2.2978   2.2989   2.2999   2.3008   2.3018
  2.3036   2.3050   2.3058   2.3070   2.3074   2.3089   2.3097   2.3104
  2.3117   2.3129   2.3136   2.3146   2.3170   2.3172   2.3185   2.3205
  2.3214   2.3231   2.3233   2.3243   2.3258   2.3285   2.3295   2.3303
  2.3328   2.3352   2.3372   2.3385   2.3390   2.3402   2.3415   2.3442
  2.3445   2.3472   2.3487   2.3512   2.3517   2.3556   2.3586   2.3598
  2.3608   2.3623   2.3634   2.3646   2.3665   2.3680   2.3684   2.3703
  2.3734   2.3745   2.3758   2.3763   2.3784   2.3795   2.3854   2.3857
  2.3889   2.3914   2.3981   2.3993   2.4043   2.4067   2.4101   2.4138
  2.4181   2.4230   2.4357   2.4382   2.4647   2.4941   2.5115   2.5434
  2.6047   2.6801   2.7381   2.7660   2.7951   2.7989   2.8077   2.8116
  2.8162   2.8221   2.8273   2.8290   2.8394   2.8444   2.8453   2.8492
  2.8527   2.8565   2.8582   2.8606   2.8623   2.8652   2.8668   2.8687
  2.8745   2.8779   2.8787   2.8820   2.8847   2.8864   2.8974   2.8979
  2.9019   2.9041   2.9138   2.9503   3.1099   3.2609   3.9385   3.9399
  3.9496   3.9578   3.9626   3.9664   3.9712   3.9719   3.9795   3.9857
  3.9912   3.9917   3.9929   3.9953   3.9984   4.0024   4.0065   4.0078
  4.0093   4.0140   4.0166   4.0174   4.0242   4.0259   4.0378   4.0461
  4.2009   4.2174   4.2299   4.2305   4.2365   4.2372   4.2399   4.2453
  4.2499   4.2555   4.2568   4.2579   4.2606   4.2626   4.2650   4.2677
  4.2685   4.2714   4.2749   4.2776   4.2810   4.2837   4.2855   4.2872
  4.2894   4.2914   4.2951   4.2969   4.2993   4.3004   4.3025   4.3065
  4.3070   4.3094   4.3109   4.3135   4.3174   4.3199   4.3212   4.3239
  4.3267   4.3291   4.3344   4.3348   4.3366   4.3410   4.3428   4.3504
  4.3527   4.3540   4.3593   4.3644   4.3713   4.3725   4.3741   4.3752
  4.3805   4.3822   4.3887   4.3934   4.3966   4.4007   4.4047   4.4097
  4.4170   4.4279   4.4295   4.4321   4.4377   4.4547   4.4635   4.4674
  4.4740   4.4758   4.4935   4.4995   4.5080   4.5136   4.5267   4.5389
  4.5788   4.5968   4.6858   4.7050   4.7271   4.7672   4.9092
 --------------------------------------------------------------
 
          Ground-State Mulliken Net Atomic Charges

     Atom                 Charge (a.u.)
  ----------------------------------------
      1 C                    -0.266146
      2 C                    -0.615679
      3 C                    -0.276698
      4 C                    -0.327490
      5 C                    -0.379692
      6 C                    -0.577482
      7 H                     0.217701
      8 H                     0.219713
      9 H                     0.198977
     10 H                     0.220844
     11 H                     0.173131
     12 H                     0.219526
     13 H                     0.214103
     14 H                     0.185447
     15 H                     0.209282
     16 H                     0.163920
     17 H                     0.210607
     18 N                    -0.234053
     19 H                     0.458611
     20 C                     0.381587
     21 H                     0.141606
     22 O                    -0.537815
     23 C                    -0.822914
     24 H                     0.235579
     25 H                     0.269918
     26 H                     0.246122
     27 S                     0.952229
     28 C                    -0.948137
     29 H                     0.257689
     30 H                     0.262406
     31 H                     0.261878
     32 O                    -0.657538
     33 C                    -0.867231
     34 H                     0.277598
     35 H                     0.259800
     36 H                     0.286262
     37 S                     0.936234
     38 C                    -1.032104
     39 H                     0.260312
     40 H                     0.249929
     41 H                     0.252555
     42 O                    -0.650703
     43 C                    -0.990325
     44 H                     0.244353
     45 H                     0.255170
     46 H                     0.253733
     47 S                     1.126837
     48 C                    -0.938207
     49 H                     0.265910
     50 H                     0.286647
     51 H                     0.226419
     52 O                    -0.701745
     53 C                    -0.794538
     54 H                     0.233020
     55 H                     0.245605
     56 H                     0.236396
     57 S                     1.029084
     58 C                    -0.851201
     59 H                     0.235759
     60 H                     0.261643
     61 H                     0.254574
     62 O                    -0.745789
     63 C                    -0.784566
     64 H                     0.290951
     65 H                     0.276516
     66 H                     0.236154
     67 S                     0.931831
     68 C                    -0.864410
     69 H                     0.251846
     70 H                     0.249782
     71 H                     0.229570
     72 O                    -0.686761
     73 C                    -0.967537
     74 H                     0.280272
     75 H                     0.305746
     76 H                     0.249519
     77 S                     0.877684
     78 C                    -0.941167
     79 H                     0.244562
     80 H                     0.289574
     81 H                     0.266813
     82 O                    -0.701217
     83 C                    -1.076271
     84 H                     0.242883
     85 H                     0.223061
     86 H                     0.326231
     87 S                     1.140966
     88 C                    -1.073084
     89 H                     0.295603
     90 H                     0.238758
     91 H                     0.295921
     92 O                    -0.660307
     93 C                    -0.892215
     94 H                     0.232100
     95 H                     0.248959
     96 H                     0.282394
     97 S                     0.993947
     98 C                    -0.885912
     99 H                     0.226687
    100 H                     0.272616
    101 H                     0.286553
    102 O                    -0.767268
    103 C                    -1.044100
    104 H                     0.268819
    105 H                     0.232147
    106 H                     0.283372
    107 S                     1.230653
    108 C                    -1.020088
    109 H                     0.226131
    110 H                     0.277638
    111 H                     0.312004
    112 O                    -0.784577
    113 C                    -0.948572
    114 H                     0.249479
    115 H                     0.252979
    116 H                     0.270167
    117 S                     1.208904
    118 C                    -0.954088
    119 H                     0.257957
    120 H                     0.269877
    121 H                     0.234679
    122 O                    -0.774281
    123 C                    -0.846117
    124 H                     0.269813
    125 H                     0.240884
    126 H                     0.247277
    127 S                     0.968920
    128 C                    -0.832541
    129 H                     0.285446
    130 H                     0.234152
    131 H                     0.227827
    132 O                    -0.723588
    133 C                    -0.999601
    134 H                     0.237132
    135 H                     0.275756
    136 H                     0.260466
    137 S                     1.146003
    138 C                    -1.002911
    139 H                     0.265224
    140 H                     0.245713
    141 H                     0.244909
    142 O                    -0.699766
    143 C                    -0.784873
    144 H                     0.236348
    145 H                     0.237321
    146 H                     0.255481
    147 S                     0.892941
    148 C                    -0.774583
    149 H                     0.235583
    150 H                     0.252495
    151 H                     0.225970
    152 O                    -0.734085
    153 C                    -0.830160
    154 H                     0.238322
    155 H                     0.241527
    156 H                     0.301899
    157 S                     0.375136
    158 C                    -0.634680
    159 H                     0.296824
    160 H                     0.245852
    161 H                     0.243515
    162 O                    -0.590288
    163 C                    -0.797413
    164 H                     0.255950
    165 H                     0.248737
    166 H                     0.223256
    167 S                     0.815791
    168 C                    -0.847474
    169 H                     0.281253
    170 H                     0.248848
    171 H                     0.281997
    172 O                    -0.711869
    173 C                    -1.016554
    174 H                     0.268915
    175 H                     0.267352
    176 H                     0.266182
    177 S                     0.919108
    178 C                    -0.869667
    179 H                     0.295007
    180 H                     0.256648
    181 H                     0.268744
    182 O                    -0.678011
    183 C                    -0.798249
    184 H                     0.259771
    185 H                     0.264883
    186 H                     0.243514
    187 S                     0.824316
    188 C                    -0.927425
    189 H                     0.269864
    190 H                     0.256431
    191 H                     0.266241
    192 O                    -0.710890
    193 C                    -0.835546
    194 H                     0.235092
    195 H                     0.253893
    196 H                     0.257327
    197 S                     0.983470
    198 C                    -0.969574
    199 H                     0.297423
    200 H                     0.275633
    201 H                     0.288714
    202 O                    -0.786696
    203 C                    -0.908652
    204 H                     0.243662
    205 H                     0.240420
    206 H                     0.255706
    207 S                     0.848962
    208 C                    -0.785925
    209 H                     0.253417
    210 H                     0.227917
    211 H                     0.268024
    212 O                    -0.657949
    213 C                    -0.936011
    214 H                     0.320273
    215 H                     0.259092
    216 H                     0.237793
    217 S                     0.901871
    218 C                    -0.859235
    219 H                     0.260854
    220 H                     0.252823
    221 H                     0.245124
    222 O                    -0.699122
    223 C                    -0.846661
    224 H                     0.229323
    225 H                     0.270819
    226 H                     0.271281
    227 S                     0.727406
    228 C                    -0.812774
    229 H                     0.286586
    230 H                     0.298539
    231 H                     0.267996
    232 O                    -0.687213
    233 C                    -0.767832
    234 H                     0.254672
    235 H                     0.256483
    236 H                     0.247107
    237 S                     0.548982
    238 C                    -0.792370
    239 H                     0.293360
    240 H                     0.235498
    241 H                     0.241976
    242 O                    -0.578845
    243 C                    -0.898275
    244 H                     0.280183
    245 H                     0.261065
    246 H                     0.273437
    247 S                     0.882587
    248 C                    -0.895288
    249 H                     0.248007
    250 H                     0.218621
    251 H                     0.259013
    252 O                    -0.650660
    253 C                    -0.913588
    254 H                     0.278920
    255 H                     0.323879
    256 H                     0.242827
    257 S                     0.479275
    258 C                    -0.636808
    259 H                     0.295796
    260 H                     0.215521
    261 H                     0.242816
    262 O                    -0.593214
    263 C                    -0.784407
    264 H                     0.210523
    265 H                     0.311984
    266 H                     0.236669
    267 S                     0.806886
    268 C                    -0.837760
    269 H                     0.287171
    270 H                     0.244948
    271 H                     0.256574
    272 O                    -0.710498
    273 C                    -0.944791
    274 H                     0.225445
    275 H                     0.319174
    276 H                     0.269977
    277 S                     1.056680
    278 C                    -0.954246
    279 H                     0.211667
    280 H                     0.250244
    281 H                     0.288532
    282 O                    -0.671908
  ----------------------------------------
  Sum of atomic charges =     0.000000

 -----------------------------------------------------------------
                    Cartesian Multipole Moments
 -----------------------------------------------------------------
    Charge (ESU x 10^10)
                -0.0000
    Dipole Moment (Debye)
         X      26.5731      Y     -10.2986      Z      -6.6005
       Tot      29.2533
    Quadrupole Moments (Debye-Ang)
        XX     886.7914     XY     297.8708     YY   -1516.9385
        XZ     571.0684     YZ    -450.4171     ZZ   -1391.5657
    Octopole Moments (Debye-Ang^2)
       XXX    8102.8902    XXY    7021.1162    XYY  -32193.8614
       YYY -101885.7662    XXZ   20111.0033    XYZ    4092.8146
       YYZ  -46745.4047    XZZ  -18876.6568    YZZ  -46642.8147
       ZZZ -101947.9641
    Hexadecapole Moments (Debye-Ang^3)
      XXXX ************   XXXY -444717.2090   XXYY ************
      XYYY ************   YYYY ************   XXXZ   93165.2119
      XXYZ   82815.3340   XYYZ ************   YYYZ ************
      XXZZ -479744.7258   XYZZ -865964.8403   YYZZ ************
      XZZZ ************   YZZZ ************   ZZZZ ************
 -----------------------------------------------------------------
Archival summary:
[...]
    2   0.0084214   0.0310824   0.0250407  -0.0039864  -0.0163245  -0.0171736
    3  -0.0112650   0.0104387  -0.0343317   0.0081292  -0.0144026   0.0108384
          121         122         123         124         125         126
    1  -0.0178138   0.0698546  -0.0020268   0.0025342  -0.0162910  -0.0233296
    2   0.0149977  -0.0798342   0.0045761   0.0367200  -0.0222680   0.0206168
    3   0.0279983  -0.0276851  -0.0037779  -0.0193956  -0.0140054   0.0119490
          127         128         129         130         131         132
    1   0.0319217   0.0036324   0.0210188  -0.0120759   0.0243175  -0.0463053
    2   0.0386725   0.0000608  -0.0185703  -0.0299311   0.0188083  -0.0827572
    3   0.0210137  -0.0035287  -0.0010203  -0.0180725  -0.0263371   0.0550830
          133         134         135         136         137         138
    1  -0.0033858   0.0330829  -0.0319747   0.0015102  -0.0442112   0.0113074
    2  -0.0071154  -0.0018045   0.0004116  -0.0161778   0.0198800  -0.0004540
    3   0.0002008   0.0133587   0.0105625  -0.0271759  -0.0328680  -0.0014570
          139         140         141         142         143         144
    1   0.0087022   0.0158153  -0.0094195   0.0273643  -0.0003274   0.0178140
    2   0.0327885  -0.0217233  -0.0059016   0.0455878   0.0020445   0.0213919
    3  -0.0044940   0.0226163  -0.0335738   0.0969370   0.0096973   0.0238731
          145         146         147         148         149         150
    1  -0.0224360   0.0084457  -0.0375279   0.0021561   0.0113460   0.0224823
    2   0.0119434  -0.0286021  -0.0285303   0.0029215  -0.0321702   0.0019921
    3   0.0240223   0.0116532  -0.0238193  -0.0014331  -0.0028794  -0.0312945
          151         152         153         154         155         156
    1   0.0251788   0.0072878   0.0008368   0.0271738  -0.0195923   0.0087537
    2   0.0123690   0.1099712   0.0055571  -0.0135717  -0.0159330   0.0295373
    3   0.0143101   0.0059168  -0.0040190  -0.0149081  -0.0235662   0.0088324
          157         158         159         160         161         162
    1   0.0391802  -0.0041396  -0.0107000  -0.0199704   0.0248732  -0.1037462
    2   0.0060517  -0.0080534  -0.0214715  -0.0046308  -0.0259289   0.0400561
    3   0.0405272  -0.0003713   0.0196775  -0.0261726   0.0056633   0.0069514
          163         164         165         166         167         168
    1  -0.0023820   0.0098480  -0.0242914  -0.0222438  -0.0197018   0.0098851
    2   0.0039371   0.0244662  -0.0071509   0.0229820  -0.0395566   0.0042451
    3  -0.0002832  -0.0148113  -0.0170397   0.0267604   0.0305335   0.0059807
          169         170         171         172         173         174
    1   0.0225001   0.0011530  -0.0026783   0.0282134   0.0110042   0.0190640
    2  -0.0195071   0.0261511  -0.0002745  -0.0069443   0.0019351   0.0265124
    3   0.0171510  -0.0255050   0.0325571  -0.1058347  -0.0005652   0.0087453
          175         176         177         178         179         180
    1  -0.0042757   0.0145376  -0.0235010   0.0050365  -0.0188136   0.0108640
    2  -0.0131386  -0.0278242  -0.0365767   0.0038803   0.0115412   0.0175226
    3   0.0275985  -0.0192434  -0.0407923  -0.0001147  -0.0065946   0.0252896
          181         182         183         184         185         186
    1   0.0213894  -0.0473662  -0.0070376  -0.0144680   0.0242637  -0.0322948
    2   0.0017965   0.0151805  -0.0070146   0.0187229  -0.0229085   0.0011374
    3  -0.0317144   0.0986847  -0.0037876  -0.0188304  -0.0162748   0.0192967
          187         188         189         190         191         192
    1   0.0467661   0.0032568   0.0123521  -0.0299123   0.0123375  -0.0579272
    2   0.0078381  -0.0067726   0.0188354  -0.0053127  -0.0309122   0.0786283
    3  -0.0260160   0.0044731   0.0227807   0.0094867  -0.0131378   0.0495066
          193         194         195         196         197         198
    1   0.0019940   0.0223084  -0.0214470  -0.0091199  -0.0319469   0.0106028
    2  -0.0044490  -0.0229415  -0.0164397   0.0025390   0.0434383   0.0009768
    3  -0.0014273  -0.0009457   0.0136788  -0.0300818  -0.0023108  -0.0014572
          199         200         201         202         203         204
    1   0.0087835   0.0236189  -0.0004511   0.0519066   0.0018469   0.0245596
    2   0.0264584  -0.0144619  -0.0037794  -0.0271721   0.0008352  -0.0207663
    3   0.0171135   0.0203881  -0.0307653   0.0983216   0.0067625   0.0090638
          205         206         207         208         209         210
    1   0.0171874   0.0056073   0.0047382  -0.0031056  -0.0013985   0.0131287
    2   0.0198335   0.0190380  -0.0283701   0.0035082   0.0237440   0.0287751
    3  -0.0158819   0.0327899  -0.0571581   0.0012257   0.0255237  -0.0157942
          211         212         213         214         215         216
    1  -0.0255779  -0.0503090  -0.0015565   0.0097597  -0.0246428  -0.0150263
    2   0.0036596  -0.0487487  -0.0017528   0.0029760   0.0172800  -0.0285712
    3  -0.0105118   0.0848467   0.0116970   0.0314892  -0.0096319   0.0076056
          217         218         219         220         221         222
    1  -0.0241136   0.0049683   0.0257452   0.0061504  -0.0145025   0.0384654
    2  -0.0116857  -0.0047188   0.0057554   0.0023068  -0.0302934   0.0995926
    3  -0.0547022   0.0054569  -0.0190461   0.0302636  -0.0018953   0.0227016
          223         224         225         226         227         228
    1  -0.0040004  -0.0329156  -0.0061705   0.0091422  -0.0210187   0.0023179
    2  -0.0027559   0.0124163  -0.0333372   0.0135651  -0.0174293  -0.0074305
    3   0.0058073  -0.0004370   0.0073421   0.0256517  -0.0511089   0.0076228
          229         230         231         232         233         234
    1   0.0056866   0.0053861  -0.0117517   0.0396333   0.0047209  -0.0015522
    2  -0.0008760   0.0177972  -0.0345439   0.1000069  -0.0021551  -0.0136377
    3  -0.0225340   0.0324655  -0.0069951   0.0206524  -0.0064088  -0.0308098
          235         236         237         238         239         240
    1   0.0095382   0.0212142   0.0086919  -0.0042614  -0.0300412  -0.0037409
    2   0.0273072  -0.0200529   0.0341634  -0.0103478  -0.0027328  -0.0270698
    3  -0.0040214   0.0160640   0.0632369   0.0005788  -0.0041721  -0.0279645
          241         242         243         244         245         246
    1   0.0143105  -0.0786305   0.0028019   0.0273832  -0.0206725  -0.0141610
    2  -0.0069765   0.0384506   0.0067218   0.0239975   0.0039096   0.0099236
    3   0.0299220  -0.0656420  -0.0005247  -0.0007431  -0.0248941   0.0191282
          247         248         249         250         251         252
    1   0.0342297  -0.0037584  -0.0167173  -0.0214249   0.0048051   0.0313577
    2  -0.0206560  -0.0040406   0.0212328  -0.0024438  -0.0308468  -0.0212694
    3  -0.0477940  -0.0013247   0.0172319  -0.0338178   0.0061768   0.0994619
          253         254         255         256         257         258
    1  -0.0099404   0.0101868  -0.0356183   0.0179380  -0.0119386   0.0083746
    2   0.0040610  -0.0021848   0.0009998   0.0275057   0.0010703   0.0028105
    3  -0.0065947  -0.0306089   0.0062678  -0.0069558   0.0498518  -0.0072551
          259         260         261         262         263         264
    1  -0.0096128   0.0223507   0.0203276  -0.0106504  -0.0000432   0.0354654
    2   0.0079446   0.0293695  -0.0104679  -0.0895969   0.0059421   0.0166351
    3  -0.0355939   0.0133871   0.0188141  -0.0668332  -0.0063396   0.0030337
          265         266         267         268         269         270
    1  -0.0075385  -0.0060110   0.0182972   0.0064080  -0.0124176  -0.0079941
    2   0.0133038   0.0245925  -0.0164871  -0.0041159  -0.0280970   0.0191915
    3  -0.0282547   0.0199929   0.0494383  -0.0029287   0.0016574  -0.0240030
          271         272         273         274         275         276
    1   0.0340847  -0.1085299  -0.0072503   0.0248683  -0.0068037  -0.0177461
    2  -0.0187059   0.0055713  -0.0097895  -0.0071408  -0.0216218   0.0102751
    3   0.0076921  -0.0199283  -0.0042598  -0.0153133   0.0294852  -0.0278310
          277         278         279         280         281         282
    1   0.0378033   0.0007079   0.0275784   0.0077090  -0.0230228  -0.0994985
    2   0.0339420  -0.0027158  -0.0128681   0.0205012  -0.0219169   0.0284600
    3  -0.0268140   0.0070523  -0.0072201   0.0234910   0.0046629   0.0341238
  --- DONE ESP SUMMARY ---
Archival summary:
1\1\n0095.mhg0\SP\ProcedureUnspecified\6-31+G*\262652h22\ymao\FriMar1210:03:112021FriMar1210:03:112021\0\\#,ProcedureUnspecified,6-31+G*,\\0,1\S\O,1,1.49716\C,1,1.80696,2,104.469\H,3,1.09246,1,105.818,2,-94.0958,0\H,3,1.0926,1,114.289,2,22.9263,0\H,3,1.09354,1,110.571,2,157.167,0\C,1,1.80754,2,101.718,3,-103.876,0\H,7,1.09229,1,113.034,2,169.547,0\H,7,1.09302,1,101.471,2,50.6377,0\H,7,1.09303,1,104.108,2,-66.4438,0\H,10,2.21784,7,138.455,1,26.3376,0\C,11,1.09257,10,146.384,7,67.8528,0\H,12,1.09258,11,110.631,10,-57.0738,0\H,12,1.09265,11,108.465,10,59.2313,0\S,12,1.8075,11,111.661,10,-175.358,0\O,15,1.4967,12,104.84,11,163.967,0\C,15,1.80683,12,92.0669,11,53.5172,0\H,17,1.09246,15,114.632,12,-85.1097,0\H,17,1.09256,15,110.705,12,36.5856,0\H,17,1.09283,15,102.741,12,156.692,0\Gh,8,2.24686,7,107.417,1,48.1966,0\Gh,21,1.09609,8,166.486,7,76.0081,0\Gh,22,1.09673,21,112.164,8,-134.716,0\Gh,22,1.53759,21,102.923,8,-20.9903,0\Gh,24,1.09694,22,105.166,21,-55.1132,0\Gh,24,1.09746,22,111.764,21,-170.547,0\Gh,24,1.53754,22,109.048,21,65.8293,0\Gh,27,1.0975,24,103.095,22,-61.9092,0\Gh,27,1.46126,24,114.819,22,179.342,0\Gh,29,1.01341,27,122.124,24,-69.7421,0\Gh,29,1.37937,27,123.702,24,96.2035,0\Gh,31,1.1046,29,112.601,27,-173.739,0\Gh,31,1.21842,29,123.506,27,9.71949,0\Gh,27,1.53739,24,113.451,22,49.6931,0\Gh,34,1.09626,27,112.002,24,-172.879,0\Gh,34,1.09677,27,106.429,24,75.4455,0\Gh,34,1.53793,27,116.367,24,-48.5136,0\Gh,37,1.09668,34,112.545,27,170.121,0\Gh,37,1.09676,34,106.123,27,-72.4899,0\Gh,37,1.53814,34,110.598,27,47.2503,0\Gh,40,1.09595,37,102.125,34,-164.892,0\Gh,40,1.09671,37,109.376,34,72.8887,0\H,38,2.06894,37,109.4,34,116.935,0\C,43,1.09278,38,157.575,37,152.039,0\H,44,1.09227,43,112.639,38,-41.2604,0\H,44,1.09367,43,109.753,38,-159.479,0\S,44,1.80695,43,110.862,38,83.5219,0\O,47,1.49686,44,97.5239,43,56.4911,0\C,47,1.80736,44,95.2964,43,-48.0101,0\H,49,1.09206,47,106.677,44,42.2221,0\H,49,1.09277,47,114.059,44,-69.142,0\H,49,1.09313,47,112.165,44,166.27,0\O,30,2.16733,29,153.404,27,75.157,0\S,53,1.49602,30,113.18,29,-177.326,0\C,54,1.80695,53,98.3694,30,46.041,0\H,55,1.09266,54,113.554,53,-95.3148,0\H,55,1.09284,54,105.664,53,30.8784,0\H,55,1.09318,54,111.058,53,146.05,0\C,54,1.80702,53,102.745,30,144.981,0\H,59,1.09264,54,110.585,53,-170.837,0\H,59,1.09281,54,106.133,53,65.8802,0\H,59,1.09356,54,102,53,-50.6454,0\H,42,2.22745,40,161.589,37,-9.65307,0\C,63,1.09353,42,138.714,40,-143.837,0\H,64,1.09268,63,115.186,42,-45.8006,0\H,64,1.09311,63,110.229,42,76.5015,0\S,64,1.80659,63,99.158,42,-174.891,0\O,67,1.49744,64,98.2789,63,-37.9955,0\C,67,1.80621,64,91.7281,63,65.8306,0\H,69,1.09252,67,106.437,64,71.0394,0\H,69,1.09277,67,102.8,64,-52.5177,0\H,69,1.09372,67,98.0539,64,-167.349,0\H,68,2.40539,67,155.004,64,141.907,0\C,73,1.09326,68,146.715,67,-165.599,0\H,74,1.09277,73,107.229,68,37.1985,0\H,74,1.09285,73,107.853,68,152.422,0\S,74,1.80672,73,116.878,68,-87.6212,0\O,77,1.49746,74,99.5006,73,-94.8275,0\C,77,1.8068,74,90.5543,73,159.089,0\H,79,1.09244,77,110.449,74,34.5006,0\H,79,1.0936,77,112.557,74,160.523,0\H,79,1.09371,77,113.508,74,-80.3758,0\H,45,2.48372,44,142.289,43,-98.4172,0\C,83,1.09259,45,114.423,44,-109.931,0\H,84,1.09287,83,103.847,45,-79.7027,0\H,84,1.09339,83,103.146,45,157.958,0\S,84,1.80766,83,107.117,45,37.0857,0\O,87,1.49669,84,103.046,83,78.3064,0\C,87,1.80724,84,95.1813,83,-176.518,0\H,89,1.09245,87,121.138,84,75.1553,0\H,89,1.09327,87,108.098,84,-153.934,0\H,89,1.09373,87,109.038,84,-45.9591,0\H,86,2.2121,84,110.472,83,45.6433,0\C,93,1.09277,86,162.854,84,34.1262,0\H,94,1.09249,93,109.955,86,22.3401,0\H,94,1.09302,93,107.605,86,139.929,0\S,94,1.80669,93,110.375,86,-100.314,0\O,97,1.49702,94,111.196,93,77.2499,0\C,97,1.80781,94,102.384,93,-171.603,0\H,99,1.09225,97,115.884,94,82.5404,0\H,99,1.09301,97,108.872,94,-159.945,0\H,99,1.0932,97,104.897,94,-31.738,0\H,96,2.26714,94,106.702,93,71.2251,0\C,103,1.09359,96,155.896,94,-76.0447,0\H,104,1.09288,103,116.82,96,-78.5125,0\H,104,1.09321,103,112.585,96,34.4307,0\S,104,1.80708,103,112.233,96,157.734,0\O,107,1.49656,104,96.0131,103,-51.7224,0\C,107,1.80685,104,101.502,103,47.5846,0\H,109,1.09271,107,106.809,104,-62.5184,0\H,109,1.09312,107,107,104,177.697,0\H,109,1.09312,107,107.334,104,57.5808,0\H,106,1.98729,104,144.988,103,143.262,0\C,113,1.09353,106,126.343,104,-48.1106,0\H,114,1.09228,113,114.917,106,22.3069,0\H,114,1.09317,113,105.598,106,141.514,0\S,114,1.8069,113,107.237,106,-105.839,0\O,117,1.49645,114,105.928,113,173.424,0\C,117,1.80675,114,95.3904,113,69.3216,0\H,119,1.09305,117,115.396,114,-78.1506,0\H,119,1.09307,117,104.35,114,160.328,0\H,119,1.09342,117,116.002,114,51.7704,0\H,95,2.3509,94,120.315,93,-48.3757,0\C,123,1.0932,95,137.768,94,178.856,0\H,124,1.09261,123,110.051,95,-71.846,0\H,124,1.0928,123,110.126,95,45.0183,0\S,124,1.80741,123,107.685,95,164.022,0\O,127,1.49701,124,109.24,123,52.046,0\C,127,1.80737,124,95.9632,123,-52.8405,0\H,129,1.09243,127,114.482,124,-175.909,0\H,129,1.09307,127,106.596,124,-49.5947,0\H,129,1.09361,127,104.957,124,65.8731,0\H,131,2.32407,129,104.766,127,172.199,0\C,133,1.09341,131,101.596,129,179.903,0\H,134,1.09271,133,104.032,131,-78.0764,0\H,134,1.09279,133,106.115,131,51.3264,0\S,134,1.80729,133,107.442,131,164.527,0\O,137,1.49696,134,106.026,133,72.3978,0\C,137,1.80773,134,96.2053,133,178.856,0\H,139,1.09241,137,108.992,134,-48.1624,0\H,139,1.09249,137,105.777,134,68.9408,0\H,139,1.09339,137,106.472,134,-165.39,0\H,142,2.26653,139,142.175,137,-88.369,0\C,143,1.09253,142,144.765,139,173.233,0\H,144,1.09252,143,106.536,142,-116.387,0\H,144,1.09375,143,107.711,142,123.898,0\S,144,1.80702,143,113.25,142,10.7456,0\O,147,1.49693,144,96.8392,143,38.5616,0\C,147,1.80625,144,93.4862,143,-62.7584,0\H,149,1.09324,147,112.127,144,-68.4003,0\H,149,1.09327,147,107.103,144,172.252,0\H,149,1.09345,147,107.33,144,51.9715,0\H,150,2.31871,149,114.476,147,93.2864,0\C,153,1.09327,150,140.326,149,83.6862,0\H,154,1.09254,153,101.273,150,-27.0214,0\H,154,1.0937,153,114.202,150,92.5516,0\S,154,1.80717,153,112.71,150,-138.962,0\O,157,1.49722,154,101.177,153,30.5763,0\C,157,1.80669,154,98.5572,153,-69.3715,0\H,159,1.09256,157,113.02,154,169.936,0\H,159,1.09327,157,108.468,154,-65.934,0\H,159,1.09408,157,101.527,154,55.7925,0\O,145,2.36067,144,159.176,143,161.229,0\S,163,1.49665,145,126.089,144,-70.1125,0\C,164,1.80691,163,105.329,145,-141.817,0\H,165,1.09281,164,105.447,163,173.648,0\H,165,1.09294,164,110.004,163,56.3067,0\H,165,1.09329,164,107.296,163,-68.5927,0\C,164,1.80737,163,98.6812,145,122.124,0\H,169,1.09262,164,116.467,163,-85.8418,0\H,169,1.09302,164,106.352,163,34.6,0\H,169,1.09388,164,104.842,163,152.116,0\H,151,2.37028,149,99.8965,147,-144.746,0\C,173,1.09331,151,119.056,149,-165.006,0\H,174,1.09254,173,123.436,151,-57.281,0\H,174,1.09331,173,110.812,151,171.826,0\S,174,1.80696,173,109.421,151,61.9866,0\O,177,1.49709,174,102.74,173,-68.951,0\C,177,1.8071,174,95.1872,173,-175.856,0\H,179,1.09275,177,102.209,174,172.387,0\H,179,1.0933,177,110.62,174,54.7886,0\H,179,1.09332,177,104.329,174,-67.3919,0\H,33,2.50828,31,139.713,29,134.593,0\C,183,1.09218,33,130.189,31,-23.1179,0\H,184,1.09299,183,116.732,33,120.183,0\H,184,1.09366,183,107.81,33,3.02216,0\S,184,1.80689,183,106.169,33,-113.799,0\O,187,1.4971,184,96.45,183,-88.5094,0\C,187,1.80716,184,89.3892,183,171.472,0\H,189,1.09275,187,105.316,184,-145.818,0\H,189,1.09276,187,106.311,184,97.7919,0\H,189,1.09367,187,115.122,184,-19.4242,0\H,183,2.16735,33,67.4999,31,57.879,0\C,193,1.09333,183,141.485,33,135.15,0\H,194,1.09259,193,113.249,183,-111.881,0\H,194,1.09389,193,105.34,183,2.99091,0\S,194,1.80707,193,112.207,183,123.663,0\O,197,1.49721,194,101.929,193,-72.8155,0\C,197,1.80753,194,99.2921,193,177.27,0\H,199,1.09275,197,102.8,194,-164.565,0\H,199,1.09304,197,106.347,194,-51.1837,0\H,199,1.09348,197,112.503,194,73.2816,0\H,192,2.39229,189,105.939,187,-87.4017,0\C,203,1.09229,192,132.689,189,89.9245,0\H,204,1.09262,203,117.153,192,-49.904,0\H,204,1.09289,203,108.831,192,-167.546,0\S,204,1.80724,203,101.435,192,67.1703,0\O,207,1.49637,204,103.553,203,165.941,0\C,207,1.80788,204,96.5541,203,59.5933,0\H,209,1.09276,207,107.486,204,-157.297,0\H,209,1.09284,207,105.372,204,88.5376,0\H,209,1.09298,207,113.583,204,-41.4651,0\O,210,2.18933,209,173.139,207,-147.432,0\S,213,1.49735,210,119.56,209,-162.904,0\C,214,1.80653,213,97.9181,210,138.263,0\H,215,1.09265,214,100.612,213,-174.47,0\H,215,1.09306,214,107.053,213,-52.4233,0\H,215,1.09359,214,105.717,213,68.2287,0\C,214,1.80668,213,104.577,210,35.3284,0\H,219,1.09278,214,102.643,213,-72.7409,0\H,219,1.09318,214,115.286,213,167.55,0\H,219,1.09391,214,115.533,213,37.9069,0\O,206,2.30024,204,145.849,203,-44.212,0\S,223,1.49726,206,99.8362,204,159.983,0\C,224,1.80674,223,105.121,206,-138.294,0\H,225,1.09197,224,99.83,223,-70.2324,0\H,225,1.09299,224,116.053,223,50.2187,0\H,225,1.09306,224,105.022,223,179.868,0\C,224,1.80724,223,110.302,206,-34.4653,0\H,229,1.0924,224,109.12,223,-40.7282,0\H,229,1.09311,224,105.599,223,-156.931,0\H,229,1.09372,224,111.636,223,87.6877,0\H,211,2.38739,209,119.197,207,132.811,0\C,233,1.09271,211,101.801,209,-171.213,0\H,234,1.0928,233,107.618,211,-170.38,0\H,234,1.09297,233,113.744,211,-60.0315,0\S,234,1.80725,233,109.604,211,62.3015,0\O,237,1.49631,234,110.305,233,150.949,0\C,237,1.80738,234,94.1721,233,44.2341,0\H,239,1.09285,237,111.414,234,173.193,0\H,239,1.09293,237,105.547,234,52.9139,0\H,239,1.09329,237,104.655,234,-66.2943,0\H,205,2.39676,204,170.494,203,-5.04502,0\C,243,1.09297,205,103.671,204,-111.751,0\H,244,1.09249,243,123.293,205,-45.4785,0\H,244,1.0934,243,108.086,205,175.094,0\S,244,1.80787,243,110.262,205,71.4037,0\O,247,1.49662,244,108.66,243,-27.9282,0\C,247,1.8063,244,95.9897,243,78.6449,0\H,249,1.09294,247,103.121,244,-61.286,0\H,249,1.09322,247,115.056,244,-178.223,0\H,249,1.09375,247,114.403,244,57.8133,0\H,188,2.45695,187,136.779,184,36.1822,0\C,253,1.0929,188,143.259,187,130.385,0\H,254,1.09288,253,111.689,188,114.45,0\H,254,1.0935,253,109.575,188,-17.1113,0\S,254,1.80762,253,108.918,188,-129.33,0\O,257,1.49682,254,102.866,253,-50.9316,0\C,257,1.80645,254,97.477,253,58.1609,0\H,259,1.09237,257,112.83,254,-32.6975,0\H,259,1.09255,257,113.994,254,-163.137,0\H,259,1.09338,257,102.437,254,79.2529,0\H,260,2.30254,259,116.965,257,135.28,0\C,263,1.09265,260,128.748,259,-49.2187,0\H,264,1.09296,263,110.929,260,-144.379,0\H,264,1.09327,263,109.427,260,-9.16944,0\S,264,1.80643,263,106.579,260,101.51,0\O,267,1.49666,264,105.234,263,-74.1137,0\C,267,1.80771,264,93.3808,263,178.538,0\H,269,1.09249,267,104.576,264,174.333,0\H,269,1.09295,267,97.7093,264,64.1979,0\H,269,1.09345,267,114.399,264,-58.1506,0\O,195,2.60223,194,121.14,193,-73.5237,0\S,273,1.49756,195,137.465,194,8.81025,0\C,274,1.80683,273,109.603,195,-42.7789,0\H,275,1.09258,274,114.04,273,-31.4741,0\H,275,1.0931,274,98.8261,273,84.2971,0\H,275,1.09363,274,112.708,273,-169.089,0\C,274,1.80704,273,105.41,195,-143.047,0\H,279,1.09238,274,117.84,273,63.0336,0\H,279,1.09282,274,98.1751,273,-174.783,0\H,279,1.09296,274,111.201,273,-60.7166,0\\\@

 Total job time:  65.31s(wall), 229.32s(cpu) 
 Fri Mar 12 10:03:11 2021

        *************************************************************
        *                                                           *
        *  Thank you very much for using Q-Chem.  Have a nice day.  *
        *                                                           *
        *************************************************************


