                  Welcome to Q-Chem
     A Quantum Leap Into The Future Of Chemistry


 Q-Chem 5.2 (devel), Q-Chem, Inc., Pleasanton, CA (2019)

 Yihan Shao,  Zhengting Gan,  E. Epifanovsky,  A. T. B. Gilbert,  M. Wormit,  
 J. Kussmann,  A. W. Lange,  A. Behn,  Jia Deng,  Xintian Feng,  D. Ghosh,  
 M. Goldey,  P. R. Horn,  L. D. Jacobson,  I. Kaliman,  T. Kus,  A. Landau,  
 Jie Liu,  E. I. Proynov,  R. M. Richard,  R. P. Steele,  E. J. Sundstrom,  
 H. L. Woodcock III,  P. M. Zimmerman,  D. Zuev,  B. Alam,  B. Albrecht,  
 E. Alguire,  S. A. Baeppler,  D. Barton,  Z. Benda,  Y. A. Bernard,  
 E. J. Berquist,  K. B. Bravaya,  H. Burton,  K. Carter-Fenk,  D. Casanova,  
 Chun-Min Chang,  Yunqing Chen,  A. Chien,  K. D. Closser,  M. P. Coons,  
 S. Coriani,  S. Dasgupta,  A. L. Dempwolff,  M. Diedenhofen,  Hainam Do,  
 R. G. Edgar,  Po-Tung Fang,  S. Faraji,  S. Fatehi,  Qingguo Feng,  
 J. Fosso-Tande,  J. Gayvert,  Qinghui Ge,  A. Ghysels,  G. Gidofalvi,  
 J. Gomes,  J. Gonthier,  A. Gunina,  D. Hait,  M. W. D. Hanson-Heine,  
 P. H. P. Harbach,  A. W. Hauser,  M. F. Herbst,  J. E. Herr,  
 E. G. Hohenstein,  Z. C. Holden,  Kerwin Hui,  B. C. Huynh,  T.-C. Jagau,  
 Hyunjun Ji,  B. Kaduk,  K. Khistyaev,  Jaehoon Kim,  P. Klunzinger,  K. Koh,  
 D. Kosenkov,  L. Koulias,  T. Kowalczyk,  C. M. Krauter,  A. Kunitsa,  
 Ka Un Lao,  A. Laurent,  K. V. Lawler,  Joonho Lee,  D. Lefrancois,  
 S. Lehtola,  D. S. Levine,  Yi-Pei Li,  You-Sheng Lin,  Fenglai Liu,  
 Kuan-Yu Liu,  E. Livshits,  M. Loipersberger,  A. Luenser,  P. Manohar,  
 E. Mansoor,  S. F. Manzer,  Shan-Ping Mao,  Yuezhi Mao,  N. Mardirossian,  
 A. V. Marenich,  T. Markovich,  L. A. Martinez-Martinez,  S. A. Maurer,  
 N. J. Mayhall,  S. C. McKenzie,  J.-M. Mewes,  P. Morgante,  A. F. Morrison,  
 J. W. Mullinax,  K. Nanda,  T. S. Nguyen-Beck,  R. Olivares-Amaya,  
 J. A. Parkhill,  S. K. Paul,  F. Pavosevic,  Zheng Pei,  T. M. Perrine,  
 F. Plasser,  P. Pokhilko,  S. Prager,  A. Prociuk,  E. Ramos,  B. Rana,  
 D. R. Rehn,  F. Rob,  M. Scheurer,  M. Schneider,  N. Sergueev,  
 S. M. Sharada,  S. Sharma,  D. W. Small,  T. Stauch,  C. J. Stein,  
 T. Stein,  Yu-Chuan Su,  S. P. Veccham,  Zhen Tao,  A. J. W. Thom,  
 A. Tkatchenko,  T. Tsuchimochi,  N. M. Tubman,  L. Vogt,  M. L. Vidal,  
 O. Vydrov,  M. A. Watson,  J. Wenzel,  M. de Wergifosse,  T. A. Wesolowski,  
 A. White,  J. Witte,  A. Yamada,  Jun Yang,  K. Yao,  S. Yeganeh,  
 S. R. Yost,  Zhi-Qiang You,  A. Zech,  Igor Ying Zhang,  Xing Zhang,  
 Yan Zhao,  Ying Zhu,  B. R. Brooks,  G. K. L. Chan,  C. J. Cramer,  
 M. S. Gordon,  W. J. Hehre,  A. Klamt,  M. W. Schmidt,  C. D. Sherrill,  
 D. G. Truhlar,  A. Aspuru-Guzik,  R. Baer,  A. T. Bell,  N. A. Besley,  
 Jeng-Da Chai,  A. E. DePrince, III,  R. A. DiStasio Jr.,  A. Dreuw,  
 B. D. Dunietz,  T. R. Furlani,  Chao-Ping Hsu,  Yousung Jung,  Jing Kong,  
 D. S. Lambrecht,  WanZhen Liang,  C. Ochsenfeld,  V. A. Rassolov,  
 L. V. Slipchenko,  J. E. Subotnik,  T. Van Voorhis,  J. M. Herbert,  
 A. I. Krylov,  P. M. W. Gill,  M. Head-Gordon

 Contributors to earlier versions of Q-Chem not listed above: 
 R. D. Adamson,  B. Austin,  J. Baker,  G. J. O. Beran,  K. Brandhorst,  
 S. T. Brown,  E. F. C. Byrd,  A. K. Chakraborty,  C.-L. Cheng,  
 Siu Hung Chien,  D. M. Chipman,  D. L. Crittenden,  H. Dachsel,  
 R. J. Doerksen,  A. D. Dutoi,  L. Fusti-Molnar,  W. A. Goddard III,  
 A. Golubeva-Zadorozhnaya,  S. R. Gwaltney,  G. Hawkins,  A. Heyden,  
 S. Hirata,  G. Kedziora,  F. J. Keil,  C. Kelley,  Jihan Kim,  R. A. King,  
 R. Z. Khaliullin,  P. P. Korambath,  W. Kurlancheek,  A. M. Lee,  M. S. Lee,  
 S. V. Levchenko,  Ching Yeh Lin,  D. Liotard,  R. C. Lochan,  I. Lotan,  
 P. E. Maslen,  N. Nair,  D. P. O'Neill,  D. Neuhauser,  E. Neuscamman,  
 C. M. Oana,  R. Olson,  B. Peters,  R. Peverati,  P. A. Pieniazek,  
 Y. M. Rhee,  J. Ritchie,  M. A. Rohrdanz,  E. Rosta,  N. J. Russ,  
 H. F. Schaefer III,  N. E. Schultz,  N. Shenvi,  A. C. Simmonett,  A. Sodt,  
 D. Stuck,  K. S. Thanthiriwatte,  V. Vanovschi,  Tao Wang,  A. Warshel,  
 C. F. Williams,  Q. Wu,  X. Xu,  W. Zhang

 Please cite Q-Chem as follows:
 Y. Shao et al., Mol. Phys. 113, 184-215 (2015)
 DOI: 10.1080/00268976.2014.952696

 Q-Chem 5.2.2 for Intel X86 EM64T Linux

 Parts of Q-Chem use Armadillo 9.800.1 (Horizon Scraper).
 http://arma.sourceforge.net/

 Q-Chem begins on Thu Mar 11 13:37:36 2021  

Host: n0076.mhg0
0

     Scratch files written to /local/scratch/users/ymao/r7.00_frame_0093_almo_B3LYP_dp.in20210311133732//

Checking the input file for inconsistencies... 	...done.

--------------------------------------------------------------
User input:
--------------------------------------------------------------
$molecule
0 1
--
0 1
C    24.26200   28.49400   26.44100  
C    25.11800   29.76700   26.53800  
C    26.59200   29.42300   26.26600  
C    26.76500   28.78000   24.88000  
C    25.91700   27.50200   24.78200  
C    24.44600   27.85700   25.05400  
H    27.17100   30.33800   26.44000  
H    24.86600   30.45900   25.72400  
H    24.63000   27.72600   27.13300  
H    23.18100   28.62400   26.58000  
H    26.38800   29.49200   24.13500  
H    27.81000   28.49500   24.71100  
H    26.01400   27.29000   23.71000  
H    26.28600   26.68800   25.41800  
H    24.22200   28.46700   24.17000  
H    23.91100   26.90800   24.93200  
H    26.92500   28.76100   27.07500  
N    24.84700   30.32300   27.86200  
H    24.83800   29.64900   28.61800  
C    24.85600   31.68200   28.09400  
H    24.79700   32.00500   29.15000  
O    25.00200   32.37700   27.10400  
--
0 1
C    24.18000   24.45500   20.07300  
H    23.70600   24.79100   19.14700  
H    25.26900   24.52200   20.00000  
H    23.86200   23.45100   20.36600  
S    23.79100   25.71300   21.31000  
C    22.09100   25.94500   20.74300  
H    21.39900   25.14500   21.01700  
H    21.66300   26.78800   21.29100  
H    22.13600   26.37600   19.73900  
O    24.62500   26.88700   20.90200  
C    31.55100   28.14400   26.20700  
H    32.22300   28.93400   26.55200  
H    30.53000   28.47500   26.41300  
H    31.76900   27.21500   26.74000  
S    31.54400   27.85400   24.42400  
C    30.73400   29.36200   23.84600  
H    31.38900   30.23700   23.84100  
H    30.37800   29.02900   22.86800  
H    29.87500   29.59100   24.48200  
O    30.43700   26.84800   24.37000  
C    29.82400   34.67900   24.84500  
H    30.20500   35.67800   24.62000  
H    30.48100   34.01700   25.41600  
H    29.67300   34.34900   23.81300  
S    28.30300   34.90300   25.79400  
C    27.75000   33.18300   25.76000  
H    28.04600   32.61100   24.87700  
H    28.16500   32.65300   26.62100  
H    26.66600   33.14200   25.63000  
O    27.30400   35.42400   24.80800  
C    29.38300   31.09100   18.93300  
H    29.89900   30.12800   18.90100  
H    28.35100   30.96900   19.27000  
H    29.19500   31.47800   17.92800  
S    30.42000   32.29800   19.79000  
C    30.30800   31.65200   21.47400  
H    30.80100   30.67700   21.45600  
H    30.77800   32.38700   22.13300  
H    29.22100   31.66300   21.57900  
O    29.50300   33.47700   19.69900  
C    28.58400   34.08000   34.03100  
H    27.88900   33.70800   34.78900  
H    28.61900   33.34000   33.22800  
H    29.54400   34.36900   34.46600  
S    27.95600   35.64500   33.38200  
C    27.61100   36.44400   34.96600  
H    27.15800   37.42700   34.81500  
H    26.92800   35.84300   35.57200  
H    28.55900   36.63600   35.47500  
O    26.64600   35.39600   32.70100  
C    32.74500   32.88400   28.94600  
H    32.06200   32.82900   29.79700  
H    33.76600   32.66400   29.27000  
H    32.72600   33.86900   28.47400  
S    32.13600   31.74500   27.68100  
C    33.45600   32.18300   26.52800  
H    33.55200   31.34100   25.83800  
H    33.14500   33.11600   26.05100  
H    34.33000   32.26600   27.18000  
O    30.92700   32.49900   27.22300  
C    24.06400   24.55300   30.88900  
H    24.67800   24.19600   31.71900  
H    23.19500   25.03200   31.34600  
H    23.72500   23.78400   30.19100  
S    25.02800   25.72800   29.91100  
C    24.10900   25.29800   28.41500  
H    24.23500   24.25200   28.12200  
H    23.07400   25.58900   28.60700  
H    24.58100   25.86900   27.61200  
O    26.31000   24.98200   29.70700  
C    23.99900   23.61800   25.04300  
H    22.98300   23.88300   25.34500  
H    24.55200   23.23600   25.90500  
H    24.52200   24.44300   24.55400  
S    24.02600   22.24500   23.86800  
C    23.77900   20.79000   24.91000  
H    23.40100   20.96200   25.92100  
H    23.18200   20.12100   24.28400  
H    24.74300   20.30800   25.09000  
O    25.43200   22.04600   23.39200  
C    27.65900   27.00700   21.54600  
H    27.41700   27.86100   22.18500  
H    26.86200   26.26200   21.48800  
H    28.56600   26.60100   21.99900  
S    28.19800   27.45400   19.88000  
C    27.56500   25.94700   19.10900  
H    27.56600   25.06500   19.75300  
H    26.59400   26.14500   18.64800  
H    28.28100   25.71400   18.31600  
O    29.67800   27.23000   19.89200  
C    23.17200   34.42100   25.07700  
H    22.73400   34.19100   26.05200  
H    24.05200   33.80900   24.86400  
H    23.44800   35.46800   24.92800  
S    21.87200   34.16700   23.84700  
C    22.45000   35.39800   22.65800  
H    22.58100   36.35100   23.17800  
H    23.44400   35.16900   22.26300  
H    21.75100   35.52700   21.82800  
O    20.70300   34.70700   24.60900  
C    28.53400   26.06400   33.81000  
H    28.49300   25.78200   34.86500  
H    28.66000   25.09400   33.32200  
H    29.41100   26.71300   33.73900  
S    26.96400   26.85100   33.38300  
C    27.16700   28.24400   34.51600  
H    26.16400   28.56100   34.81200  
H    27.69400   27.94600   35.42700  
H    27.75000   29.01600   34.00700  
O    26.02100   25.94800   34.11500  
C    19.11100   27.37200   32.17700  
H    18.36100   28.07800   31.81200  
H    18.63700   26.43500   32.48100  
H    19.55300   27.77700   33.09100  
S    20.35000   27.09700   30.89000  
C    19.16900   26.86500   29.54200  
H    18.67900   25.91500   29.76800  
H    18.40300   27.64300   29.58900  
H    19.61700   26.82100   28.54600  
O    20.72200   25.67300   31.16400  
C    21.08300   25.15700   24.06100  
H    21.17700   24.06900   24.02400  
H    20.31200   25.42200   23.33400  
H    22.07900   25.54200   23.82700  
S    20.48100   25.54400   25.72000  
C    20.17700   27.29100   25.37100  
H    19.36700   27.53500   24.67800  
H    19.92200   27.62800   26.37900  
H    21.09900   27.79500   25.07000  
O    21.75000   25.69600   26.49900  
C    19.58200   30.82900   31.07000  
H    19.31700   29.83400   30.70500  
H    18.77800   31.46800   30.69700  
H    20.55800   31.14100   30.68900  
S    19.67200   30.88000   32.87400  
C    20.47800   32.46600   33.19100  
H    21.44600   32.54000   32.68900  
H    19.78600   33.20000   32.77100  
H    20.53300   32.59900   34.27500  
O    20.72300   29.91200   33.32100  
C    19.22000   23.35200   21.63400  
H    18.32700   22.75100   21.44300  
H    19.26000   23.54900   22.70900  
H    19.22100   24.27400   21.04700  
S    20.67400   22.36200   21.22000  
C    20.33400   20.85200   22.15200  
H    19.86900   21.21400   23.07300  
H    19.58500   20.31500   21.56500  
H    21.28400   20.32800   22.28800  
O    21.86100   23.05400   21.81300  
C    22.83900   29.29600   30.82300  
H    21.98400   29.35500   31.50000  
H    22.86200   30.17600   30.17500  
H    22.77500   28.45700   30.12500  
S    24.36000   29.22200   31.79700  
C    24.26100   30.88000   32.50900  
H    25.06200   30.93200   33.25100  
H    24.43000   31.61100   31.71500  
H    23.27000   30.93400   32.96800  
O    25.34600   29.58700   30.73200  
C    24.68500   33.62500   34.57400  
H    23.89500   33.14300   33.99400  
H    25.62600   33.62500   34.01800  
H    24.91200   33.14100   35.52800  
S    24.10500   35.31800   34.82200  
C    23.42600   35.12100   36.48500  
H    24.27200   35.02200   37.16900  
H    22.84500   35.95500   36.88500  
H    22.94000   34.14700   36.58300  
O    22.94300   35.06600   33.91100  
C    28.58700   20.58000   19.50800  
H    28.44200   20.15900   18.51000  
H    29.64000   20.56200   19.80300  
H    28.01400   19.99400   20.23100  
S    28.11100   22.32300   19.52600  
C    28.09900   22.46100   21.32800  
H    28.86600   21.80700   21.74900  
H    28.27800   23.49100   21.64900  
H    27.11500   22.10800   21.64700  
O    26.72200   22.40200   18.97200  
C    29.56300   25.53100   30.61500  
H    29.99800   25.05700   29.73100  
H    30.18900   25.25000   31.46500  
H    28.50500   25.30200   30.76500  
S    29.91500   27.26800   30.26300  
C    28.38800   27.57200   29.34500  
H    28.49400   28.44000   28.68900  
H    28.13600   26.71500   28.71600  
H    27.58800   27.71800   30.07600  
O    30.92200   27.20900   29.15600  
C    20.70800   29.40400   20.95200  
H    21.01900   28.64100   21.67000  
H    19.62100   29.29400   20.98500  
H    21.20800   29.22600   19.99700  
S    21.36200   30.92800   21.67000  
C    23.14000   30.68100   21.46800  
H    23.36500   29.62100   21.60600  
H    23.37300   30.94500   20.43300  
H    23.65700   31.27200   22.22900  
O    21.18800   30.63500   23.12700  
C    24.25600   38.25800   25.95200  
H    25.22400   38.20400   25.44700  
H    23.76200   37.30200   25.76200  
H    23.71700   39.14200   25.60000  
S    24.71500   38.22100   27.70000  
C    25.47600   36.58500   27.62100  
H    24.75200   35.88500   28.04500  
H    25.62800   36.41700   26.55100  
H    26.38800   36.56700   28.22400  
O    23.45000   37.98800   28.46600  
C    21.50900   20.56800   28.13100  
H    21.57800   21.18900   27.23400  
H    22.23900   19.77900   27.92900  
H    20.47400   20.25100   28.27800  
S    22.28000   21.60800   29.39200  
C    21.22800   23.04800   29.09900  
H    20.23700   22.67300   29.36400  
H    21.56100   23.76000   29.85900  
H    21.27300   23.42600   28.07400  
O    23.53000   21.96300   28.64800  
C    21.60700   30.71400   27.69700  
H    22.10000   29.80600   28.05200  
H    22.24800   31.08000   26.89100  
H    21.76300   31.46400   28.47700  
S    19.90100   30.61100   27.11200  
C    19.50200   32.25700   27.74200  
H    19.15200   32.10600   28.76600  
H    20.28700   33.01500   27.67200  
H    18.78300   32.59200   26.99000  
O    19.35100   29.72300   28.18400  
C    28.74400   23.63400   27.46600  
H    27.87500   24.14200   27.89000  
H    28.31400   22.66300   27.20800  
H    29.56600   23.45100   28.16300  
S    29.55300   24.47300   26.08500  
C    28.12900   24.18700   25.01100  
H    28.47400   24.59200   24.05600  
H    27.75500   23.16100   24.97300  
H    27.44400   24.93900   25.41300  
O    30.42200   23.33400   25.65000  
C    29.04300   31.04700   29.46300  
H    29.87300   30.35500   29.29900  
H    28.09800   30.72100   29.02000  
H    29.32500   31.98700   28.98300  
S    28.99500   31.41400   31.23200  
C    27.50700   32.41000   30.98800  
H    26.92900   32.71700   31.86300  
H    27.70200   33.32300   30.42000  
H    26.76000   31.91700   30.36000  
O    30.06900   32.45300   31.30300  
C    21.91800   34.78300   29.16300  
H    20.84600   34.61800   29.03100  
H    22.07600   35.86000   29.26000  
H    22.41200   34.34400   28.29200  
S    22.52200   34.00900   30.67900  
C    24.21400   34.59400   30.43600  
H    24.61800   34.08900   29.55500  
H    24.24200   35.66200   30.20200  
H    24.72200   34.30500   31.36000  
O    22.56800   32.53800   30.40500  
$end

$rem
JOBTYPE  SP
METHOD  B3LYP
BASIS  6-31+G(D)
SYMMETRY  FALSE
SYM_IGNORE  TRUE
MEM_TOTAL  16000
MEM_STATIC  8000
MAX_SUB_FILE_NUM  16000
BASIS_LIN_DEP_THRESH  6
THRESH  14
SCF_CONVERGENCE  8
GEN_SCFMAN  TRUE
SCF_GUESS  FRAGMO
FD_MAT_VEC_PROD  FALSE
XC_GRID  000075000302
NL_GRID  1
MAX_SCF_CYCLES  200
FRGM_METHOD  STOLL
SCFMI_MODE  1
$end

$development
almo_efield  1
$end

$rem_frgm
SCF_CONVERGENCE  4
$end

--------------------------------------------------------------
 ----------------------------------------------------------------
             Standard Nuclear Orientation (Angstroms)
    I     Atom           X                Y                Z
 ----------------------------------------------------------------
    1      C      24.2620000000    28.4940000000    26.4410000000
    2      C      25.1180000000    29.7670000000    26.5380000000
    3      C      26.5920000000    29.4230000000    26.2660000000
    4      C      26.7650000000    28.7800000000    24.8800000000
    5      C      25.9170000000    27.5020000000    24.7820000000
    6      C      24.4460000000    27.8570000000    25.0540000000
    7      H      27.1710000000    30.3380000000    26.4400000000
    8      H      24.8660000000    30.4590000000    25.7240000000
    9      H      24.6300000000    27.7260000000    27.1330000000
   10      H      23.1810000000    28.6240000000    26.5800000000
   11      H      26.3880000000    29.4920000000    24.1350000000
   12      H      27.8100000000    28.4950000000    24.7110000000
   13      H      26.0140000000    27.2900000000    23.7100000000
   14      H      26.2860000000    26.6880000000    25.4180000000
   15      H      24.2220000000    28.4670000000    24.1700000000
   16      H      23.9110000000    26.9080000000    24.9320000000
   17      H      26.9250000000    28.7610000000    27.0750000000
   18      N      24.8470000000    30.3230000000    27.8620000000
   19      H      24.8380000000    29.6490000000    28.6180000000
   20      C      24.8560000000    31.6820000000    28.0940000000
   21      H      24.7970000000    32.0050000000    29.1500000000
   22      O      25.0020000000    32.3770000000    27.1040000000
   23      C      24.1800000000    24.4550000000    20.0730000000
   24      H      23.7060000000    24.7910000000    19.1470000000
   25      H      25.2690000000    24.5220000000    20.0000000000
   26      H      23.8620000000    23.4510000000    20.3660000000
   27      S      23.7910000000    25.7130000000    21.3100000000
   28      C      22.0910000000    25.9450000000    20.7430000000
   29      H      21.3990000000    25.1450000000    21.0170000000
   30      H      21.6630000000    26.7880000000    21.2910000000
   31      H      22.1360000000    26.3760000000    19.7390000000
   32      O      24.6250000000    26.8870000000    20.9020000000
   33      C      31.5510000000    28.1440000000    26.2070000000
   34      H      32.2230000000    28.9340000000    26.5520000000
   35      H      30.5300000000    28.4750000000    26.4130000000
   36      H      31.7690000000    27.2150000000    26.7400000000
   37      S      31.5440000000    27.8540000000    24.4240000000
   38      C      30.7340000000    29.3620000000    23.8460000000
   39      H      31.3890000000    30.2370000000    23.8410000000
   40      H      30.3780000000    29.0290000000    22.8680000000
   41      H      29.8750000000    29.5910000000    24.4820000000
   42      O      30.4370000000    26.8480000000    24.3700000000
   43      C      29.8240000000    34.6790000000    24.8450000000
   44      H      30.2050000000    35.6780000000    24.6200000000
   45      H      30.4810000000    34.0170000000    25.4160000000
   46      H      29.6730000000    34.3490000000    23.8130000000
   47      S      28.3030000000    34.9030000000    25.7940000000
   48      C      27.7500000000    33.1830000000    25.7600000000
   49      H      28.0460000000    32.6110000000    24.8770000000
   50      H      28.1650000000    32.6530000000    26.6210000000
   51      H      26.6660000000    33.1420000000    25.6300000000
   52      O      27.3040000000    35.4240000000    24.8080000000
   53      C      29.3830000000    31.0910000000    18.9330000000
   54      H      29.8990000000    30.1280000000    18.9010000000
   55      H      28.3510000000    30.9690000000    19.2700000000
   56      H      29.1950000000    31.4780000000    17.9280000000
   57      S      30.4200000000    32.2980000000    19.7900000000
   58      C      30.3080000000    31.6520000000    21.4740000000
   59      H      30.8010000000    30.6770000000    21.4560000000
   60      H      30.7780000000    32.3870000000    22.1330000000
   61      H      29.2210000000    31.6630000000    21.5790000000
   62      O      29.5030000000    33.4770000000    19.6990000000
   63      C      28.5840000000    34.0800000000    34.0310000000
   64      H      27.8890000000    33.7080000000    34.7890000000
   65      H      28.6190000000    33.3400000000    33.2280000000
   66      H      29.5440000000    34.3690000000    34.4660000000
   67      S      27.9560000000    35.6450000000    33.3820000000
   68      C      27.6110000000    36.4440000000    34.9660000000
   69      H      27.1580000000    37.4270000000    34.8150000000
   70      H      26.9280000000    35.8430000000    35.5720000000
   71      H      28.5590000000    36.6360000000    35.4750000000
   72      O      26.6460000000    35.3960000000    32.7010000000
   73      C      32.7450000000    32.8840000000    28.9460000000
   74      H      32.0620000000    32.8290000000    29.7970000000
   75      H      33.7660000000    32.6640000000    29.2700000000
   76      H      32.7260000000    33.8690000000    28.4740000000
   77      S      32.1360000000    31.7450000000    27.6810000000
   78      C      33.4560000000    32.1830000000    26.5280000000
   79      H      33.5520000000    31.3410000000    25.8380000000
   80      H      33.1450000000    33.1160000000    26.0510000000
   81      H      34.3300000000    32.2660000000    27.1800000000
   82      O      30.9270000000    32.4990000000    27.2230000000
   83      C      24.0640000000    24.5530000000    30.8890000000
   84      H      24.6780000000    24.1960000000    31.7190000000
   85      H      23.1950000000    25.0320000000    31.3460000000
   86      H      23.7250000000    23.7840000000    30.1910000000
   87      S      25.0280000000    25.7280000000    29.9110000000
   88      C      24.1090000000    25.2980000000    28.4150000000
   89      H      24.2350000000    24.2520000000    28.1220000000
   90      H      23.0740000000    25.5890000000    28.6070000000
   91      H      24.5810000000    25.8690000000    27.6120000000
   92      O      26.3100000000    24.9820000000    29.7070000000
   93      C      23.9990000000    23.6180000000    25.0430000000
   94      H      22.9830000000    23.8830000000    25.3450000000
   95      H      24.5520000000    23.2360000000    25.9050000000
   96      H      24.5220000000    24.4430000000    24.5540000000
   97      S      24.0260000000    22.2450000000    23.8680000000
   98      C      23.7790000000    20.7900000000    24.9100000000
   99      H      23.4010000000    20.9620000000    25.9210000000
  100      H      23.1820000000    20.1210000000    24.2840000000
  101      H      24.7430000000    20.3080000000    25.0900000000
  102      O      25.4320000000    22.0460000000    23.3920000000
  103      C      27.6590000000    27.0070000000    21.5460000000
  104      H      27.4170000000    27.8610000000    22.1850000000
  105      H      26.8620000000    26.2620000000    21.4880000000
  106      H      28.5660000000    26.6010000000    21.9990000000
  107      S      28.1980000000    27.4540000000    19.8800000000
  108      C      27.5650000000    25.9470000000    19.1090000000
  109      H      27.5660000000    25.0650000000    19.7530000000
  110      H      26.5940000000    26.1450000000    18.6480000000
  111      H      28.2810000000    25.7140000000    18.3160000000
  112      O      29.6780000000    27.2300000000    19.8920000000
  113      C      23.1720000000    34.4210000000    25.0770000000
  114      H      22.7340000000    34.1910000000    26.0520000000
  115      H      24.0520000000    33.8090000000    24.8640000000
  116      H      23.4480000000    35.4680000000    24.9280000000
  117      S      21.8720000000    34.1670000000    23.8470000000
  118      C      22.4500000000    35.3980000000    22.6580000000
  119      H      22.5810000000    36.3510000000    23.1780000000
  120      H      23.4440000000    35.1690000000    22.2630000000
  121      H      21.7510000000    35.5270000000    21.8280000000
  122      O      20.7030000000    34.7070000000    24.6090000000
  123      C      28.5340000000    26.0640000000    33.8100000000
  124      H      28.4930000000    25.7820000000    34.8650000000
  125      H      28.6600000000    25.0940000000    33.3220000000
  126      H      29.4110000000    26.7130000000    33.7390000000
  127      S      26.9640000000    26.8510000000    33.3830000000
  128      C      27.1670000000    28.2440000000    34.5160000000
  129      H      26.1640000000    28.5610000000    34.8120000000
  130      H      27.6940000000    27.9460000000    35.4270000000
  131      H      27.7500000000    29.0160000000    34.0070000000
  132      O      26.0210000000    25.9480000000    34.1150000000
  133      C      19.1110000000    27.3720000000    32.1770000000
  134      H      18.3610000000    28.0780000000    31.8120000000
  135      H      18.6370000000    26.4350000000    32.4810000000
  136      H      19.5530000000    27.7770000000    33.0910000000
  137      S      20.3500000000    27.0970000000    30.8900000000
  138      C      19.1690000000    26.8650000000    29.5420000000
  139      H      18.6790000000    25.9150000000    29.7680000000
  140      H      18.4030000000    27.6430000000    29.5890000000
  141      H      19.6170000000    26.8210000000    28.5460000000
  142      O      20.7220000000    25.6730000000    31.1640000000
  143      C      21.0830000000    25.1570000000    24.0610000000
  144      H      21.1770000000    24.0690000000    24.0240000000
  145      H      20.3120000000    25.4220000000    23.3340000000
  146      H      22.0790000000    25.5420000000    23.8270000000
  147      S      20.4810000000    25.5440000000    25.7200000000
  148      C      20.1770000000    27.2910000000    25.3710000000
  149      H      19.3670000000    27.5350000000    24.6780000000
  150      H      19.9220000000    27.6280000000    26.3790000000
  151      H      21.0990000000    27.7950000000    25.0700000000
  152      O      21.7500000000    25.6960000000    26.4990000000
  153      C      19.5820000000    30.8290000000    31.0700000000
  154      H      19.3170000000    29.8340000000    30.7050000000
  155      H      18.7780000000    31.4680000000    30.6970000000
  156      H      20.5580000000    31.1410000000    30.6890000000
  157      S      19.6720000000    30.8800000000    32.8740000000
  158      C      20.4780000000    32.4660000000    33.1910000000
  159      H      21.4460000000    32.5400000000    32.6890000000
  160      H      19.7860000000    33.2000000000    32.7710000000
  161      H      20.5330000000    32.5990000000    34.2750000000
  162      O      20.7230000000    29.9120000000    33.3210000000
  163      C      19.2200000000    23.3520000000    21.6340000000
  164      H      18.3270000000    22.7510000000    21.4430000000
  165      H      19.2600000000    23.5490000000    22.7090000000
  166      H      19.2210000000    24.2740000000    21.0470000000
  167      S      20.6740000000    22.3620000000    21.2200000000
  168      C      20.3340000000    20.8520000000    22.1520000000
  169      H      19.8690000000    21.2140000000    23.0730000000
  170      H      19.5850000000    20.3150000000    21.5650000000
  171      H      21.2840000000    20.3280000000    22.2880000000
  172      O      21.8610000000    23.0540000000    21.8130000000
  173      C      22.8390000000    29.2960000000    30.8230000000
  174      H      21.9840000000    29.3550000000    31.5000000000
  175      H      22.8620000000    30.1760000000    30.1750000000
  176      H      22.7750000000    28.4570000000    30.1250000000
  177      S      24.3600000000    29.2220000000    31.7970000000
  178      C      24.2610000000    30.8800000000    32.5090000000
  179      H      25.0620000000    30.9320000000    33.2510000000
  180      H      24.4300000000    31.6110000000    31.7150000000
  181      H      23.2700000000    30.9340000000    32.9680000000
  182      O      25.3460000000    29.5870000000    30.7320000000
  183      C      24.6850000000    33.6250000000    34.5740000000
  184      H      23.8950000000    33.1430000000    33.9940000000
  185      H      25.6260000000    33.6250000000    34.0180000000
  186      H      24.9120000000    33.1410000000    35.5280000000
  187      S      24.1050000000    35.3180000000    34.8220000000
  188      C      23.4260000000    35.1210000000    36.4850000000
  189      H      24.2720000000    35.0220000000    37.1690000000
  190      H      22.8450000000    35.9550000000    36.8850000000
  191      H      22.9400000000    34.1470000000    36.5830000000
  192      O      22.9430000000    35.0660000000    33.9110000000
  193      C      28.5870000000    20.5800000000    19.5080000000
  194      H      28.4420000000    20.1590000000    18.5100000000
  195      H      29.6400000000    20.5620000000    19.8030000000
  196      H      28.0140000000    19.9940000000    20.2310000000
  197      S      28.1110000000    22.3230000000    19.5260000000
  198      C      28.0990000000    22.4610000000    21.3280000000
  199      H      28.8660000000    21.8070000000    21.7490000000
  200      H      28.2780000000    23.4910000000    21.6490000000
  201      H      27.1150000000    22.1080000000    21.6470000000
  202      O      26.7220000000    22.4020000000    18.9720000000
  203      C      29.5630000000    25.5310000000    30.6150000000
  204      H      29.9980000000    25.0570000000    29.7310000000
  205      H      30.1890000000    25.2500000000    31.4650000000
  206      H      28.5050000000    25.3020000000    30.7650000000
  207      S      29.9150000000    27.2680000000    30.2630000000
  208      C      28.3880000000    27.5720000000    29.3450000000
  209      H      28.4940000000    28.4400000000    28.6890000000
  210      H      28.1360000000    26.7150000000    28.7160000000
  211      H      27.5880000000    27.7180000000    30.0760000000
  212      O      30.9220000000    27.2090000000    29.1560000000
  213      C      20.7080000000    29.4040000000    20.9520000000
  214      H      21.0190000000    28.6410000000    21.6700000000
  215      H      19.6210000000    29.2940000000    20.9850000000
  216      H      21.2080000000    29.2260000000    19.9970000000
  217      S      21.3620000000    30.9280000000    21.6700000000
  218      C      23.1400000000    30.6810000000    21.4680000000
  219      H      23.3650000000    29.6210000000    21.6060000000
  220      H      23.3730000000    30.9450000000    20.4330000000
  221      H      23.6570000000    31.2720000000    22.2290000000
  222      O      21.1880000000    30.6350000000    23.1270000000
  223      C      24.2560000000    38.2580000000    25.9520000000
  224      H      25.2240000000    38.2040000000    25.4470000000
  225      H      23.7620000000    37.3020000000    25.7620000000
  226      H      23.7170000000    39.1420000000    25.6000000000
  227      S      24.7150000000    38.2210000000    27.7000000000
  228      C      25.4760000000    36.5850000000    27.6210000000
  229      H      24.7520000000    35.8850000000    28.0450000000
  230      H      25.6280000000    36.4170000000    26.5510000000
  231      H      26.3880000000    36.5670000000    28.2240000000
  232      O      23.4500000000    37.9880000000    28.4660000000
  233      C      21.5090000000    20.5680000000    28.1310000000
  234      H      21.5780000000    21.1890000000    27.2340000000
  235      H      22.2390000000    19.7790000000    27.9290000000
  236      H      20.4740000000    20.2510000000    28.2780000000
  237      S      22.2800000000    21.6080000000    29.3920000000
  238      C      21.2280000000    23.0480000000    29.0990000000
  239      H      20.2370000000    22.6730000000    29.3640000000
  240      H      21.5610000000    23.7600000000    29.8590000000
  241      H      21.2730000000    23.4260000000    28.0740000000
  242      O      23.5300000000    21.9630000000    28.6480000000
  243      C      21.6070000000    30.7140000000    27.6970000000
  244      H      22.1000000000    29.8060000000    28.0520000000
  245      H      22.2480000000    31.0800000000    26.8910000000
  246      H      21.7630000000    31.4640000000    28.4770000000
  247      S      19.9010000000    30.6110000000    27.1120000000
  248      C      19.5020000000    32.2570000000    27.7420000000
  249      H      19.1520000000    32.1060000000    28.7660000000
  250      H      20.2870000000    33.0150000000    27.6720000000
  251      H      18.7830000000    32.5920000000    26.9900000000
  252      O      19.3510000000    29.7230000000    28.1840000000
  253      C      28.7440000000    23.6340000000    27.4660000000
  254      H      27.8750000000    24.1420000000    27.8900000000
  255      H      28.3140000000    22.6630000000    27.2080000000
  256      H      29.5660000000    23.4510000000    28.1630000000
  257      S      29.5530000000    24.4730000000    26.0850000000
  258      C      28.1290000000    24.1870000000    25.0110000000
  259      H      28.4740000000    24.5920000000    24.0560000000
  260      H      27.7550000000    23.1610000000    24.9730000000
  261      H      27.4440000000    24.9390000000    25.4130000000
  262      O      30.4220000000    23.3340000000    25.6500000000
  263      C      29.0430000000    31.0470000000    29.4630000000
  264      H      29.8730000000    30.3550000000    29.2990000000
  265      H      28.0980000000    30.7210000000    29.0200000000
  266      H      29.3250000000    31.9870000000    28.9830000000
  267      S      28.9950000000    31.4140000000    31.2320000000
  268      C      27.5070000000    32.4100000000    30.9880000000
  269      H      26.9290000000    32.7170000000    31.8630000000
  270      H      27.7020000000    33.3230000000    30.4200000000
  271      H      26.7600000000    31.9170000000    30.3600000000
  272      O      30.0690000000    32.4530000000    31.3030000000
  273      C      21.9180000000    34.7830000000    29.1630000000
  274      H      20.8460000000    34.6180000000    29.0310000000
  275      H      22.0760000000    35.8600000000    29.2600000000
  276      H      22.4120000000    34.3440000000    28.2920000000
  277      S      22.5220000000    34.0090000000    30.6790000000
  278      C      24.2140000000    34.5940000000    30.4360000000
  279      H      24.6180000000    34.0890000000    29.5550000000
  280      H      24.2420000000    35.6620000000    30.2020000000
  281      H      24.7220000000    34.3050000000    31.3600000000
  282      O      22.5680000000    32.5380000000    30.4050000000
 ----------------------------------------------------------------
 Nuclear Repulsion Energy =       44876.67709282 hartrees
 There are      581 alpha and      581 beta electrons
 Requested basis set is 6-31+G(d)
 There are 929 shells and 2589 basis functions

 Total QAlloc Memory Limit  16000 MB
 Mega-Array Size      7821 MB
 MEM_STATIC part      8000 MB
 A cutoff of  1.0D-14 yielded 165389 shell pairs
 There are   1430747 function pairs
 Smallest overlap matrix eigenvalue = 6.26E-07
 Linear dependence detected in AO basis
 Tighter screening thresholds may be required for diffuse basis sets
 Use S2THRESH > 14 and THRESH = 14 in case of SCF convergence issues
 Number of orthogonalized atomic orbitals = 2587
 Maximum deviation from orthogonality = 1.003E-10

 Scale SEOQF with 1.000000e-03/1.000000e-03/1.000000e-03

 Standard Electronic Orientation quadrupole field applied
 Nucleus-field energy     =     0.0000000524 hartrees
Attempting to make child job directory: /local/scratch/users/ymao/r7.00_frame_0093_almo_B3LYP_dp.in20210311133732//Frg1/
Attempting to make child job directory: /local/scratch/users/ymao/r7.00_frame_0093_almo_B3LYP_dp.in20210311133732//Frg2/
Creating input file /local/scratch/users/ymao/r7.00_frame_0093_almo_B3LYP_dp.in20210311133732/Frg1.input
using default PutDataFrgm: nothing
calling putenv with: QCSCRATCH=/local/scratch/users/ymao/r7.00_frame_0093_almo_B3LYP_dp.in20210311133732/ 
Spawning Job For Fragment 0
Done Job For Fragment 0
calling putenv with: QCSCRATCH=/local/scratch/users/ymao 
calling putenv with: QCTHREADS=8 
Creating input file /local/scratch/users/ymao/r7.00_frame_0093_almo_B3LYP_dp.in20210311133732/Frg2.input
using default PutDataFrgm: nothing
calling putenv with: QCSCRATCH=/local/scratch/users/ymao/r7.00_frame_0093_almo_B3LYP_dp.in20210311133732/ 
Spawning Job For Fragment 1
Done Job For Fragment 1
calling putenv with: QCSCRATCH=/local/scratch/users/ymao 
calling putenv with: QCTHREADS=8 
 Time for running child jobs:  CPU 1.15 s  wall 21476.09 s

 -----------------------------------------------------------------------
  General SCF calculation program by
  Eric Jon Sundstrom, Paul Horn, Yuezhi Mao, Dmitri Zuev, Alec White,
  David Stuck, Shaama M.S., Shane Yost, Joonho Lee, David Small,
  Daniel Levine, Susi Lehtola, Hugh Burton, Evgeny Epifanovsky,
  Bang C. Huynh
 -----------------------------------------------------------------------
Performing Restricted Closed Shell SCFMI
Doing General SCFMI
 Exchange:     0.2000 Hartree-Fock + 0.0800 Slater + 0.7200 B88
 Correlation:  0.1900 VWN1RPA + 0.8100 LYP
 Using Euler-Maclaurin-Lebedev (75,302) quadrature formula
performing fock build before subrot guess so that all methods have access
Printing subrot_rss_gen Method Specification:
Occupied Subspace Method is 0
Virtual Subspace Method is 0
Energy prior to optimization (guess energy) = -14787.462400855169
Begin Timing: Total SCF Calculation
begin iterations for algorithm: DIIS         
the SCF tolerance is set to 1.00e-08
    1  -14787.4624008552      3.38e-05     00000 
    2  -14787.4669979527      3.35e-05     00000 
    3  -14787.4692209345      1.86e-05     00000 
    4  -14787.4699687769      6.22e-06     00000 
    5  -14787.4700743583      2.55e-06     00000 
    6  -14787.4700938590      1.38e-06     00000 
    7  -14787.4700987530      1.07e-06     00000 
    8  -14787.4701013451      5.87e-07     00000 
    9  -14787.4701020748      3.16e-07     00000 
   10  -14787.4701022576      1.93e-07     00000 
   11  -14787.4701023261      1.31e-07     00000 
   12  -14787.4701023626      8.22e-08     00000 
   13  -14787.4701023786      4.05e-08     00000 
   14  -14787.4701023829      2.12e-08     00000 
   15  -14787.4701023837      1.37e-08     00000 
   16  -14787.4701023842      8.85e-09     00000 Convergence criterion met
write pseudocanon occs and virts to disk
write pseudocanon orbital energies to disk
Timing for Total SCF: 45598.00s (wall), 361921.76s (cpu)
SCFMI Energy  -14787.4701023842
<S^2>            0.00000
 Total energy in the final basis set =   -14787.4701023842
    ==================================================
        The end of Object-Oriented SCFman: SCFMI      
    ==================================================
 
 --------------------------------------------------------------
 
                    Orbital Energies (a.u.)
 --------------------------------------------------------------
 
 Alpha MOs
 -- Occupied --
-89.0259 -89.0179 -89.0122 -89.0074 -89.0073 -89.0056 -89.0031 -89.0007
-88.9997 -88.9968 -88.9957 -88.9951 -88.9949 -88.9933 -88.9922 -88.9880
-88.9863 -88.9854 -88.9851 -88.9829 -88.9824 -88.9808 -88.9764 -88.9758
-88.9745 -88.9536 -19.1460 -19.1323 -19.1283 -19.1257 -19.1239 -19.1233
-19.1217 -19.1164 -19.1123 -19.1120 -19.1090 -19.1083 -19.1068 -19.1059
-19.1032 -19.1026 -19.1025 -19.1019 -19.1017 -19.1006 -19.0964 -19.0963
-19.0958 -19.0936 -19.0915 -19.0902 -19.0587 -14.3510 -10.2857 -10.2581
-10.2559 -10.2372 -10.2334 -10.2314 -10.2290 -10.2288 -10.2266 -10.2232
-10.2209 -10.2207 -10.2197 -10.2197 -10.2187 -10.2184 -10.2148 -10.2147
-10.2126 -10.2110 -10.2110 -10.2107 -10.2100 -10.2087 -10.2086 -10.2083
-10.2081 -10.2078 -10.2076 -10.2073 -10.2066 -10.2052 -10.2039 -10.2033
-10.2030 -10.2024 -10.2023 -10.2020 -10.2000 -10.1987 -10.1979 -10.1945
-10.1934 -10.1929 -10.1925 -10.1910 -10.1898 -10.1894 -10.1893 -10.1853
-10.1829 -10.1814 -10.1803 -10.1792 -10.1764 -10.1748 -10.1727 -10.1719
-10.1633  -8.0725  -8.0638  -8.0584  -8.0539  -8.0534  -8.0508  -8.0496
 -8.0473  -8.0450  -8.0427  -8.0413  -8.0411  -8.0410  -8.0400  -8.0382
 -8.0339  -8.0330  -8.0319  -8.0316  -8.0290  -8.0285  -8.0272  -8.0229
 -8.0223  -8.0204  -7.9994  -6.0370  -6.0358  -6.0293  -6.0279  -6.0268
 -6.0229  -6.0215  -6.0215  -6.0183  -6.0175  -6.0168  -6.0165  -6.0154
 -6.0151  -6.0138  -6.0138  -6.0128  -6.0115  -6.0114  -6.0109  -6.0103
 -6.0091  -6.0086  -6.0082  -6.0070  -6.0068  -6.0058  -6.0057  -6.0056
 -6.0054  -6.0048  -6.0045  -6.0043  -6.0039  -6.0039  -6.0031  -6.0025
 -6.0025  -6.0012  -6.0002  -5.9987  -5.9986  -5.9983  -5.9982  -5.9974
 -5.9970  -5.9970  -5.9961  -5.9960  -5.9959  -5.9956  -5.9951  -5.9948
 -5.9932  -5.9928  -5.9923  -5.9916  -5.9915  -5.9915  -5.9906  -5.9903
 -5.9892  -5.9888  -5.9874  -5.9866  -5.9864  -5.9861  -5.9860  -5.9854
 -5.9848  -5.9839  -5.9832  -5.9801  -5.9799  -5.9782  -5.9635  -5.9624
 -5.9571  -1.0550  -1.0452  -1.0421  -1.0383  -1.0366  -1.0322  -1.0288
 -1.0266  -1.0265  -1.0260  -1.0235  -1.0225  -1.0220  -1.0215  -1.0175
 -1.0165  -1.0107  -1.0105  -1.0093  -1.0088  -1.0076  -1.0067  -1.0063
 -1.0040  -1.0012  -1.0009  -0.9737  -0.9126  -0.8403  -0.8242  -0.8210
 -0.8140  -0.8109  -0.8022  -0.8006  -0.7999  -0.7997  -0.7994  -0.7966
 -0.7961  -0.7960  -0.7953  -0.7914  -0.7908  -0.7888  -0.7874  -0.7870
 -0.7857  -0.7842  -0.7806  -0.7791  -0.7776  -0.7750  -0.7734  -0.7693
 -0.7515  -0.7469  -0.7406  -0.7399  -0.7396  -0.7385  -0.7369  -0.7310
 -0.7294  -0.7282  -0.7264  -0.7234  -0.7220  -0.7206  -0.7198  -0.7189
 -0.7172  -0.7167  -0.7150  -0.7146  -0.7143  -0.7135  -0.7092  -0.7057
 -0.7051  -0.7014  -0.6909  -0.6795  -0.6417  -0.6313  -0.6275  -0.6268
 -0.6252  -0.6197  -0.6183  -0.6182  -0.6174  -0.6147  -0.6131  -0.6130
 -0.6092  -0.6090  -0.6073  -0.6037  -0.6027  -0.6016  -0.6009  -0.6001
 -0.5983  -0.5977  -0.5952  -0.5916  -0.5901  -0.5890  -0.5845  -0.5807
 -0.5670  -0.5608  -0.5300  -0.5179  -0.5079  -0.5052  -0.4983  -0.4909
 -0.4908  -0.4906  -0.4876  -0.4849  -0.4844  -0.4837  -0.4836  -0.4830
 -0.4828  -0.4818  -0.4811  -0.4805  -0.4793  -0.4779  -0.4774  -0.4762
 -0.4758  -0.4753  -0.4742  -0.4734  -0.4727  -0.4718  -0.4714  -0.4712
 -0.4705  -0.4695  -0.4693  -0.4685  -0.4674  -0.4666  -0.4660  -0.4658
 -0.4652  -0.4643  -0.4642  -0.4639  -0.4635  -0.4632  -0.4620  -0.4607
 -0.4603  -0.4589  -0.4584  -0.4579  -0.4577  -0.4570  -0.4564  -0.4562
 -0.4558  -0.4550  -0.4547  -0.4538  -0.4531  -0.4528  -0.4521  -0.4517
 -0.4508  -0.4500  -0.4497  -0.4496  -0.4486  -0.4483  -0.4480  -0.4476
 -0.4467  -0.4463  -0.4457  -0.4453  -0.4451  -0.4425  -0.4416  -0.4408
 -0.4402  -0.4392  -0.4388  -0.4385  -0.4384  -0.4381  -0.4379  -0.4371
 -0.4355  -0.4344  -0.4325  -0.4320  -0.4311  -0.4274  -0.4273  -0.4263
 -0.4257  -0.4251  -0.4245  -0.4244  -0.4232  -0.4214  -0.4212  -0.4203
 -0.4199  -0.4176  -0.4174  -0.4161  -0.4159  -0.4156  -0.4150  -0.4134
 -0.4111  -0.4104  -0.4101  -0.4101  -0.4096  -0.4092  -0.4090  -0.4084
 -0.4082  -0.4080  -0.4071  -0.4066  -0.4064  -0.4053  -0.4043  -0.4037
 -0.4025  -0.4004  -0.3998  -0.3988  -0.3976  -0.3975  -0.3971  -0.3966
 -0.3955  -0.3950  -0.3945  -0.3935  -0.3932  -0.3929  -0.3925  -0.3923
 -0.3918  -0.3912  -0.3906  -0.3904  -0.3900  -0.3896  -0.3882  -0.3875
 -0.3872  -0.3850  -0.3847  -0.3842  -0.3815  -0.3797  -0.3787  -0.3785
 -0.3777  -0.3769  -0.3755  -0.3743  -0.3711  -0.3703  -0.3697  -0.3673
 -0.3659  -0.3651  -0.3648  -0.3634  -0.3629  -0.3614  -0.3610  -0.3608
 -0.3593  -0.3567  -0.3554  -0.3544  -0.3535  -0.3515  -0.3490  -0.3483
 -0.3478  -0.3469  -0.3460  -0.3454  -0.3448  -0.3436  -0.3397  -0.3392
 -0.3375  -0.3368  -0.3349  -0.3257  -0.3163  -0.3106  -0.3036  -0.2979
 -0.2952  -0.2878  -0.2848  -0.2843  -0.2824  -0.2764  -0.2758  -0.2723
 -0.2718  -0.2681  -0.2672  -0.2667  -0.2664  -0.2652  -0.2641  -0.2632
 -0.2630  -0.2627  -0.2618  -0.2611  -0.2599  -0.2591  -0.2569  -0.2561
 -0.2540  -0.2522  -0.2521  -0.2512  -0.2481  -0.2476  -0.2473  -0.2435
 -0.2429  -0.2412  -0.2399  -0.2387  -0.2378  -0.2375  -0.2363  -0.2322
 -0.2299  -0.2284  -0.2258  -0.2254  -0.2229  -0.2220  -0.2214  -0.2198
 -0.2184  -0.2177  -0.2160  -0.2139  -0.1934
 -- Virtual --
 -0.0407  -0.0292  -0.0279  -0.0194  -0.0190  -0.0163  -0.0152  -0.0141
 -0.0140  -0.0106  -0.0099  -0.0093  -0.0065  -0.0059  -0.0050  -0.0033
 -0.0020  -0.0014  -0.0008   0.0006   0.0013   0.0018   0.0031   0.0038
  0.0044   0.0046   0.0049   0.0067   0.0077   0.0083   0.0085   0.0091
  0.0095   0.0097   0.0109   0.0109   0.0117   0.0127   0.0142   0.0148
  0.0152   0.0154   0.0166   0.0169   0.0171   0.0182   0.0192   0.0195
  0.0199   0.0203   0.0216   0.0220   0.0223   0.0230   0.0239   0.0245
  0.0248   0.0255   0.0267   0.0269   0.0280   0.0293   0.0295   0.0300
  0.0304   0.0310   0.0318   0.0326   0.0333   0.0337   0.0341   0.0353
  0.0359   0.0366   0.0376   0.0389   0.0391   0.0401   0.0407   0.0413
  0.0419   0.0421   0.0432   0.0435   0.0444   0.0445   0.0452   0.0460
  0.0461   0.0475   0.0480   0.0481   0.0487   0.0497   0.0506   0.0509
  0.0516   0.0522   0.0526   0.0528   0.0541   0.0551   0.0553   0.0560
  0.0572   0.0579   0.0586   0.0588   0.0592   0.0599   0.0616   0.0617
  0.0625   0.0629   0.0635   0.0646   0.0648   0.0649   0.0660   0.0664
  0.0671   0.0679   0.0681   0.0682   0.0687   0.0698   0.0712   0.0716
  0.0724   0.0725   0.0734   0.0743   0.0749   0.0757   0.0760   0.0771
  0.0773   0.0780   0.0784   0.0795   0.0800   0.0809   0.0817   0.0822
  0.0825   0.0837   0.0839   0.0847   0.0850   0.0862   0.0865   0.0874
  0.0877   0.0885   0.0892   0.0897   0.0908   0.0913   0.0922   0.0928
  0.0931   0.0934   0.0941   0.0951   0.0960   0.0965   0.0969   0.0971
  0.0977   0.0990   0.0998   0.1004   0.1005   0.1010   0.1017   0.1023
  0.1027   0.1034   0.1045   0.1052   0.1057   0.1063   0.1064   0.1073
  0.1086   0.1096   0.1098   0.1105   0.1107   0.1121   0.1130   0.1132
  0.1134   0.1143   0.1152   0.1163   0.1169   0.1175   0.1179   0.1191
  0.1199   0.1208   0.1212   0.1221   0.1226   0.1231   0.1232   0.1255
  0.1257   0.1261   0.1265   0.1271   0.1273   0.1278   0.1287   0.1299
  0.1306   0.1315   0.1321   0.1329   0.1331   0.1339   0.1342   0.1349
  0.1358   0.1363   0.1368   0.1375   0.1379   0.1384   0.1387   0.1399
  0.1403   0.1406   0.1411   0.1420   0.1428   0.1434   0.1437   0.1450
  0.1457   0.1463   0.1472   0.1474   0.1479   0.1486   0.1496   0.1503
  0.1508   0.1515   0.1518   0.1523   0.1531   0.1538   0.1540   0.1544
  0.1551   0.1567   0.1577   0.1578   0.1580   0.1584   0.1592   0.1596
  0.1600   0.1611   0.1620   0.1624   0.1629   0.1631   0.1636   0.1645
  0.1651   0.1658   0.1660   0.1664   0.1673   0.1678   0.1684   0.1692
  0.1694   0.1701   0.1711   0.1714   0.1722   0.1728   0.1733   0.1739
  0.1748   0.1750   0.1760   0.1764   0.1776   0.1784   0.1790   0.1792
  0.1799   0.1803   0.1804   0.1813   0.1821   0.1822   0.1828   0.1834
  0.1843   0.1854   0.1860   0.1865   0.1875   0.1882   0.1885   0.1891
  0.1898   0.1901   0.1903   0.1913   0.1920   0.1922   0.1934   0.1937
  0.1947   0.1953   0.1955   0.1962   0.1970   0.1972   0.1980   0.1990
  0.1996   0.2009   0.2018   0.2022   0.2028   0.2029   0.2039   0.2041
  0.2047   0.2049   0.2056   0.2061   0.2072   0.2078   0.2082   0.2090
  0.2098   0.2101   0.2117   0.2122   0.2128   0.2135   0.2141   0.2142
  0.2149   0.2152   0.2159   0.2164   0.2169   0.2177   0.2187   0.2190
  0.2198   0.2204   0.2209   0.2213   0.2217   0.2221   0.2229   0.2236
  0.2240   0.2247   0.2252   0.2268   0.2270   0.2272   0.2278   0.2284
  0.2297   0.2299   0.2302   0.2319   0.2325   0.2328   0.2339   0.2346
  0.2350   0.2358   0.2363   0.2365   0.2375   0.2382   0.2389   0.2394
  0.2402   0.2410   0.2416   0.2426   0.2428   0.2433   0.2441   0.2449
  0.2456   0.2469   0.2471   0.2480   0.2486   0.2494   0.2506   0.2511
  0.2512   0.2524   0.2534   0.2545   0.2551   0.2554   0.2561   0.2572
  0.2577   0.2588   0.2591   0.2598   0.2601   0.2613   0.2616   0.2633
  0.2634   0.2638   0.2645   0.2652   0.2655   0.2660   0.2671   0.2674
  0.2681   0.2687   0.2695   0.2702   0.2706   0.2719   0.2728   0.2734
  0.2738   0.2745   0.2754   0.2764   0.2771   0.2779   0.2790   0.2792
  0.2797   0.2800   0.2813   0.2820   0.2832   0.2840   0.2849   0.2851
  0.2867   0.2871   0.2875   0.2885   0.2889   0.2893   0.2905   0.2915
  0.2924   0.2932   0.2942   0.2951   0.2959   0.2966   0.2975   0.2978
  0.2993   0.3000   0.3007   0.3014   0.3025   0.3038   0.3044   0.3053
  0.3060   0.3065   0.3081   0.3085   0.3095   0.3109   0.3111   0.3131
  0.3138   0.3144   0.3151   0.3165   0.3166   0.3176   0.3177   0.3196
  0.3199   0.3208   0.3210   0.3219   0.3237   0.3254   0.3258   0.3263
  0.3275   0.3276   0.3287   0.3290   0.3300   0.3304   0.3312   0.3328
  0.3335   0.3341   0.3358   0.3363   0.3371   0.3390   0.3393   0.3404
  0.3409   0.3413   0.3428   0.3433   0.3448   0.3456   0.3463   0.3465
  0.3474   0.3497   0.3502   0.3509   0.3514   0.3527   0.3532   0.3534
  0.3542   0.3550   0.3559   0.3570   0.3573   0.3585   0.3594   0.3604
  0.3614   0.3629   0.3638   0.3641   0.3653   0.3659   0.3668   0.3677
  0.3685   0.3691   0.3706   0.3719   0.3729   0.3735   0.3751   0.3755
  0.3760   0.3773   0.3774   0.3794   0.3804   0.3812   0.3827   0.3846
  0.3848   0.3862   0.3872   0.3876   0.3884   0.3886   0.3893   0.3900
  0.3907   0.3913   0.3924   0.3934   0.3938   0.3951   0.3964   0.3973
  0.3991   0.3993   0.3996   0.4003   0.4011   0.4017   0.4031   0.4038
  0.4052   0.4060   0.4069   0.4071   0.4093   0.4097   0.4104   0.4118
  0.4127   0.4138   0.4144   0.4153   0.4171   0.4176   0.4183   0.4189
  0.4196   0.4202   0.4209   0.4219   0.4232   0.4243   0.4252   0.4260
  0.4270   0.4274   0.4283   0.4294   0.4306   0.4316   0.4329   0.4335
  0.4347   0.4352   0.4371   0.4376   0.4385   0.4389   0.4403   0.4417
  0.4426   0.4433   0.4446   0.4454   0.4462   0.4473   0.4488   0.4496
  0.4515   0.4525   0.4534   0.4553   0.4563   0.4567   0.4573   0.4601
  0.4632   0.4643   0.4652   0.4666   0.4674   0.4677   0.4694   0.4706
  0.4728   0.4744   0.4753   0.4757   0.4760   0.4772   0.4782   0.4801
  0.4809   0.4820   0.4839   0.4859   0.4869   0.4881   0.4893   0.4911
  0.4939   0.4945   0.4959   0.4982   0.4986   0.4999   0.5011   0.5031
  0.5042   0.5044   0.5060   0.5087   0.5103   0.5120   0.5125   0.5150
  0.5165   0.5174   0.5196   0.5207   0.5226   0.5239   0.5244   0.5267
  0.5283   0.5302   0.5311   0.5329   0.5334   0.5365   0.5379   0.5384
  0.5405   0.5434   0.5445   0.5455   0.5479   0.5485   0.5518   0.5531
  0.5537   0.5554   0.5572   0.5582   0.5612   0.5615   0.5637   0.5645
  0.5660   0.5670   0.5691   0.5700   0.5708   0.5729   0.5749   0.5755
  0.5770   0.5788   0.5799   0.5803   0.5819   0.5822   0.5856   0.5862
  0.5886   0.5908   0.5920   0.5926   0.5952   0.5977   0.5983   0.5987
  0.5997   0.6015   0.6029   0.6034   0.6046   0.6051   0.6077   0.6092
  0.6109   0.6132   0.6148   0.6156   0.6175   0.6180   0.6191   0.6199
  0.6214   0.6233   0.6240   0.6247   0.6259   0.6267   0.6279   0.6284
  0.6306   0.6318   0.6336   0.6339   0.6348   0.6358   0.6377   0.6385
  0.6392   0.6409   0.6411   0.6423   0.6442   0.6448   0.6450   0.6469
  0.6477   0.6485   0.6492   0.6517   0.6532   0.6538   0.6573   0.6580
  0.6589   0.6594   0.6614   0.6622   0.6640   0.6645   0.6659   0.6666
  0.6674   0.6689   0.6701   0.6713   0.6717   0.6738   0.6743   0.6755
  0.6765   0.6775   0.6781   0.6801   0.6812   0.6824   0.6828   0.6842
  0.6866   0.6873   0.6886   0.6897   0.6909   0.6915   0.6938   0.6947
  0.6953   0.6961   0.6978   0.6994   0.7002   0.7003   0.7009   0.7028
  0.7045   0.7059   0.7071   0.7077   0.7087   0.7118   0.7131   0.7136
  0.7144   0.7167   0.7171   0.7181   0.7185   0.7208   0.7223   0.7233
  0.7253   0.7257   0.7269   0.7290   0.7299   0.7313   0.7324   0.7326
  0.7349   0.7363   0.7379   0.7387   0.7403   0.7420   0.7429   0.7452
  0.7471   0.7474   0.7509   0.7518   0.7537   0.7557   0.7571   0.7588
  0.7621   0.7630   0.7648   0.7661   0.7677   0.7707   0.7720   0.7726
  0.7752   0.7768   0.7778   0.7789   0.7803   0.7816   0.7825   0.7848
  0.7861   0.7873   0.7877   0.7888   0.7910   0.7939   0.7948   0.7951
  0.7975   0.7983   0.8000   0.8005   0.8052   0.8069   0.8072   0.8076
  0.8111   0.8125   0.8136   0.8147   0.8156   0.8178   0.8200   0.8201
  0.8225   0.8228   0.8239   0.8248   0.8264   0.8279   0.8283   0.8311
  0.8318   0.8334   0.8342   0.8358   0.8375   0.8386   0.8392   0.8403
  0.8422   0.8425   0.8457   0.8469   0.8481   0.8490   0.8500   0.8507
  0.8513   0.8535   0.8548   0.8556   0.8581   0.8603   0.8614   0.8627
  0.8647   0.8651   0.8665   0.8687   0.8701   0.8708   0.8716   0.8747
  0.8760   0.8771   0.8790   0.8794   0.8815   0.8823   0.8835   0.8855
  0.8857   0.8860   0.8881   0.8891   0.8916   0.8927   0.8945   0.8951
  0.8955   0.8964   0.8983   0.8986   0.8995   0.9010   0.9021   0.9039
  0.9041   0.9053   0.9068   0.9087   0.9089   0.9095   0.9121   0.9124
  0.9141   0.9143   0.9159   0.9169   0.9173   0.9207   0.9224   0.9244
  0.9253   0.9271   0.9279   0.9284   0.9300   0.9308   0.9331   0.9339
  0.9345   0.9370   0.9379   0.9383   0.9408   0.9410   0.9418   0.9426
  0.9444   0.9464   0.9468   0.9472   0.9488   0.9509   0.9512   0.9529
  0.9550   0.9556   0.9572   0.9578   0.9581   0.9592   0.9603   0.9617
  0.9628   0.9649   0.9654   0.9665   0.9669   0.9678   0.9691   0.9700
  0.9709   0.9729   0.9734   0.9742   0.9758   0.9767   0.9777   0.9789
  0.9804   0.9806   0.9819   0.9830   0.9835   0.9843   0.9854   0.9867
  0.9882   0.9892   0.9906   0.9924   0.9934   0.9943   0.9953   0.9964
  0.9977   0.9985   0.9993   1.0013   1.0026   1.0028   1.0032   1.0048
  1.0061   1.0077   1.0094   1.0099   1.0105   1.0118   1.0129   1.0146
  1.0158   1.0172   1.0175   1.0186   1.0192   1.0202   1.0207   1.0220
  1.0243   1.0255   1.0260   1.0264   1.0277   1.0293   1.0309   1.0313
  1.0331   1.0348   1.0360   1.0362   1.0376   1.0394   1.0399   1.0405
  1.0422   1.0433   1.0445   1.0451   1.0464   1.0484   1.0491   1.0510
  1.0514   1.0528   1.0549   1.0558   1.0574   1.0585   1.0594   1.0616
  1.0626   1.0640   1.0652   1.0664   1.0689   1.0695   1.0703   1.0725
  1.0755   1.0765   1.0787   1.0795   1.0806   1.0823   1.0844   1.0855
  1.0865   1.0894   1.0915   1.0923   1.0928   1.0951   1.0966   1.0973
  1.0999   1.1016   1.1030   1.1037   1.1046   1.1062   1.1064   1.1107
  1.1111   1.1124   1.1152   1.1159   1.1182   1.1184   1.1193   1.1216
  1.1231   1.1254   1.1258   1.1279   1.1290   1.1292   1.1311   1.1324
  1.1339   1.1354   1.1360   1.1364   1.1378   1.1393   1.1402   1.1421
  1.1436   1.1449   1.1454   1.1465   1.1467   1.1491   1.1512   1.1520
  1.1535   1.1541   1.1559   1.1573   1.1586   1.1592   1.1612   1.1621
  1.1632   1.1644   1.1667   1.1683   1.1701   1.1705   1.1722   1.1734
  1.1754   1.1771   1.1780   1.1789   1.1795   1.1818   1.1827   1.1838
  1.1848   1.1862   1.1879   1.1891   1.1905   1.1920   1.1927   1.1954
  1.1958   1.1983   1.1992   1.2004   1.2025   1.2044   1.2049   1.2072
  1.2087   1.2132   1.2138   1.2142   1.2178   1.2201   1.2218   1.2232
  1.2246   1.2268   1.2282   1.2293   1.2331   1.2357   1.2391   1.2397
  1.2412   1.2435   1.2450   1.2472   1.2479   1.2496   1.2541   1.2571
  1.2592   1.2610   1.2632   1.2648   1.2657   1.2675   1.2701   1.2733
  1.2772   1.2781   1.2793   1.2839   1.2850   1.2852   1.2876   1.2906
  1.2921   1.2938   1.2957   1.2974   1.3003   1.3038   1.3052   1.3078
  1.3113   1.3123   1.3137   1.3188   1.3199   1.3207   1.3223   1.3244
  1.3272   1.3304   1.3327   1.3358   1.3370   1.3383   1.3404   1.3415
  1.3429   1.3451   1.3475   1.3489   1.3497   1.3532   1.3541   1.3563
  1.3590   1.3624   1.3635   1.3657   1.3673   1.3682   1.3700   1.3704
  1.3716   1.3733   1.3754   1.3770   1.3785   1.3799   1.3810   1.3826
  1.3841   1.3859   1.3876   1.3895   1.3915   1.3936   1.3944   1.3954
  1.3957   1.3982   1.3994   1.4011   1.4041   1.4055   1.4069   1.4076
  1.4100   1.4110   1.4123   1.4125   1.4161   1.4178   1.4184   1.4201
  1.4212   1.4232   1.4237   1.4254   1.4268   1.4289   1.4304   1.4318
  1.4345   1.4362   1.4367   1.4383   1.4398   1.4425   1.4442   1.4444
  1.4468   1.4475   1.4489   1.4513   1.4524   1.4535   1.4561   1.4570
  1.4586   1.4600   1.4620   1.4625   1.4669   1.4677   1.4701   1.4704
  1.4719   1.4727   1.4773   1.4794   1.4814   1.4817   1.4843   1.4852
  1.4871   1.4900   1.4914   1.4950   1.4963   1.4994   1.5015   1.5024
  1.5059   1.5074   1.5084   1.5090   1.5129   1.5151   1.5176   1.5211
  1.5234   1.5244   1.5268   1.5277   1.5297   1.5303   1.5350   1.5398
  1.5407   1.5411   1.5423   1.5476   1.5503   1.5541   1.5558   1.5599
  1.5630   1.5666   1.5710   1.5745   1.5754   1.5769   1.5799   1.5831
  1.5871   1.5895   1.5940   1.5963   1.5993   1.6036   1.6049   1.6115
  1.6186   1.6191   1.6246   1.6280   1.6315   1.6373   1.6411   1.6442
  1.6467   1.6495   1.6507   1.6522   1.6546   1.6568   1.6583   1.6600
  1.6629   1.6637   1.6687   1.6706   1.6729   1.6742   1.6791   1.6797
  1.6811   1.6821   1.6845   1.6871   1.6876   1.6898   1.6907   1.6921
  1.6936   1.6959   1.6967   1.6983   1.6988   1.6999   1.7004   1.7035
  1.7048   1.7051   1.7064   1.7071   1.7087   1.7106   1.7119   1.7124
  1.7137   1.7147   1.7156   1.7158   1.7178   1.7180   1.7207   1.7215
  1.7230   1.7241   1.7261   1.7281   1.7292   1.7295   1.7311   1.7331
  1.7343   1.7355   1.7361   1.7374   1.7393   1.7400   1.7413   1.7430
  1.7445   1.7464   1.7472   1.7489   1.7504   1.7523   1.7527   1.7539
  1.7549   1.7552   1.7572   1.7585   1.7590   1.7609   1.7616   1.7627
  1.7651   1.7655   1.7673   1.7679   1.7701   1.7719   1.7723   1.7730
  1.7743   1.7782   1.7809   1.7825   1.7835   1.7861   1.7866   1.7906
  1.7936   1.7945   1.7985   1.8001   1.8011   1.8033   1.8063   1.8091
  1.8100   1.8118   1.8147   1.8170   1.8197   1.8201   1.8218   1.8252
  1.8264   1.8294   1.8302   1.8344   1.8355   1.8385   1.8413   1.8469
  1.8486   1.8510   1.8546   1.8580   1.8624   1.8638   1.8665   1.8684
  1.8701   1.8743   1.8766   1.8770   1.8793   1.8829   1.8846   1.8860
  1.8873   1.8878   1.8894   1.8911   1.8919   1.8926   1.8941   1.8948
  1.8971   1.8982   1.9004   1.9017   1.9028   1.9034   1.9055   1.9060
  1.9082   1.9091   1.9098   1.9109   1.9118   1.9127   1.9135   1.9147
  1.9152   1.9171   1.9181   1.9193   1.9208   1.9215   1.9231   1.9236
  1.9250   1.9279   1.9315   1.9337   1.9356   1.9372   1.9378   1.9404
  1.9431   1.9439   1.9451   1.9477   1.9504   1.9522   1.9542   1.9556
  1.9605   1.9609   1.9658   1.9707   1.9740   1.9770   1.9808   1.9839
  1.9858   1.9911   1.9937   1.9958   2.0112   2.0129   2.0209   2.0329
  2.0410   2.0460   2.0475   2.0502   2.0529   2.0564   2.0578   2.0597
  2.0601   2.0647   2.0658   2.0660   2.0678   2.0687   2.0708   2.0716
  2.0734   2.0745   2.0748   2.0767   2.0776   2.0783   2.0789   2.0810
  2.0823   2.0830   2.0839   2.0848   2.0871   2.0895   2.0904   2.0919
  2.0935   2.0942   2.0965   2.0973   2.0982   2.0991   2.0996   2.1013
  2.1030   2.1046   2.1064   2.1084   2.1108   2.1126   2.1160   2.1168
  2.1179   2.1206   2.1217   2.1260   2.1261   2.1280   2.1291   2.1322
  2.1349   2.1413   2.1424   2.1459   2.1517   2.1542   2.1638   2.1643
  2.1703   2.1753   2.1758   2.1778   2.1800   2.1826   2.1830   2.1840
  2.1862   2.1934   2.1998   2.2048   2.2055   2.2102   2.2121   2.2125
  2.2143   2.2165   2.2173   2.2191   2.2208   2.2248   2.2271   2.2289
  2.2293   2.2307   2.2318   2.2340   2.2348   2.2360   2.2368   2.2384
  2.2397   2.2408   2.2413   2.2425   2.2432   2.2446   2.2450   2.2465
  2.2472   2.2526   2.2539   2.2549   2.2553   2.2575   2.2579   2.2588
  2.2601   2.2614   2.2619   2.2632   2.2635   2.2642   2.2647   2.2659
  2.2664   2.2675   2.2683   2.2701   2.2706   2.2718   2.2724   2.2730
  2.2740   2.2749   2.2775   2.2779   2.2792   2.2809   2.2815   2.2832
  2.2838   2.2849   2.2853   2.2858   2.2869   2.2880   2.2892   2.2903
  2.2909   2.2919   2.2932   2.2934   2.2946   2.2964   2.2971   2.2981
  2.2988   2.2995   2.3011   2.3020   2.3029   2.3036   2.3048   2.3052
  2.3076   2.3081   2.3106   2.3118   2.3122   2.3137   2.3157   2.3157
  2.3158   2.3170   2.3203   2.3240   2.3243   2.3266   2.3275   2.3290
  2.3304   2.3318   2.3323   2.3336   2.3337   2.3348   2.3358   2.3374
  2.3385   2.3389   2.3420   2.3440   2.3443   2.3492   2.3511   2.3525
  2.3540   2.3542   2.3572   2.3582   2.3596   2.3608   2.3638   2.3646
  2.3657   2.3690   2.3698   2.3739   2.3773   2.3783   2.3795   2.3818
  2.3825   2.3842   2.3868   2.3882   2.3897   2.3918   2.3959   2.3999
  2.4001   2.4043   2.4068   2.4099   2.4206   2.4253   2.4313   2.4379
  2.4465   2.4559   2.4654   2.4703   2.4932   2.5437   2.5776   2.6102
  2.6579   2.7139   2.7464   2.7941   2.8141   2.8221   2.8255   2.8403
  2.8416   2.8432   2.8441   2.8460   2.8495   2.8540   2.8550   2.8556
  2.8569   2.8600   2.8604   2.8624   2.8632   2.8672   2.8692   2.8736
  2.8753   2.8771   2.8786   2.8809   2.8831   2.8866   2.8988   2.9097
  2.9118   2.9154   2.9691   3.1120   3.2503   3.9547   3.9557   3.9571
  3.9664   3.9689   3.9726   3.9739   3.9754   3.9794   3.9814   3.9854
  3.9873   3.9880   3.9889   3.9963   3.9978   3.9998   4.0069   4.0084
  4.0094   4.0126   4.0198   4.0242   4.0261   4.0321   4.0459   4.1898
  4.2134   4.2283   4.2397   4.2402   4.2447   4.2476   4.2527   4.2565
  4.2581   4.2585   4.2592   4.2630   4.2640   4.2660   4.2692   4.2742
  4.2758   4.2820   4.2828   4.2855   4.2862   4.2887   4.2923   4.2947
  4.2971   4.3004   4.3021   4.3076   4.3082   4.3099   4.3120   4.3158
  4.3162   4.3201   4.3229   4.3259   4.3274   4.3304   4.3350   4.3362
  4.3380   4.3405   4.3422   4.3463   4.3502   4.3544   4.3549   4.3585
  4.3606   4.3618   4.3655   4.3733   4.3746   4.3751   4.3816   4.3858
  4.3880   4.3942   4.4032   4.4046   4.4080   4.4114   4.4144   4.4237
  4.4263   4.4359   4.4404   4.4488   4.4492   4.4630   4.4685   4.4724
  4.4873   4.4927   4.5017   4.5137   4.5273   4.5466   4.5811   4.6409
  4.6427   4.7025   4.7182   4.7696   4.7838   4.9693
 --------------------------------------------------------------
 
          Ground-State Mulliken Net Atomic Charges

     Atom                 Charge (a.u.)
  ----------------------------------------
      1 C                    -0.217505
      2 C                    -0.352307
      3 C                    -0.246961
      4 C                    -0.473237
      5 C                    -0.384404
      6 C                    -0.507868
      7 H                     0.207230
      8 H                     0.231802
      9 H                     0.180658
     10 H                     0.200433
     11 H                     0.194058
     12 H                     0.222272
     13 H                     0.208759
     14 H                     0.183574
     15 H                     0.203994
     16 H                     0.208271
     17 H                     0.197239
     18 N                    -0.500637
     19 H                     0.483656
     20 C                     0.294455
     21 H                     0.176104
     22 O                    -0.509586
     23 C                    -0.817871
     24 H                     0.228787
     25 H                     0.265688
     26 H                     0.300351
     27 S                     0.878132
     28 C                    -0.886860
     29 H                     0.232362
     30 H                     0.228007
     31 H                     0.246997
     32 O                    -0.688275
     33 C                    -0.622289
     34 H                     0.209319
     35 H                     0.242996
     36 H                     0.302644
     37 S                     0.675542
     38 C                    -0.755248
     39 H                     0.223755
     40 H                     0.260670
     41 H                     0.256622
     42 O                    -0.721852
     43 C                    -1.158929
     44 H                     0.240416
     45 H                     0.284969
     46 H                     0.265270
     47 S                     1.276417
     48 C                    -0.886755
     49 H                     0.242588
     50 H                     0.245626
     51 H                     0.298597
     52 O                    -0.779273
     53 C                    -0.827723
     54 H                     0.254274
     55 H                     0.255161
     56 H                     0.253178
     57 S                     0.764367
     58 C                    -0.732762
     59 H                     0.233227
     60 H                     0.241932
     61 H                     0.250241
     62 O                    -0.719996
     63 C                    -0.781558
     64 H                     0.233457
     65 H                     0.267097
     66 H                     0.239778
     67 S                     0.922835
     68 C                    -0.850752
     69 H                     0.268987
     70 H                     0.234601
     71 H                     0.236661
     72 O                    -0.736890
     73 C                    -0.878696
     74 H                     0.316451
     75 H                     0.227559
     76 H                     0.252457
     77 S                     0.960797
     78 C                    -0.838345
     79 H                     0.240923
     80 H                     0.268248
     81 H                     0.233324
     82 O                    -0.725269
     83 C                    -1.092348
     84 H                     0.275754
     85 H                     0.292737
     86 H                     0.228397
     87 S                     1.109399
     88 C                    -1.017473
     89 H                     0.317805
     90 H                     0.281131
     91 H                     0.228093
     92 O                    -0.729208
     93 C                    -0.787206
     94 H                     0.247282
     95 H                     0.273151
     96 H                     0.277187
     97 S                     0.851662
     98 C                    -0.976641
     99 H                     0.258107
    100 H                     0.218638
    101 H                     0.287561
    102 O                    -0.660574
    103 C                    -0.928157
    104 H                     0.241310
    105 H                     0.263615
    106 H                     0.303735
    107 S                     1.060644
    108 C                    -0.999068
    109 H                     0.228493
    110 H                     0.252530
    111 H                     0.262518
    112 O                    -0.746688
    113 C                    -0.741780
    114 H                     0.245171
    115 H                     0.265876
    116 H                     0.205237
    117 S                     0.865181
    118 C                    -0.892647
    119 H                     0.244843
    120 H                     0.256429
    121 H                     0.252036
    122 O                    -0.709694
    123 C                    -1.067359
    124 H                     0.269646
    125 H                     0.263582
    126 H                     0.244045
    127 S                     1.208780
    128 C                    -0.987716
    129 H                     0.260242
    130 H                     0.249741
    131 H                     0.241040
    132 O                    -0.718574
    133 C                    -0.853017
    134 H                     0.220515
    135 H                     0.264667
    136 H                     0.307866
    137 S                     0.744615
    138 C                    -0.807951
    139 H                     0.258777
    140 H                     0.252936
    141 H                     0.249603
    142 O                    -0.744142
    143 C                    -0.944568
    144 H                     0.272417
    145 H                     0.217477
    146 H                     0.314960
    147 S                     0.804797
    148 C                    -0.846851
    149 H                     0.238281
    150 H                     0.260888
    151 H                     0.299532
    152 O                    -0.698504
    153 C                    -0.791659
    154 H                     0.292750
    155 H                     0.238608
    156 H                     0.316302
    157 S                     0.590422
    158 C                    -0.788988
    159 H                     0.277019
    160 H                     0.233791
    161 H                     0.256795
    162 O                    -0.699597
    163 C                    -0.802487
    164 H                     0.244611
    165 H                     0.249497
    166 H                     0.256056
    167 S                     0.841159
    168 C                    -0.796668
    169 H                     0.240429
    170 H                     0.248636
    171 H                     0.269007
    172 O                    -0.684225
    173 C                    -1.136861
    174 H                     0.296168
    175 H                     0.298203
    176 H                     0.255270
    177 S                     1.113934
    178 C                    -0.872105
    179 H                     0.239790
    180 H                     0.313552
    181 H                     0.278294
    182 O                    -0.776687
    183 C                    -1.070539
    184 H                     0.304502
    185 H                     0.265359
    186 H                     0.220616
    187 S                     1.276365
    188 C                    -0.927548
    189 H                     0.227902
    190 H                     0.254790
    191 H                     0.258557
    192 O                    -0.753992
    193 C                    -0.961185
    194 H                     0.248723
    195 H                     0.238518
    196 H                     0.255545
    197 S                     0.944576
    198 C                    -0.807639
    199 H                     0.243792
    200 H                     0.246079
    201 H                     0.317496
    202 O                    -0.685654
    203 C                    -0.962430
    204 H                     0.268781
    205 H                     0.234240
    206 H                     0.310075
    207 S                     0.970555
    208 C                    -0.911889
    209 H                     0.243855
    210 H                     0.295903
    211 H                     0.285248
    212 O                    -0.712224
    213 C                    -0.821309
    214 H                     0.252885
    215 H                     0.257200
    216 H                     0.237660
    217 S                     0.902747
    218 C                    -0.822062
    219 H                     0.279710
    220 H                     0.234085
    221 H                     0.264292
    222 O                    -0.741831
    223 C                    -0.879717
    224 H                     0.253622
    225 H                     0.244605
    226 H                     0.247677
    227 S                     1.051175
    228 C                    -0.982948
    229 H                     0.263369
    230 H                     0.284879
    231 H                     0.253263
    232 O                    -0.737861
    233 C                    -0.823194
    234 H                     0.239024
    235 H                     0.259313
    236 H                     0.227869
    237 S                     0.840686
    238 C                    -0.789255
    239 H                     0.221717
    240 H                     0.305743
    241 H                     0.271013
    242 O                    -0.714955
    243 C                    -1.168316
    244 H                     0.269520
    245 H                     0.275054
    246 H                     0.307438
    247 S                     1.488100
    248 C                    -1.035285
    249 H                     0.251370
    250 H                     0.258686
    251 H                     0.256049
    252 O                    -0.748389
    253 C                    -0.918461
    254 H                     0.278627
    255 H                     0.252311
    256 H                     0.224631
    257 S                     1.003548
    258 C                    -0.832018
    259 H                     0.252623
    260 H                     0.279233
    261 H                     0.202011
    262 O                    -0.737323
    263 C                    -1.181077
    264 H                     0.261093
    265 H                     0.267125
    266 H                     0.318056
    267 S                     0.973125
    268 C                    -0.889128
    269 H                     0.249746
    270 H                     0.293798
    271 H                     0.274412
    272 O                    -0.685754
    273 C                    -0.863154
    274 H                     0.243301
    275 H                     0.304871
    276 H                     0.246420
    277 S                     0.861173
    278 C                    -0.898190
    279 H                     0.264634
    280 H                     0.280892
    281 H                     0.287397
    282 O                    -0.707672
  ----------------------------------------
  Sum of atomic charges =     0.000000

 -----------------------------------------------------------------
                    Cartesian Multipole Moments
 -----------------------------------------------------------------
    Charge (ESU x 10^10)
                 0.0000
    Dipole Moment (Debye)
         X     -11.5062      Y      -0.3215      Z       6.1869
       Tot      13.0680
    Quadrupole Moments (Debye-Ang)
        XX   -1427.3987     XY    -179.7646     YY    -934.5504
        XZ     -32.0258     YZ     278.4844     ZZ    -522.5984
    Octopole Moments (Debye-Ang^2)
       XXX  -86301.5809    XXY  -33621.7103    XYY  -24326.1030
       YYY  -81487.2391    XXZ  -28469.4661    XYZ    5792.2229
       YYZ  -13677.1717    XZZ  -15249.0946    YZZ   -9009.5180
       ZZZ  -54754.0355
    Hexadecapole Moments (Debye-Ang^3)
      XXXX ************   XXXY ************   XXYY ************
      XYYY ************   YYYY ************   XXXZ ************
      XXYZ -558637.6912   XYYZ -266092.1660   YYYZ ************
      XXZZ ************   XYZZ -178150.2339   YYZZ -780078.0866
      XZZZ ************   YZZZ ************   ZZZZ ************
 -----------------------------------------------------------------
Archival summary:
[...]
    2  -0.0151672   0.0320397  -0.0569445   0.0088996   0.0325488  -0.0117718
    3  -0.0077877   0.0087143  -0.0238748  -0.0038675   0.0121007  -0.0148363
          121         122         123         124         125         126
    1  -0.0228511  -0.0893019   0.0065019  -0.0122502   0.0015559   0.0272242
    2   0.0027208   0.0373446  -0.0052536  -0.0063441  -0.0219626   0.0177513
    3  -0.0225056   0.0561213   0.0053308   0.0325322  -0.0227000  -0.0120028
          127         128         129         130         131         132
    1  -0.0062803   0.0006923  -0.0289869   0.0126409   0.0130025  -0.0706990
    2   0.0148100   0.0039625   0.0111549  -0.0120149   0.0288411  -0.0669996
    3  -0.0536071   0.0046883   0.0048448   0.0255835  -0.0133357   0.0522349
          133         134         135         136         137         138
    1  -0.0047481  -0.0261877  -0.0095287   0.0212301   0.0362478  -0.0075989
    2   0.0008985   0.0191486  -0.0323031   0.0173337   0.0431210  -0.0012801
    3   0.0094435  -0.0040985  -0.0010069   0.0208938  -0.0076656  -0.0047196
          139         140         141         142         143         144
    1  -0.0100891  -0.0191764   0.0178755   0.0269926   0.0052276   0.0093660
    2  -0.0307572   0.0255723   0.0039662  -0.1035049  -0.0047858  -0.0304418
    3   0.0064112  -0.0114204  -0.0221293   0.0211301  -0.0055767  -0.0106273
          145         146         147         148         149         150
    1  -0.0162405   0.0262601  -0.0405625   0.0003925  -0.0248080  -0.0098378
    2   0.0122428   0.0184833  -0.0244927   0.0100440   0.0071559   0.0260638
    3  -0.0246000  -0.0000351   0.0105235   0.0026855  -0.0183924   0.0254612
          151         152         153         154         155         156
    1   0.0294320   0.0947122   0.0057772  -0.0001187  -0.0222968   0.0273291
    2   0.0102359   0.0124297  -0.0013388  -0.0255296   0.0210998   0.0072227
    3  -0.0069771   0.0586434  -0.0114535  -0.0123864  -0.0079550  -0.0172179
          157         158         159         160         161         162
    1  -0.0539629   0.0060257   0.0271582  -0.0133010   0.0058092   0.0755778
    2   0.0015766   0.0072585  -0.0002483   0.0338139   0.0044208  -0.0710993
    3   0.0238501  -0.0015679  -0.0115110  -0.0080722   0.0283649   0.0365667
          163         164         165         166         167         168
    1  -0.0052811  -0.0304267  -0.0015612  -0.0020795  -0.0000309  -0.0019060
    2   0.0023254  -0.0123230   0.0113764   0.0243852  -0.0139060  -0.0037837
    3   0.0055284  -0.0090681   0.0294903  -0.0163573  -0.0641490   0.0053217
          169         170         171         172         173         174
    1  -0.0080452  -0.0177945   0.0233699   0.0901982  -0.0071829  -0.0241362
    2  -0.0041315  -0.0257682  -0.0169242   0.0481166   0.0044434  -0.0017585
    3   0.0365060  -0.0143994   0.0055739   0.0408679  -0.0069242   0.0172312
          175         176         177         178         179         180
    1   0.0136185   0.0045850   0.0009884  -0.0040550   0.0203487  -0.0025509
    2   0.0313761  -0.0278907  -0.0361308   0.0065556   0.0043931   0.0118742
    3  -0.0094014  -0.0127905   0.0291654  -0.0023793   0.0211010  -0.0307485
          181         182         183         184         185         186
    1  -0.0272266   0.0682671   0.0025202  -0.0238239   0.0211054   0.0011447
    2   0.0110408   0.0279080  -0.0098941  -0.0089945   0.0051829  -0.0233356
    3   0.0153377  -0.0880606  -0.0034750  -0.0109212  -0.0249638   0.0275887
          187         188         189         190         191         192
    1   0.0358565  -0.0023385   0.0287184  -0.0232297  -0.0268539  -0.0838333
    2   0.0377242  -0.0043686  -0.0004413   0.0236709  -0.0232995  -0.0201283
    3  -0.0070519   0.0064021   0.0253429   0.0008223  -0.0029871  -0.0681731
          193         194         195         196         197         198
    1   0.0005537  -0.0033418   0.0327178  -0.0206542   0.0466000  -0.0061478
    2  -0.0072985  -0.0096313  -0.0072717  -0.0165722   0.0336638  -0.0012567
    3   0.0008271  -0.0289631   0.0047230   0.0202962  -0.0227014   0.0113237
          199         200         201         202         203         204
    1   0.0225182   0.0039558  -0.0309489  -0.1003103  -0.0027113   0.0054392
    2  -0.0154448   0.0270224  -0.0057242   0.0070968  -0.0099000  -0.0178520
    3   0.0185647   0.0116100   0.0192684  -0.0437297  -0.0027503  -0.0254165
          205         206         207         208         209         210
    1   0.0154220  -0.0336475   0.0006607  -0.0128974   0.0023496  -0.0090400
    2  -0.0132198  -0.0095399   0.0312903  -0.0011147   0.0241032  -0.0268628
    3   0.0246015  -0.0032280   0.0433198  -0.0045980  -0.0145942  -0.0143290
          211         212         213         214         215         216
    1  -0.0343166   0.0731592   0.0020321   0.0156355  -0.0324068   0.0053408
    2   0.0090705  -0.0037015  -0.0088836  -0.0199360   0.0110485  -0.0117230
    3   0.0135705  -0.0801962   0.0006620   0.0218430  -0.0078595  -0.0332664
          217         218         219         220         221         222
    1  -0.0183007   0.0076297   0.0135137   0.0199714   0.0131996  -0.0138186
    2   0.0475543  -0.0065894  -0.0329411   0.0104510   0.0161909  -0.0204818
    3  -0.0225584  -0.0017183   0.0072213  -0.0286517   0.0174741   0.1077956
          223         224         225         226         227         228
    1  -0.0007364   0.0267279  -0.0258998  -0.0198729   0.0373963   0.0014740
    2  -0.0015042   0.0027777  -0.0171913   0.0240294   0.0422713  -0.0048793
    3  -0.0070820  -0.0265650  -0.0090323  -0.0029130   0.0144372  -0.0013496
          229         230         231         232         233         234
    1  -0.0214484   0.0190916   0.0294138  -0.0929258   0.0002958  -0.0013129
    2  -0.0134622  -0.0181122  -0.0004627  -0.0129016  -0.0014316   0.0185859
    3   0.0096287  -0.0252676   0.0144738   0.0582847  -0.0070047  -0.0265338
          235         236         237         238         239         240
    1   0.0142720  -0.0284519  -0.0047765  -0.0022184  -0.0376942  -0.0045402
    2  -0.0298490  -0.0145071  -0.0143526   0.0092236   0.0046533   0.0334644
    3  -0.0008495   0.0083682   0.0495849   0.0019835   0.0085473   0.0154559
          241         242         243         244         245         246
    1   0.0090561   0.0936258   0.0117197   0.0022786   0.0190669  -0.0011353
    2   0.0140303   0.0262097   0.0017549  -0.0391882   0.0051121   0.0171758
    3  -0.0260908  -0.0519069   0.0068097   0.0082600  -0.0269120   0.0331952
          247         248         249         250         251         252
    1  -0.0036683  -0.0040066  -0.0145062   0.0246930  -0.0346672  -0.0391520
    2  -0.0064591   0.0072269  -0.0032088   0.0142908   0.0200768  -0.0668488
    3  -0.0524423   0.0015683   0.0236479  -0.0011291  -0.0077647   0.0775485
          253         254         255         256         257         258
    1  -0.0056974  -0.0212252  -0.0006135   0.0157650   0.0091611  -0.0025841
    2  -0.0025546   0.0239169  -0.0305790  -0.0071609   0.0478588   0.0019110
    3   0.0061379   0.0250658  -0.0183029   0.0264643   0.0075576  -0.0041999
          259         260         261         262         263         264
    1   0.0047519  -0.0071049  -0.0396416   0.0640064   0.0011532   0.0195889
    2   0.0052749  -0.0279353   0.0188093  -0.0832631   0.0005903  -0.0239483
    3  -0.0319421  -0.0009997   0.0044454  -0.0325660  -0.0104726  -0.0097269
          265         266         267         268         269         270
    1  -0.0276572   0.0116658  -0.0087669  -0.0130928  -0.0107226   0.0189654
    2  -0.0187808   0.0259151  -0.0439972   0.0050257   0.0071188   0.0259793
    3  -0.0066782  -0.0125976   0.0302346  -0.0042706   0.0286192  -0.0088246
          271         272         273         274         275         276
    1  -0.0267708   0.0782848  -0.0036340  -0.0324270   0.0056914   0.0151010
    2  -0.0308218   0.0750780   0.0055620  -0.0032655   0.0350795  -0.0084374
    3  -0.0139306   0.0062035  -0.0049047   0.0013768  -0.0060062  -0.0191666
          277         278         279         280         281         282
    1  -0.0240605   0.0091543   0.0137529   0.0018012   0.0261710   0.0067595
    2   0.0276179  -0.0008880  -0.0273859   0.0328491   0.0020976  -0.1090189
    3   0.0495006   0.0031304  -0.0164034   0.0094081   0.0224607  -0.0165488
  --- DONE ESP SUMMARY ---
Archival summary:
1\1\n0076.mhg0\SP\ProcedureUnspecified\6-31+G*\262652h22\ymao\FriMar1210:09:082021FriMar1210:09:082021\0\\#,ProcedureUnspecified,6-31+G*,\\0,1\S\O,1,1.49654\C,1,1.80713,2,95.3194\H,3,1.09241,1,108.608,2,30.6324,0\H,3,1.0931,1,105.721,2,-87.8205,0\H,3,1.09347,1,105.09,2,153.406,0\C,1,1.80765,2,99.2616,3,98.4001,0\H,7,1.09217,1,109.082,2,-162.819,0\H,7,1.09308,1,109.553,2,-42.4776,0\H,7,1.09326,1,111.214,2,71.8345,0\Gh,2,2.17506,1,123.006,3,-110.578,0\Gh,11,1.01286,2,137.931,1,121.662,0\Gh,12,1.37869,11,122.032,2,-20.8815,0\Gh,13,1.10587,12,116.631,11,-3.24308,0\Gh,13,1.21838,12,115.235,11,172.932,0\Gh,12,1.46135,11,115.132,2,147.419,0\Gh,16,1.09771,12,112.919,11,165.028,0\Gh,16,1.5371,12,105.605,11,44.3803,0\Gh,18,1.09732,16,110.676,12,-67.9798,0\Gh,18,1.09763,16,116.256,12,57.7099,0\Gh,18,1.53733,16,109.478,12,178.177,0\Gh,21,1.09623,18,113.622,16,176.49,0\Gh,21,1.09715,18,118.172,16,-56.9424,0\Gh,21,1.53748,18,111.703,16,58.8023,0\Gh,24,1.09693,21,112.993,18,68.0427,0\Gh,24,1.09706,21,107.583,18,-166.311,0\Gh,24,1.53688,21,108.943,18,-58.7348,0\Gh,27,1.09627,24,107.455,21,178.403,0\Gh,27,1.09731,24,107.86,21,-59.4214,0\Gh,27,1.53765,24,110.068,21,57.6754,0\Gh,30,1.0967,27,115.626,24,179.177,0\Gh,30,1.09709,27,112.222,24,61.3392,0\H,19,1.91841,18,145.728,16,-164.778,0\C,33,1.09254,19,134.464,18,-105.228,0\H,34,1.09214,33,113.539,19,44.1388,0\H,34,1.09355,33,104.667,19,169.421,0\S,34,1.80762,33,105.326,19,-71.2059,0\O,37,1.49722,34,101.773,33,-73.7888,0\C,37,1.80732,34,91.2615,33,-176.239,0\H,39,1.0924,37,108.894,34,151.302,0\H,39,1.09245,37,111.444,34,-92.3434,0\H,39,1.09247,37,106.106,34,26.4342,0\H,25,2.09762,24,143.424,21,137.967,0\C,43,1.09377,25,156.908,24,8.80615,0\H,44,1.0927,43,116.359,25,-121.884,0\H,44,1.09319,43,105.308,25,7.01627,0\S,44,1.80639,43,99.5742,25,112.623,0\O,47,1.49723,44,99.4598,43,173.274,0\C,47,1.80709,44,91.6014,43,75.5065,0\H,49,1.09225,47,115.906,44,-68.1285,0\H,49,1.09284,47,114.095,44,48.6696,0\H,49,1.09315,47,103.2,44,164.761,0\H,14,2.13052,13,118.145,12,-174.213,0\C,53,1.09289,14,129.515,13,156.606,0\H,54,1.09333,53,112.791,14,57.3771,0\H,54,1.09369,53,105.622,14,-175.863,0\S,54,1.80669,53,107.758,14,-56.403,0\O,57,1.49701,54,105.354,53,40.9415,0\C,57,1.80614,54,93.5278,53,-66.8464,0\H,59,1.09263,57,111.395,54,-178.58,0\H,59,1.09284,57,107.426,54,-61.0475,0\H,59,1.09334,57,110.212,54,63.2528,0\H,26,2.14944,24,134.4,21,134.493,0\C,63,1.09371,26,110.58,24,137.788,0\H,64,1.09211,63,103.397,26,-94.2568,0\H,64,1.09252,63,113.707,26,27.4049,0\S,64,1.80718,63,114.297,26,154.449,0\O,67,1.4969,64,104.506,63,104.966,0\C,67,1.80726,64,94.7362,63,-150.286,0\H,69,1.09209,67,114.933,64,-30.5916,0\H,69,1.09296,67,109.88,64,98.6281,0\H,69,1.09352,67,104.934,64,-145.109,0\H,60,2.17462,59,116.041,57,-99.2497,0\C,73,1.09348,60,130.959,59,139.184,0\H,74,1.09265,73,112.69,60,-20.0912,0\H,74,1.09302,73,102.459,60,108.314,0\S,74,1.80705,73,116.782,60,-142.827,0\O,77,1.49674,74,102.098,73,135.865,0\C,77,1.80645,74,92.5038,73,36.5528,0\H,79,1.09249,77,118.948,74,145.708,0\H,79,1.09292,77,109.521,74,-94.0788,0\H,79,1.09327,77,113.886,74,19.7406,0\H,75,2.06777,74,167.359,73,-97.7171,0\C,83,1.09264,75,111.478,74,19.2707,0\H,84,1.09246,83,103.892,75,-85.2357,0\H,84,1.0932,83,111.781,75,34.6493,0\S,84,1.80696,83,111.159,75,154.372,0\O,87,1.49714,84,108.348,83,175.967,0\C,87,1.80708,84,102.834,83,-76.9468,0\H,89,1.09271,87,103.866,84,61.6466,0\H,89,1.09293,87,111.956,84,-56.7681,0\H,89,1.09351,87,107.642,84,177.525,0\H,42,2.18945,39,114.286,37,-112.715,0\C,93,1.09336,42,114.429,39,175.142,0\H,94,1.09221,93,109.346,42,147.777,0\H,94,1.0934,93,114.454,42,-84.911,0\S,94,1.80725,93,103.232,42,39.3011,0\O,97,1.49735,94,102.502,93,-83.1827,0\C,97,1.80725,94,95.5703,93,176.927,0\H,99,1.09239,97,118.509,94,-66.7806,0\H,99,1.09317,97,102.633,94,54.0504,0\H,99,1.09372,97,105.026,94,160.878,0\H,56,2.22766,54,108.106,53,9.57621,0\C,103,1.09268,56,126.267,54,-134.982,0\H,104,1.09347,103,109.153,56,44.9793,0\H,104,1.09372,103,111.919,56,173.312,0\S,104,1.80606,103,106.508,56,-73.7571,0\O,107,1.49709,104,103.735,103,6.38599,0\C,107,1.80764,104,94.7746,103,-101.865,0\H,109,1.09274,107,105.368,104,48.9001,0\H,109,1.09314,107,102.76,104,-61.9886,0\H,109,1.09356,107,116.934,104,178.544,0\H,110,2.03905,109,158.068,107,-118.232,0\C,113,1.09297,110,147.644,109,136.47,0\H,114,1.09285,113,107.851,110,-113.173,0\H,114,1.09333,113,115.103,110,12.9912,0\S,114,1.8076,113,102.912,110,128.776,0\O,117,1.49626,114,99.476,113,-83.0826,0\C,117,1.80642,114,97.0081,113,28.4513,0\H,119,1.09277,117,112.068,114,-173.805,0\H,119,1.09351,117,108.616,114,-52.6115,0\H,119,1.09385,117,112.692,114,62.3132,0\H,101,2.25806,99,118.098,97,91.0747,0\C,123,1.09297,101,146.397,99,127.791,0\H,124,1.09271,123,102.835,101,-151.848,0\H,124,1.09355,123,115.911,101,-34.4806,0\S,124,1.8066,123,117.004,101,88.444,0\O,127,1.49767,124,101.809,123,128.815,0\C,127,1.80734,124,103.581,123,15.954,0\H,129,1.09237,127,105.995,124,158.137,0\H,129,1.09256,127,112.201,124,-78.466,0\H,129,1.09306,127,103.866,124,39.9537,0\H,131,2.24528,129,127.262,127,-43.2945,0\C,133,1.09268,131,97.5713,129,-108.558,0\H,134,1.09233,133,106.245,131,172.045,0\H,134,1.09316,133,105.37,131,50.1347,0\S,134,1.80678,133,105.845,131,-72.2672,0\O,137,1.49677,134,102.542,133,89.1772,0\C,137,1.80727,134,94.921,133,-171.14,0\H,139,1.093,137,99.1602,134,-173.313,0\H,139,1.09302,137,110.917,134,-59.9682,0\H,139,1.09357,137,117.558,134,68.2727,0\H,135,2.23729,134,108.344,133,12.2213,0\C,143,1.09363,135,116.27,134,-125.729,0\H,144,1.093,143,112.081,135,-29.5339,0\H,144,1.09322,143,107.496,135,-152.714,0\S,144,1.8071,143,107.124,135,90.9347,0\O,147,1.49649,144,107.103,143,-49.8946,0\C,147,1.80674,144,100.852,143,64.4328,0\H,149,1.09268,147,105.225,144,77.2796,0\H,149,1.09339,147,103.759,144,-37.053,0\H,149,1.09342,147,107.529,144,-159.361,0\H,32,2.27372,30,144.894,27,111.344,0\C,153,1.09316,32,118.11,30,177.442,0\H,154,1.09252,153,107.441,32,44.6807,0\H,154,1.09347,153,111.475,32,-74.3331,0\S,154,1.80745,153,110.88,32,165.913,0\O,157,1.49766,154,101.494,153,-53.1966,0\C,157,1.80692,154,95.5115,153,-158.427,0\H,159,1.0924,157,106.692,154,-159.838,0\H,159,1.09284,157,114.631,154,-33.6755,0\H,159,1.09332,157,100.472,154,88.8842,0\H,148,2.28459,147,97.1671,144,-49.0919,0\C,163,1.09268,148,129.006,147,-149.307,0\H,164,1.09277,163,101.012,148,-130.003,0\H,164,1.09353,163,123.015,148,120.364,0\S,164,1.80702,163,115.032,148,-13.9239,0\O,167,1.49676,164,109.753,163,-178.594,0\C,167,1.80667,164,94.4231,163,74.9626,0\H,169,1.09316,167,113.164,164,-83.6117,0\H,169,1.09318,167,105.819,164,40.0599,0\H,169,1.0935,167,102.561,164,156.334,0\H,165,1.998,164,159.525,163,-136.333,0\C,173,1.09289,165,127.922,164,22.3679,0\H,174,1.09257,173,109.286,165,-26.3201,0\H,174,1.09305,173,101.122,165,98.4979,0\S,174,1.80716,173,102.988,165,-141.636,0\O,177,1.49632,174,100.35,173,-35.1566,0\C,177,1.8064,174,101.33,173,68.7525,0\H,179,1.09237,177,108.741,174,-35.4162,0\H,179,1.09326,177,106.417,174,80.7682,0\H,179,1.09348,177,108.279,174,-154.707,0\H,85,2.28537,84,129.751,83,-101.859,0\C,183,1.09278,85,111.784,84,-95.8723,0\H,184,1.09306,183,108.509,85,79.093,0\H,184,1.09319,183,110.429,85,-166.217,0\S,184,1.80752,183,109.325,85,-43.3177,0\O,187,1.49708,184,100.645,183,-147.834,0\C,187,1.80712,184,95.8939,183,-46.2821,0\H,189,1.09255,187,104.503,184,-68.8072,0\H,189,1.09282,187,109.548,184,45.7775,0\H,189,1.093,187,114.648,184,171.058,0\H,14,2.30764,13,116.371,12,79.7217,0\C,193,1.09336,14,149.9,13,125.268,0\H,194,1.09268,193,103.017,14,61.1645,0\H,194,1.0928,193,101.542,14,-48.4812,0\S,194,1.80712,193,113.054,14,-169.315,0\O,197,1.49601,194,102.401,193,146.203,0\C,197,1.80731,194,90.0933,193,46.2525,0\H,199,1.09249,197,105.2,194,70.5439,0\H,199,1.09301,197,107.193,194,-176.449,0\H,199,1.09341,197,115.732,194,-48.004,0\H,195,2.25997,194,99.5292,193,169.521,0\C,203,1.09254,195,127.35,194,152.497,0\H,204,1.09286,203,116.329,195,-169.755,0\H,204,1.09361,203,107.421,195,64.041,0\S,204,1.80688,203,109.499,195,-53.9873,0\O,207,1.49728,204,108.869,203,53.7968,0\C,207,1.80734,204,97.727,203,165.623,0\H,209,1.09284,207,110.835,204,-177.126,0\H,209,1.093,207,108.677,204,67.4742,0\H,209,1.09313,207,111.228,204,-56.7208,0\H,28,2.34902,27,137.03,24,174.6,0\C,213,1.09308,28,130.527,27,-143.745,0\H,214,1.09275,213,109.182,28,39.3886,0\H,214,1.09301,213,107.811,28,165.946,0\S,214,1.80672,213,109.94,28,-69.6812,0\O,217,1.4968,214,102.584,213,57.4445,0\C,217,1.80644,214,100.574,213,-43.7556,0\H,219,1.0929,217,103.358,214,46.8821,0\H,219,1.093,217,110.221,214,165.101,0\H,219,1.09303,217,115.465,214,-69.8624,0\H,215,2.21101,214,106.385,213,107.54,0\C,223,1.0927,215,124.627,214,-67.6684,0\H,224,1.09211,223,117.363,215,-46.2351,0\H,224,1.09335,223,114.571,215,87.0975,0\S,224,1.80713,223,106.001,215,-154.983,0\O,227,1.4964,224,107.478,223,167.665,0\C,227,1.80739,224,99.6467,223,65.631,0\H,229,1.09246,227,118.054,224,57.7127,0\H,229,1.093,227,109.354,224,-70.2739,0\H,229,1.09322,227,107.347,224,168.641,0\H,15,2.35091,13,141.252,12,-78.5256,0\C,233,1.09254,15,129.783,13,-18.7594,0\H,234,1.09291,233,116.891,15,11.1667,0\H,234,1.09293,233,98.7974,15,124.495,0\S,234,1.80703,233,109.974,15,-114.191,0\O,237,1.49721,234,96.5826,233,-34.8192,0\C,237,1.80671,234,97.4544,233,-140.959,0\H,239,1.09261,237,106.76,234,170.252,0\H,239,1.09359,237,107.852,234,-63.4211,0\H,239,1.09395,237,114.627,234,63.5708,0\H,206,2.39217,204,112.93,203,-66.7605,0\C,243,1.09299,206,130.579,204,-157.51,0\H,244,1.09216,243,110.647,206,-154.479,0\H,244,1.09357,243,105.371,206,-29.9412,0\S,244,1.8067,243,110.256,206,90.1387,0\O,247,1.49789,244,90.453,243,112.286,0\C,247,1.80705,244,98.3254,243,-143.018,0\H,249,1.0923,247,116.977,244,-170.95,0\H,249,1.09242,247,107.164,244,72.1163,0\H,249,1.09292,247,110.29,244,-38.1076,0\O,241,2.40177,239,152.498,237,10.3309,0\S,253,1.49665,241,134.319,239,-179.262,0\C,254,1.80656,253,105.83,241,0.254317,0\H,255,1.09283,254,106.281,253,-101.837,0\H,255,1.09304,254,106.116,253,19.89,0\H,255,1.09356,254,102.818,253,141.027,0\C,254,1.80788,253,99.7205,241,95.9285,0\H,259,1.09241,254,105.063,253,-47.386,0\H,259,1.09257,254,107.62,253,71.8662,0\H,259,1.09353,254,113.271,253,-166.258,0\H,160,2.41052,159,104.631,157,106.505,0\C,263,1.09312,160,111.076,159,-87.6019,0\H,264,1.09281,263,101.907,160,-141.047,0\H,264,1.09333,263,113.909,160,-29.4265,0\S,264,1.80737,263,112.399,160,103.663,0\O,267,1.49682,264,99.7315,263,70.1916,0\C,267,1.80703,264,95.161,263,174.609,0\H,269,1.09276,267,106.879,264,-150.996,0\H,269,1.09314,267,108.203,264,85.5227,0\H,269,1.09383,267,111.488,264,-34.1569,0\H,128,2.42515,127,151.258,124,138.229,0\C,273,1.09299,128,147.462,127,127.057,0\H,274,1.09236,273,109.044,128,80.8991,0\H,274,1.09361,273,111.461,128,-40.2617,0\S,274,1.80732,273,105.802,128,-161.404,0\O,277,1.49749,274,111.019,273,25.936,0\C,277,1.80692,274,94.8954,273,-84.3304,0\H,279,1.09283,277,110.228,274,166.632,0\H,279,1.09291,277,111.871,274,44.9914,0\H,279,1.09369,277,105.475,274,-72.7933,0\\\@

 Total job time:  62.22s(wall), 207.32s(cpu) 
 Fri Mar 12 10:09:08 2021

        *************************************************************
        *                                                           *
        *  Thank you very much for using Q-Chem.  Have a nice day.  *
        *                                                           *
        *************************************************************


