                  Welcome to Q-Chem
     A Quantum Leap Into The Future Of Chemistry


 Q-Chem 5.2 (devel), Q-Chem, Inc., Pleasanton, CA (2019)

 Yihan Shao,  Zhengting Gan,  E. Epifanovsky,  A. T. B. Gilbert,  M. Wormit,  
 J. Kussmann,  A. W. Lange,  A. Behn,  Jia Deng,  Xintian Feng,  D. Ghosh,  
 M. Goldey,  P. R. Horn,  L. D. Jacobson,  I. Kaliman,  T. Kus,  A. Landau,  
 Jie Liu,  E. I. Proynov,  R. M. Richard,  R. P. Steele,  E. J. Sundstrom,  
 H. L. Woodcock III,  P. M. Zimmerman,  D. Zuev,  B. Alam,  B. Albrecht,  
 E. Alguire,  S. A. Baeppler,  D. Barton,  Z. Benda,  Y. A. Bernard,  
 E. J. Berquist,  K. B. Bravaya,  H. Burton,  K. Carter-Fenk,  D. Casanova,  
 Chun-Min Chang,  Yunqing Chen,  A. Chien,  K. D. Closser,  M. P. Coons,  
 S. Coriani,  S. Dasgupta,  A. L. Dempwolff,  M. Diedenhofen,  Hainam Do,  
 R. G. Edgar,  Po-Tung Fang,  S. Faraji,  S. Fatehi,  Qingguo Feng,  
 J. Fosso-Tande,  J. Gayvert,  Qinghui Ge,  A. Ghysels,  G. Gidofalvi,  
 J. Gomes,  J. Gonthier,  A. Gunina,  D. Hait,  M. W. D. Hanson-Heine,  
 P. H. P. Harbach,  A. W. Hauser,  M. F. Herbst,  J. E. Herr,  
 E. G. Hohenstein,  Z. C. Holden,  Kerwin Hui,  B. C. Huynh,  T.-C. Jagau,  
 Hyunjun Ji,  B. Kaduk,  K. Khistyaev,  Jaehoon Kim,  P. Klunzinger,  K. Koh,  
 D. Kosenkov,  L. Koulias,  T. Kowalczyk,  C. M. Krauter,  A. Kunitsa,  
 Ka Un Lao,  A. Laurent,  K. V. Lawler,  Joonho Lee,  D. Lefrancois,  
 S. Lehtola,  D. S. Levine,  Yi-Pei Li,  You-Sheng Lin,  Fenglai Liu,  
 Kuan-Yu Liu,  E. Livshits,  M. Loipersberger,  A. Luenser,  P. Manohar,  
 E. Mansoor,  S. F. Manzer,  Shan-Ping Mao,  Yuezhi Mao,  N. Mardirossian,  
 A. V. Marenich,  T. Markovich,  L. A. Martinez-Martinez,  S. A. Maurer,  
 N. J. Mayhall,  S. C. McKenzie,  J.-M. Mewes,  P. Morgante,  A. F. Morrison,  
 J. W. Mullinax,  K. Nanda,  T. S. Nguyen-Beck,  R. Olivares-Amaya,  
 J. A. Parkhill,  S. K. Paul,  F. Pavosevic,  Zheng Pei,  T. M. Perrine,  
 F. Plasser,  P. Pokhilko,  S. Prager,  A. Prociuk,  E. Ramos,  B. Rana,  
 D. R. Rehn,  F. Rob,  M. Scheurer,  M. Schneider,  N. Sergueev,  
 S. M. Sharada,  S. Sharma,  D. W. Small,  T. Stauch,  C. J. Stein,  
 T. Stein,  Yu-Chuan Su,  S. P. Veccham,  Zhen Tao,  A. J. W. Thom,  
 A. Tkatchenko,  T. Tsuchimochi,  N. M. Tubman,  L. Vogt,  M. L. Vidal,  
 O. Vydrov,  M. A. Watson,  J. Wenzel,  M. de Wergifosse,  T. A. Wesolowski,  
 A. White,  J. Witte,  A. Yamada,  Jun Yang,  K. Yao,  S. Yeganeh,  
 S. R. Yost,  Zhi-Qiang You,  A. Zech,  Igor Ying Zhang,  Xing Zhang,  
 Yan Zhao,  Ying Zhu,  B. R. Brooks,  G. K. L. Chan,  C. J. Cramer,  
 M. S. Gordon,  W. J. Hehre,  A. Klamt,  M. W. Schmidt,  C. D. Sherrill,  
 D. G. Truhlar,  A. Aspuru-Guzik,  R. Baer,  A. T. Bell,  N. A. Besley,  
 Jeng-Da Chai,  A. E. DePrince, III,  R. A. DiStasio Jr.,  A. Dreuw,  
 B. D. Dunietz,  T. R. Furlani,  Chao-Ping Hsu,  Yousung Jung,  Jing Kong,  
 D. S. Lambrecht,  WanZhen Liang,  C. Ochsenfeld,  V. A. Rassolov,  
 L. V. Slipchenko,  J. E. Subotnik,  T. Van Voorhis,  J. M. Herbert,  
 A. I. Krylov,  P. M. W. Gill,  M. Head-Gordon

 Contributors to earlier versions of Q-Chem not listed above: 
 R. D. Adamson,  B. Austin,  J. Baker,  G. J. O. Beran,  K. Brandhorst,  
 S. T. Brown,  E. F. C. Byrd,  A. K. Chakraborty,  C.-L. Cheng,  
 Siu Hung Chien,  D. M. Chipman,  D. L. Crittenden,  H. Dachsel,  
 R. J. Doerksen,  A. D. Dutoi,  L. Fusti-Molnar,  W. A. Goddard III,  
 A. Golubeva-Zadorozhnaya,  S. R. Gwaltney,  G. Hawkins,  A. Heyden,  
 S. Hirata,  G. Kedziora,  F. J. Keil,  C. Kelley,  Jihan Kim,  R. A. King,  
 R. Z. Khaliullin,  P. P. Korambath,  W. Kurlancheek,  A. M. Lee,  M. S. Lee,  
 S. V. Levchenko,  Ching Yeh Lin,  D. Liotard,  R. C. Lochan,  I. Lotan,  
 P. E. Maslen,  N. Nair,  D. P. O'Neill,  D. Neuhauser,  E. Neuscamman,  
 C. M. Oana,  R. Olson,  B. Peters,  R. Peverati,  P. A. Pieniazek,  
 Y. M. Rhee,  J. Ritchie,  M. A. Rohrdanz,  E. Rosta,  N. J. Russ,  
 H. F. Schaefer III,  N. E. Schultz,  N. Shenvi,  A. C. Simmonett,  A. Sodt,  
 D. Stuck,  K. S. Thanthiriwatte,  V. Vanovschi,  Tao Wang,  A. Warshel,  
 C. F. Williams,  Q. Wu,  X. Xu,  W. Zhang

 Please cite Q-Chem as follows:
 Y. Shao et al., Mol. Phys. 113, 184-215 (2015)
 DOI: 10.1080/00268976.2014.952696

 Q-Chem 5.2.2 for Intel X86 EM64T Linux

 Parts of Q-Chem use Armadillo 9.800.1 (Horizon Scraper).
 http://arma.sourceforge.net/

 Q-Chem begins on Thu Mar 11 13:37:48 2021  

Host: n0099.mhg0
0

     Scratch files written to /local/scratch/users/ymao/r7.00_frame_0052_almo_B3LYP_dp.in20210311133744//

Checking the input file for inconsistencies... 	...done.

--------------------------------------------------------------
User input:
--------------------------------------------------------------
$molecule
0 1
--
0 1
C    25.28500   20.88500   27.07400  
C    24.80800   22.32300   26.81200  
C    25.93900   23.11700   26.13900  
C    26.37800   22.44100   24.82900  
C    26.72200   20.96300   25.07300  
C    25.61700   20.14900   25.76500  
H    25.52700   24.11600   25.94900  
H    23.91000   22.20500   26.19400  
H    26.15200   20.95400   27.74300  
H    24.60500   20.38900   27.77700  
H    25.53700   22.56200   24.13500  
H    27.20600   22.93700   24.30800  
H    26.83700   20.53900   24.06800  
H    27.63200   20.76000   25.65200  
H    24.76500   20.01800   25.08600  
H    25.97400   19.16200   26.08600  
H    26.74600   23.25400   26.86900  
N    24.46100   22.97700   28.07200  
H    24.97400   22.69900   28.90000  
C    23.83800   24.19900   28.22100  
H    23.82300   24.60600   29.24800  
O    23.27400   24.72300   27.27800  
--
0 1
C    22.04800   27.86900   26.41300  
H    22.50400   27.25200   27.19100  
H    21.68600   27.22700   25.60600  
H    22.78600   28.52300   25.94200  
S    20.74700   28.83300   27.21700  
C    20.55100   29.92200   25.78800  
H    21.56800   30.09800   25.42700  
H    20.02800   29.37000   25.00300  
H    19.98100   30.83200   25.99100  
O    21.33500   29.84100   28.15400  
C    23.49200   29.21900   23.14800  
H    23.96100   28.75800   24.02100  
H    24.31100   29.50900   22.48500  
H    22.92300   30.11800   23.40000  
S    22.48500   27.96500   22.32500  
C    21.68400   29.11200   21.18100  
H    20.90400   28.54200   20.66900  
H    21.15500   29.97200   21.59700  
H    22.46300   29.48200   20.50900  
O    21.47100   27.61100   23.36700  
C    26.52600   16.23000   19.95000  
H    26.15100   16.07100   20.96400  
H    26.93100   15.27200   19.61300  
H    27.25800   17.03700   20.03600  
S    25.19700   16.78100   18.85600  
C    24.31000   17.77600   20.07600  
H    23.43100   18.14100   19.54000  
H    23.99800   17.03000   20.81200  
H    24.84900   18.50200   20.69000  
O    24.27500   15.66900   18.46500  
C    22.49700   27.21300   33.58900  
H    22.46100   28.20700   33.13400  
H    23.10900   26.49200   33.04100  
H    21.45400   26.88900   33.63200  
S    22.98300   27.35100   35.32400  
C    21.80100   28.62000   35.83100  
H    20.80600   28.19500   35.98700  
H    22.13300   29.00600   36.79800  
H    21.71800   29.47800   35.15900  
O    24.28100   28.09600   35.34500  
C    30.86600   18.42200   34.04700  
H    31.13200   17.50200   33.51900  
H    31.83100   18.88500   34.26500  
H    30.24200   18.30200   34.93700  
S    30.03300   19.50700   32.86600  
C    29.26700   20.67000   34.01600  
H    28.48200   21.18900   33.46000  
H    28.70900   20.25800   34.86200  
H    30.07100   21.32500   34.36000  
O    28.85900   18.69100   32.42300  
C    28.98700   21.66800   28.95400  
H    28.13600   21.68100   29.63900  
H    28.60600   21.47800   27.94700  
H    29.64100   20.84300   29.24900  
S    29.93800   23.20500   28.95500  
C    28.48000   24.05500   29.60200  
H    28.34700   23.60200   30.58800  
H    28.62400   25.13900   29.61800  
H    27.66300   23.75700   28.94100  
O    30.03900   23.69200   27.54300  
C    32.15000   19.08500   27.34200  
H    33.12400   19.57900   27.38500  
H    31.98100   18.93100   26.27300  
H    31.30800   19.62700   27.77900  
S    32.02000   17.51400   28.22500  
C    33.16600   16.63100   27.14200  
H    32.87800   16.73000   26.09200  
H    34.11200   17.09700   27.42900  
H    33.30800   15.58800   27.43700  
O    30.65100   16.94000   28.03000  
C    25.14200   19.52300   30.92700  
H    24.36800   19.81400   30.21300  
H    26.04200   19.09900   30.47300  
H    24.71900   18.90000   31.71900  
S    25.72200   20.98800   31.81100  
C    24.10600   21.52900   32.41100  
H    24.05000   22.60200   32.61000  
H    23.36300   21.39500   31.62100  
H    23.89400   21.04000   33.36600  
O    25.85500   22.01900   30.73400  
C    27.55400   26.47900   26.89800  
H    27.44000   26.71000   25.83600  
H    28.49700   26.94900   27.18800  
H    27.66100   25.39900   27.02600  
S    26.20500   27.10000   27.92800  
C    26.28400   28.75800   27.21200  
H    25.60700   29.42700   27.74900  
H    27.33600   29.05100   27.25100  
H    25.94900   28.65400   26.17700  
O    26.55700   27.10400   29.38300  
C    24.05400   20.87800   22.00000  
H    25.11800   20.98200   22.23100  
H    23.51400   21.39800   22.79600  
H    23.66900   19.85700   22.06000  
S    23.64800   21.56000   20.37700  
C    22.01900   20.79100   20.22900  
H    22.05800   19.71700   20.42900  
H    21.30900   21.24000   20.92800  
H    21.69400   20.98000   19.20300  
O    24.40600   20.60000   19.51300  
C    26.09000   27.36900   21.31200  
H    26.94000   28.05200   21.38000  
H    25.27300   27.76900   21.91700  
H    26.53500   26.43300   21.65900  
S    25.70300   27.05300   19.57500  
C    25.28600   28.76900   19.19300  
H    26.16300   29.36900   19.45000  
H    25.05300   28.83700   18.12700  
H    24.41200   29.09400   19.76300  
O    24.49700   26.16900   19.63800  
C    30.51700   25.40200   24.65900  
H    30.33600   26.34200   25.18700  
H    30.16400   24.60300   25.31600  
H    31.54500   25.25000   24.32100  
S    29.51900   25.30400   23.15600  
C    30.11900   26.95400   22.72800  
H    29.66000   27.71400   23.36500  
H    31.20900   27.01700   22.69300  
H    29.70800   27.19200   21.74300  
O    28.13200   25.49200   23.68600  
C    18.98800   19.96600   23.61900  
H    19.77300   20.36200   22.96900  
H    18.24000   20.75300   23.74500  
H    19.41600   19.78900   24.61000  
S    18.28500   18.47900   22.87100  
C    16.98200   18.37100   24.11800  
H    16.26500   19.18900   24.22200  
H    16.37500   17.52200   23.79200  
H    17.36200   18.11000   25.10900  
O    19.43400   17.55200   23.12400  
C    27.83700   15.13600   28.04900  
H    27.06800   15.00700   27.28200  
H    28.76800   15.44600   27.56800  
H    27.89100   14.36600   28.82200  
S    27.50100   16.66600   28.94900  
C    28.17300   16.14800   30.54400  
H    27.85400   15.15500   30.87100  
H    29.24700   16.29200   30.40200  
H    27.91200   16.83900   31.35000  
O    26.02700   16.86200   29.11600  
C    30.01100   21.39100   24.17100  
H    29.79400   20.33400   23.99900  
H    29.82000   21.57600   25.23100  
H    29.29200   21.98800   23.60400  
S    31.74000   21.71700   23.75800  
C    31.61500   21.04300   22.08600  
H    32.55600   21.39700   21.65800  
H    31.67000   19.95100   22.08700  
H    30.75800   21.44000   21.53700  
O    32.54800   20.71000   24.51500  
C    27.33600   22.63700   20.38600  
H    26.45300   22.30200   20.93600  
H    28.19300   22.49900   21.05100  
H    27.39600   23.66800   20.02800  
S    27.55700   21.51800   18.98500  
C    27.74100   19.97500   19.90700  
H    28.65500   19.88400   20.50000  
H    26.85200   19.77400   20.51000  
H    27.65200   19.19400   19.14800  
O    28.99700   21.65000   18.59900  
C    20.78300   25.01100   29.63300  
H    19.79900   24.66400   29.30600  
H    20.72500   26.04800   29.97200  
H    21.36700   24.89300   28.71600  
S    21.26300   23.80100   30.88600  
C    19.84500   24.19900   31.93400  
H    18.98500   24.02700   31.28300  
H    19.84000   23.63900   32.87300  
H    19.91400   25.25600   32.20300  
O    22.45400   24.31900   31.63000  
C    23.72900   13.33100   28.01400  
H    22.83200   13.04600   27.45700  
H    23.69700   12.87000   29.00500  
H    23.94300   14.40200   28.01600  
S    25.14200   12.54900   27.20300  
C    24.53400   12.99500   25.56000  
H    24.52700   14.08800   25.54300  
H    25.15700   12.66100   24.72600  
H    23.53600   12.57000   25.41900  
O    24.99400   11.09200   27.50900  
C    30.94000   17.45000   24.41300  
H    31.46700   18.22100   23.84500  
H    31.21000   17.44800   25.47200  
H    31.09500   16.44100   24.02400  
S    29.20600   17.90200   24.18500  
C    28.57500   16.22900   24.44800  
H    28.60000   16.04000   25.52500  
H    27.54500   16.33800   24.10000  
H    29.20900   15.58300   23.83600  
O    29.27900   18.00700   22.69400  
C    21.36100   20.39800   29.23900  
H    20.76600   21.28500   29.01000  
H    21.00100   19.88000   30.13200  
H    22.42800   20.63500   29.24500  
S    21.13100   19.25900   27.85500  
C    21.95800   17.91400   28.73300  
H    22.94800   18.18600   29.10900  
H    21.43500   17.69900   29.66800  
H    21.98700   16.98100   28.16400  
O    21.99900   19.92200   26.83200  
C    16.41100   25.95800   29.40900  
H    16.46700   24.90000   29.67900  
H    17.12700   26.48900   30.04100  
H    15.37000   26.27600   29.51100  
S    17.04300   26.22700   27.73800  
C    15.84000   25.37200   26.69500  
H    14.83900   25.72300   26.95900  
H    16.01300   25.53800   25.62900  
H    16.07000   24.33000   26.93000  
O    18.32300   25.45400   27.67500  
C    22.82900   24.61600   24.21600  
H    23.28700   24.85100   23.25200  
H    22.69000   25.53700   24.78800  
H    23.33100   23.79600   24.73700  
S    21.17800   23.97100   23.86600  
C    20.94400   23.18100   25.47400  
H    20.81300   24.03800   26.13900  
H    20.06600   22.53400   25.40200  
H    21.82200   22.54100   25.59600  
O    21.47400   22.73200   23.08000  
C    25.97400   25.81100   32.25700  
H    26.65000   26.02900   31.42600  
H    24.96500   25.69100   31.85500  
H    26.02500   26.55700   33.05400  
S    26.35100   24.26900   33.12000  
C    25.17400   24.51300   34.46900  
H    25.22100   23.60300   35.07300  
H    25.44400   25.44300   34.97700  
H    24.16900   24.62900   34.05500  
O    27.68800   24.52300   33.74400  
C    24.11200   16.88400   25.96800  
H    25.09700   16.49400   26.23600  
H    23.82300   17.76400   26.54800  
H    23.33500   16.13000   26.11400  
S    24.20300   17.34000   24.22200  
C    22.42400   17.61500   24.06100  
H    22.24000   17.86200   23.01300  
H    21.84600   16.74200   24.37500  
H    22.18100   18.43900   24.73700  
O    24.50600   16.02700   23.57100  
C    31.47100   26.91900   27.72800  
H    32.06400   26.78700   26.81900  
H    32.03500   26.42600   28.52400  
H    30.53000   26.38700   27.56800  
S    31.33900   28.69100   28.05200  
C    30.18400   28.48200   29.42600  
H    30.74900   27.98300   30.21700  
H    29.80900   29.46000   29.73700  
H    29.42100   27.75400   29.14000  
O    30.36300   29.03500   26.97000  
C    31.42000   26.28200   19.16900  
H    31.21000   27.08300   18.45500  
H    31.95100   26.80500   19.96800  
H    32.10100   25.51900   18.78400  
S    29.78900   25.58400   19.51300  
C    29.63700   24.57600   18.02100  
H    30.41900   23.87300   17.72400  
H    28.73800   23.99300   18.23700  
H    29.45300   25.30000   17.22300  
O    28.80100   26.68100   19.26900  
$end

$rem
JOBTYPE  SP
METHOD  B3LYP
BASIS  6-31+G(D)
SYMMETRY  FALSE
SYM_IGNORE  TRUE
MEM_TOTAL  16000
MEM_STATIC  8000
MAX_SUB_FILE_NUM  16000
BASIS_LIN_DEP_THRESH  6
THRESH  14
SCF_CONVERGENCE  8
GEN_SCFMAN  TRUE
SCF_GUESS  FRAGMO
FD_MAT_VEC_PROD  FALSE
XC_GRID  000075000302
NL_GRID  1
MAX_SCF_CYCLES  200
FRGM_METHOD  STOLL
SCFMI_MODE  1
$end

$development
almo_efield  1
$end

$rem_frgm
SCF_CONVERGENCE  4
$end

--------------------------------------------------------------
 ----------------------------------------------------------------
             Standard Nuclear Orientation (Angstroms)
    I     Atom           X                Y                Z
 ----------------------------------------------------------------
    1      C      25.2850000000    20.8850000000    27.0740000000
    2      C      24.8080000000    22.3230000000    26.8120000000
    3      C      25.9390000000    23.1170000000    26.1390000000
    4      C      26.3780000000    22.4410000000    24.8290000000
    5      C      26.7220000000    20.9630000000    25.0730000000
    6      C      25.6170000000    20.1490000000    25.7650000000
    7      H      25.5270000000    24.1160000000    25.9490000000
    8      H      23.9100000000    22.2050000000    26.1940000000
    9      H      26.1520000000    20.9540000000    27.7430000000
   10      H      24.6050000000    20.3890000000    27.7770000000
   11      H      25.5370000000    22.5620000000    24.1350000000
   12      H      27.2060000000    22.9370000000    24.3080000000
   13      H      26.8370000000    20.5390000000    24.0680000000
   14      H      27.6320000000    20.7600000000    25.6520000000
   15      H      24.7650000000    20.0180000000    25.0860000000
   16      H      25.9740000000    19.1620000000    26.0860000000
   17      H      26.7460000000    23.2540000000    26.8690000000
   18      N      24.4610000000    22.9770000000    28.0720000000
   19      H      24.9740000000    22.6990000000    28.9000000000
   20      C      23.8380000000    24.1990000000    28.2210000000
   21      H      23.8230000000    24.6060000000    29.2480000000
   22      O      23.2740000000    24.7230000000    27.2780000000
   23      C      22.0480000000    27.8690000000    26.4130000000
   24      H      22.5040000000    27.2520000000    27.1910000000
   25      H      21.6860000000    27.2270000000    25.6060000000
   26      H      22.7860000000    28.5230000000    25.9420000000
   27      S      20.7470000000    28.8330000000    27.2170000000
   28      C      20.5510000000    29.9220000000    25.7880000000
   29      H      21.5680000000    30.0980000000    25.4270000000
   30      H      20.0280000000    29.3700000000    25.0030000000
   31      H      19.9810000000    30.8320000000    25.9910000000
   32      O      21.3350000000    29.8410000000    28.1540000000
   33      C      23.4920000000    29.2190000000    23.1480000000
   34      H      23.9610000000    28.7580000000    24.0210000000
   35      H      24.3110000000    29.5090000000    22.4850000000
   36      H      22.9230000000    30.1180000000    23.4000000000
   37      S      22.4850000000    27.9650000000    22.3250000000
   38      C      21.6840000000    29.1120000000    21.1810000000
   39      H      20.9040000000    28.5420000000    20.6690000000
   40      H      21.1550000000    29.9720000000    21.5970000000
   41      H      22.4630000000    29.4820000000    20.5090000000
   42      O      21.4710000000    27.6110000000    23.3670000000
   43      C      26.5260000000    16.2300000000    19.9500000000
   44      H      26.1510000000    16.0710000000    20.9640000000
   45      H      26.9310000000    15.2720000000    19.6130000000
   46      H      27.2580000000    17.0370000000    20.0360000000
   47      S      25.1970000000    16.7810000000    18.8560000000
   48      C      24.3100000000    17.7760000000    20.0760000000
   49      H      23.4310000000    18.1410000000    19.5400000000
   50      H      23.9980000000    17.0300000000    20.8120000000
   51      H      24.8490000000    18.5020000000    20.6900000000
   52      O      24.2750000000    15.6690000000    18.4650000000
   53      C      22.4970000000    27.2130000000    33.5890000000
   54      H      22.4610000000    28.2070000000    33.1340000000
   55      H      23.1090000000    26.4920000000    33.0410000000
   56      H      21.4540000000    26.8890000000    33.6320000000
   57      S      22.9830000000    27.3510000000    35.3240000000
   58      C      21.8010000000    28.6200000000    35.8310000000
   59      H      20.8060000000    28.1950000000    35.9870000000
   60      H      22.1330000000    29.0060000000    36.7980000000
   61      H      21.7180000000    29.4780000000    35.1590000000
   62      O      24.2810000000    28.0960000000    35.3450000000
   63      C      30.8660000000    18.4220000000    34.0470000000
   64      H      31.1320000000    17.5020000000    33.5190000000
   65      H      31.8310000000    18.8850000000    34.2650000000
   66      H      30.2420000000    18.3020000000    34.9370000000
   67      S      30.0330000000    19.5070000000    32.8660000000
   68      C      29.2670000000    20.6700000000    34.0160000000
   69      H      28.4820000000    21.1890000000    33.4600000000
   70      H      28.7090000000    20.2580000000    34.8620000000
   71      H      30.0710000000    21.3250000000    34.3600000000
   72      O      28.8590000000    18.6910000000    32.4230000000
   73      C      28.9870000000    21.6680000000    28.9540000000
   74      H      28.1360000000    21.6810000000    29.6390000000
   75      H      28.6060000000    21.4780000000    27.9470000000
   76      H      29.6410000000    20.8430000000    29.2490000000
   77      S      29.9380000000    23.2050000000    28.9550000000
   78      C      28.4800000000    24.0550000000    29.6020000000
   79      H      28.3470000000    23.6020000000    30.5880000000
   80      H      28.6240000000    25.1390000000    29.6180000000
   81      H      27.6630000000    23.7570000000    28.9410000000
   82      O      30.0390000000    23.6920000000    27.5430000000
   83      C      32.1500000000    19.0850000000    27.3420000000
   84      H      33.1240000000    19.5790000000    27.3850000000
   85      H      31.9810000000    18.9310000000    26.2730000000
   86      H      31.3080000000    19.6270000000    27.7790000000
   87      S      32.0200000000    17.5140000000    28.2250000000
   88      C      33.1660000000    16.6310000000    27.1420000000
   89      H      32.8780000000    16.7300000000    26.0920000000
   90      H      34.1120000000    17.0970000000    27.4290000000
   91      H      33.3080000000    15.5880000000    27.4370000000
   92      O      30.6510000000    16.9400000000    28.0300000000
   93      C      25.1420000000    19.5230000000    30.9270000000
   94      H      24.3680000000    19.8140000000    30.2130000000
   95      H      26.0420000000    19.0990000000    30.4730000000
   96      H      24.7190000000    18.9000000000    31.7190000000
   97      S      25.7220000000    20.9880000000    31.8110000000
   98      C      24.1060000000    21.5290000000    32.4110000000
   99      H      24.0500000000    22.6020000000    32.6100000000
  100      H      23.3630000000    21.3950000000    31.6210000000
  101      H      23.8940000000    21.0400000000    33.3660000000
  102      O      25.8550000000    22.0190000000    30.7340000000
  103      C      27.5540000000    26.4790000000    26.8980000000
  104      H      27.4400000000    26.7100000000    25.8360000000
  105      H      28.4970000000    26.9490000000    27.1880000000
  106      H      27.6610000000    25.3990000000    27.0260000000
  107      S      26.2050000000    27.1000000000    27.9280000000
  108      C      26.2840000000    28.7580000000    27.2120000000
  109      H      25.6070000000    29.4270000000    27.7490000000
  110      H      27.3360000000    29.0510000000    27.2510000000
  111      H      25.9490000000    28.6540000000    26.1770000000
  112      O      26.5570000000    27.1040000000    29.3830000000
  113      C      24.0540000000    20.8780000000    22.0000000000
  114      H      25.1180000000    20.9820000000    22.2310000000
  115      H      23.5140000000    21.3980000000    22.7960000000
  116      H      23.6690000000    19.8570000000    22.0600000000
  117      S      23.6480000000    21.5600000000    20.3770000000
  118      C      22.0190000000    20.7910000000    20.2290000000
  119      H      22.0580000000    19.7170000000    20.4290000000
  120      H      21.3090000000    21.2400000000    20.9280000000
  121      H      21.6940000000    20.9800000000    19.2030000000
  122      O      24.4060000000    20.6000000000    19.5130000000
  123      C      26.0900000000    27.3690000000    21.3120000000
  124      H      26.9400000000    28.0520000000    21.3800000000
  125      H      25.2730000000    27.7690000000    21.9170000000
  126      H      26.5350000000    26.4330000000    21.6590000000
  127      S      25.7030000000    27.0530000000    19.5750000000
  128      C      25.2860000000    28.7690000000    19.1930000000
  129      H      26.1630000000    29.3690000000    19.4500000000
  130      H      25.0530000000    28.8370000000    18.1270000000
  131      H      24.4120000000    29.0940000000    19.7630000000
  132      O      24.4970000000    26.1690000000    19.6380000000
  133      C      30.5170000000    25.4020000000    24.6590000000
  134      H      30.3360000000    26.3420000000    25.1870000000
  135      H      30.1640000000    24.6030000000    25.3160000000
  136      H      31.5450000000    25.2500000000    24.3210000000
  137      S      29.5190000000    25.3040000000    23.1560000000
  138      C      30.1190000000    26.9540000000    22.7280000000
  139      H      29.6600000000    27.7140000000    23.3650000000
  140      H      31.2090000000    27.0170000000    22.6930000000
  141      H      29.7080000000    27.1920000000    21.7430000000
  142      O      28.1320000000    25.4920000000    23.6860000000
  143      C      18.9880000000    19.9660000000    23.6190000000
  144      H      19.7730000000    20.3620000000    22.9690000000
  145      H      18.2400000000    20.7530000000    23.7450000000
  146      H      19.4160000000    19.7890000000    24.6100000000
  147      S      18.2850000000    18.4790000000    22.8710000000
  148      C      16.9820000000    18.3710000000    24.1180000000
  149      H      16.2650000000    19.1890000000    24.2220000000
  150      H      16.3750000000    17.5220000000    23.7920000000
  151      H      17.3620000000    18.1100000000    25.1090000000
  152      O      19.4340000000    17.5520000000    23.1240000000
  153      C      27.8370000000    15.1360000000    28.0490000000
  154      H      27.0680000000    15.0070000000    27.2820000000
  155      H      28.7680000000    15.4460000000    27.5680000000
  156      H      27.8910000000    14.3660000000    28.8220000000
  157      S      27.5010000000    16.6660000000    28.9490000000
  158      C      28.1730000000    16.1480000000    30.5440000000
  159      H      27.8540000000    15.1550000000    30.8710000000
  160      H      29.2470000000    16.2920000000    30.4020000000
  161      H      27.9120000000    16.8390000000    31.3500000000
  162      O      26.0270000000    16.8620000000    29.1160000000
  163      C      30.0110000000    21.3910000000    24.1710000000
  164      H      29.7940000000    20.3340000000    23.9990000000
  165      H      29.8200000000    21.5760000000    25.2310000000
  166      H      29.2920000000    21.9880000000    23.6040000000
  167      S      31.7400000000    21.7170000000    23.7580000000
  168      C      31.6150000000    21.0430000000    22.0860000000
  169      H      32.5560000000    21.3970000000    21.6580000000
  170      H      31.6700000000    19.9510000000    22.0870000000
  171      H      30.7580000000    21.4400000000    21.5370000000
  172      O      32.5480000000    20.7100000000    24.5150000000
  173      C      27.3360000000    22.6370000000    20.3860000000
  174      H      26.4530000000    22.3020000000    20.9360000000
  175      H      28.1930000000    22.4990000000    21.0510000000
  176      H      27.3960000000    23.6680000000    20.0280000000
  177      S      27.5570000000    21.5180000000    18.9850000000
  178      C      27.7410000000    19.9750000000    19.9070000000
  179      H      28.6550000000    19.8840000000    20.5000000000
  180      H      26.8520000000    19.7740000000    20.5100000000
  181      H      27.6520000000    19.1940000000    19.1480000000
  182      O      28.9970000000    21.6500000000    18.5990000000
  183      C      20.7830000000    25.0110000000    29.6330000000
  184      H      19.7990000000    24.6640000000    29.3060000000
  185      H      20.7250000000    26.0480000000    29.9720000000
  186      H      21.3670000000    24.8930000000    28.7160000000
  187      S      21.2630000000    23.8010000000    30.8860000000
  188      C      19.8450000000    24.1990000000    31.9340000000
  189      H      18.9850000000    24.0270000000    31.2830000000
  190      H      19.8400000000    23.6390000000    32.8730000000
  191      H      19.9140000000    25.2560000000    32.2030000000
  192      O      22.4540000000    24.3190000000    31.6300000000
  193      C      23.7290000000    13.3310000000    28.0140000000
  194      H      22.8320000000    13.0460000000    27.4570000000
  195      H      23.6970000000    12.8700000000    29.0050000000
  196      H      23.9430000000    14.4020000000    28.0160000000
  197      S      25.1420000000    12.5490000000    27.2030000000
  198      C      24.5340000000    12.9950000000    25.5600000000
  199      H      24.5270000000    14.0880000000    25.5430000000
  200      H      25.1570000000    12.6610000000    24.7260000000
  201      H      23.5360000000    12.5700000000    25.4190000000
  202      O      24.9940000000    11.0920000000    27.5090000000
  203      C      30.9400000000    17.4500000000    24.4130000000
  204      H      31.4670000000    18.2210000000    23.8450000000
  205      H      31.2100000000    17.4480000000    25.4720000000
  206      H      31.0950000000    16.4410000000    24.0240000000
  207      S      29.2060000000    17.9020000000    24.1850000000
  208      C      28.5750000000    16.2290000000    24.4480000000
  209      H      28.6000000000    16.0400000000    25.5250000000
  210      H      27.5450000000    16.3380000000    24.1000000000
  211      H      29.2090000000    15.5830000000    23.8360000000
  212      O      29.2790000000    18.0070000000    22.6940000000
  213      C      21.3610000000    20.3980000000    29.2390000000
  214      H      20.7660000000    21.2850000000    29.0100000000
  215      H      21.0010000000    19.8800000000    30.1320000000
  216      H      22.4280000000    20.6350000000    29.2450000000
  217      S      21.1310000000    19.2590000000    27.8550000000
  218      C      21.9580000000    17.9140000000    28.7330000000
  219      H      22.9480000000    18.1860000000    29.1090000000
  220      H      21.4350000000    17.6990000000    29.6680000000
  221      H      21.9870000000    16.9810000000    28.1640000000
  222      O      21.9990000000    19.9220000000    26.8320000000
  223      C      16.4110000000    25.9580000000    29.4090000000
  224      H      16.4670000000    24.9000000000    29.6790000000
  225      H      17.1270000000    26.4890000000    30.0410000000
  226      H      15.3700000000    26.2760000000    29.5110000000
  227      S      17.0430000000    26.2270000000    27.7380000000
  228      C      15.8400000000    25.3720000000    26.6950000000
  229      H      14.8390000000    25.7230000000    26.9590000000
  230      H      16.0130000000    25.5380000000    25.6290000000
  231      H      16.0700000000    24.3300000000    26.9300000000
  232      O      18.3230000000    25.4540000000    27.6750000000
  233      C      22.8290000000    24.6160000000    24.2160000000
  234      H      23.2870000000    24.8510000000    23.2520000000
  235      H      22.6900000000    25.5370000000    24.7880000000
  236      H      23.3310000000    23.7960000000    24.7370000000
  237      S      21.1780000000    23.9710000000    23.8660000000
  238      C      20.9440000000    23.1810000000    25.4740000000
  239      H      20.8130000000    24.0380000000    26.1390000000
  240      H      20.0660000000    22.5340000000    25.4020000000
  241      H      21.8220000000    22.5410000000    25.5960000000
  242      O      21.4740000000    22.7320000000    23.0800000000
  243      C      25.9740000000    25.8110000000    32.2570000000
  244      H      26.6500000000    26.0290000000    31.4260000000
  245      H      24.9650000000    25.6910000000    31.8550000000
  246      H      26.0250000000    26.5570000000    33.0540000000
  247      S      26.3510000000    24.2690000000    33.1200000000
  248      C      25.1740000000    24.5130000000    34.4690000000
  249      H      25.2210000000    23.6030000000    35.0730000000
  250      H      25.4440000000    25.4430000000    34.9770000000
  251      H      24.1690000000    24.6290000000    34.0550000000
  252      O      27.6880000000    24.5230000000    33.7440000000
  253      C      24.1120000000    16.8840000000    25.9680000000
  254      H      25.0970000000    16.4940000000    26.2360000000
  255      H      23.8230000000    17.7640000000    26.5480000000
  256      H      23.3350000000    16.1300000000    26.1140000000
  257      S      24.2030000000    17.3400000000    24.2220000000
  258      C      22.4240000000    17.6150000000    24.0610000000
  259      H      22.2400000000    17.8620000000    23.0130000000
  260      H      21.8460000000    16.7420000000    24.3750000000
  261      H      22.1810000000    18.4390000000    24.7370000000
  262      O      24.5060000000    16.0270000000    23.5710000000
  263      C      31.4710000000    26.9190000000    27.7280000000
  264      H      32.0640000000    26.7870000000    26.8190000000
  265      H      32.0350000000    26.4260000000    28.5240000000
  266      H      30.5300000000    26.3870000000    27.5680000000
  267      S      31.3390000000    28.6910000000    28.0520000000
  268      C      30.1840000000    28.4820000000    29.4260000000
  269      H      30.7490000000    27.9830000000    30.2170000000
  270      H      29.8090000000    29.4600000000    29.7370000000
  271      H      29.4210000000    27.7540000000    29.1400000000
  272      O      30.3630000000    29.0350000000    26.9700000000
  273      C      31.4200000000    26.2820000000    19.1690000000
  274      H      31.2100000000    27.0830000000    18.4550000000
  275      H      31.9510000000    26.8050000000    19.9680000000
  276      H      32.1010000000    25.5190000000    18.7840000000
  277      S      29.7890000000    25.5840000000    19.5130000000
  278      C      29.6370000000    24.5760000000    18.0210000000
  279      H      30.4190000000    23.8730000000    17.7240000000
  280      H      28.7380000000    23.9930000000    18.2370000000
  281      H      29.4530000000    25.3000000000    17.2230000000
  282      O      28.8010000000    26.6810000000    19.2690000000
 ----------------------------------------------------------------
 Nuclear Repulsion Energy =       44345.43970064 hartrees
 There are      581 alpha and      581 beta electrons
 Requested basis set is 6-31+G(d)
 There are 929 shells and 2589 basis functions

 Total QAlloc Memory Limit  16000 MB
 Mega-Array Size      7821 MB
 MEM_STATIC part      8000 MB
 A cutoff of  1.0D-14 yielded 161052 shell pairs
 There are   1400829 function pairs
 Smallest overlap matrix eigenvalue = 6.08E-07
 Linear dependence detected in AO basis
 Tighter screening thresholds may be required for diffuse basis sets
 Use S2THRESH > 14 and THRESH = 14 in case of SCF convergence issues
 Number of orthogonalized atomic orbitals = 2586
 Maximum deviation from orthogonality = 6.489E-11

 Scale SEOQF with 1.000000e-03/1.000000e-03/1.000000e-03

 Standard Electronic Orientation quadrupole field applied
 Nucleus-field energy     =    -0.0000001692 hartrees
Attempting to make child job directory: /local/scratch/users/ymao/r7.00_frame_0052_almo_B3LYP_dp.in20210311133744//Frg1/
Attempting to make child job directory: /local/scratch/users/ymao/r7.00_frame_0052_almo_B3LYP_dp.in20210311133744//Frg2/
Creating input file /local/scratch/users/ymao/r7.00_frame_0052_almo_B3LYP_dp.in20210311133744/Frg1.input
using default PutDataFrgm: nothing
calling putenv with: QCSCRATCH=/local/scratch/users/ymao/r7.00_frame_0052_almo_B3LYP_dp.in20210311133744/ 
Spawning Job For Fragment 0
Done Job For Fragment 0
calling putenv with: QCSCRATCH=/local/scratch/users/ymao 
calling putenv with: QCTHREADS=8 
Creating input file /local/scratch/users/ymao/r7.00_frame_0052_almo_B3LYP_dp.in20210311133744/Frg2.input
using default PutDataFrgm: nothing
calling putenv with: QCSCRATCH=/local/scratch/users/ymao/r7.00_frame_0052_almo_B3LYP_dp.in20210311133744/ 
Spawning Job For Fragment 1
Done Job For Fragment 1
calling putenv with: QCSCRATCH=/local/scratch/users/ymao 
calling putenv with: QCTHREADS=8 
 Time for running child jobs:  CPU 0.83 s  wall 17290.76 s

 -----------------------------------------------------------------------
  General SCF calculation program by
  Eric Jon Sundstrom, Paul Horn, Yuezhi Mao, Dmitri Zuev, Alec White,
  David Stuck, Shaama M.S., Shane Yost, Joonho Lee, David Small,
  Daniel Levine, Susi Lehtola, Hugh Burton, Evgeny Epifanovsky,
  Bang C. Huynh
 -----------------------------------------------------------------------
Performing Restricted Closed Shell SCFMI
Doing General SCFMI
 Exchange:     0.2000 Hartree-Fock + 0.0800 Slater + 0.7200 B88
 Correlation:  0.1900 VWN1RPA + 0.8100 LYP
 Using Euler-Maclaurin-Lebedev (75,302) quadrature formula
performing fock build before subrot guess so that all methods have access
Printing subrot_rss_gen Method Specification:
Occupied Subspace Method is 0
Virtual Subspace Method is 0
Energy prior to optimization (guess energy) = -14787.547967152808
Begin Timing: Total SCF Calculation
begin iterations for algorithm: DIIS         
the SCF tolerance is set to 1.00e-08
    1  -14787.5479671528      4.34e-05     00000 
    2  -14787.5466394916      6.84e-05     00000 
    3  -14787.5573342563      1.58e-05     00000 
    4  -14787.5579050091      6.02e-06     00000 
    5  -14787.5580001533      3.17e-06     00000 
    6  -14787.5580217972      2.07e-06     00000 
    7  -14787.5580311078      1.26e-06     00000 
    8  -14787.5580350064      6.23e-07     00000 
    9  -14787.5580356826      4.08e-07     00000 
   10  -14787.5580359255      2.73e-07     00000 
   11  -14787.5580360772      1.49e-07     00000 
   12  -14787.5580361271      8.68e-08     00000 
   13  -14787.5580361457      4.35e-08     00000 
   14  -14787.5580361489      3.14e-08     00000 
   15  -14787.5580361506      1.90e-08     00000 
   16  -14787.5580361515      8.45e-09     00000 Convergence criterion met
write pseudocanon occs and virts to disk
write pseudocanon orbital energies to disk
Timing for Total SCF: 42340.00s (wall), 335623.65s (cpu)
SCFMI Energy  -14787.5580361515
<S^2>            0.00000
 Total energy in the final basis set =   -14787.5580361515
    ==================================================
        The end of Object-Oriented SCFman: SCFMI      
    ==================================================
 
 --------------------------------------------------------------
 
                    Orbital Energies (a.u.)
 --------------------------------------------------------------
 
 Alpha MOs
 -- Occupied --
-89.0200 -89.0189 -89.0179 -89.0123 -89.0109 -89.0096 -89.0073 -89.0023
-89.0001 -88.9998 -88.9996 -88.9991 -88.9987 -88.9981 -88.9970 -88.9857
-88.9846 -88.9837 -88.9833 -88.9828 -88.9806 -88.9803 -88.9776 -88.9743
-88.9739 -88.9541 -19.1410 -19.1368 -19.1351 -19.1345 -19.1247 -19.1222
-19.1214 -19.1201 -19.1200 -19.1194 -19.1190 -19.1178 -19.1158 -19.1147
-19.1090 -19.1078 -19.1072 -19.1047 -19.1045 -19.1027 -19.1018 -19.0989
-19.0928 -19.0925 -19.0849 -19.0837 -19.0797 -14.3535 -10.2838 -10.2496
-10.2467 -10.2402 -10.2363 -10.2341 -10.2327 -10.2307 -10.2301 -10.2272
-10.2226 -10.2222 -10.2216 -10.2211 -10.2206 -10.2194 -10.2188 -10.2180
-10.2166 -10.2155 -10.2155 -10.2132 -10.2128 -10.2114 -10.2113 -10.2107
-10.2107 -10.2104 -10.2103 -10.2097 -10.2092 -10.2086 -10.2067 -10.2067
-10.2063 -10.2039 -10.2020 -10.2013 -10.2013 -10.2011 -10.2003 -10.1993
-10.1989 -10.1966 -10.1958 -10.1944 -10.1938 -10.1936 -10.1935 -10.1909
-10.1843 -10.1843 -10.1832 -10.1816 -10.1801 -10.1800 -10.1776 -10.1764
-10.1710  -8.0667  -8.0648  -8.0635  -8.0584  -8.0563  -8.0557  -8.0534
 -8.0481  -8.0468  -8.0455  -8.0453  -8.0453  -8.0447  -8.0441  -8.0435
 -8.0318  -8.0304  -8.0302  -8.0294  -8.0286  -8.0262  -8.0259  -8.0243
 -8.0204  -8.0202  -8.0000  -6.0310  -6.0300  -6.0291  -6.0281  -6.0279
 -6.0264  -6.0235  -6.0227  -6.0223  -6.0215  -6.0210  -6.0207  -6.0202
 -6.0196  -6.0187  -6.0178  -6.0163  -6.0158  -6.0136  -6.0129  -6.0122
 -6.0112  -6.0110  -6.0109  -6.0099  -6.0098  -6.0097  -6.0095  -6.0091
 -6.0085  -6.0085  -6.0084  -6.0083  -6.0076  -6.0075  -6.0073  -6.0065
 -6.0056  -6.0045  -6.0034  -6.0028  -6.0026  -6.0023  -6.0015  -6.0012
 -5.9961  -5.9948  -5.9946  -5.9945  -5.9941  -5.9935  -5.9932  -5.9932
 -5.9925  -5.9917  -5.9906  -5.9901  -5.9895  -5.9893  -5.9891  -5.9887
 -5.9880  -5.9875  -5.9871  -5.9864  -5.9856  -5.9848  -5.9845  -5.9834
 -5.9834  -5.9834  -5.9833  -5.9818  -5.9778  -5.9775  -5.9644  -5.9633
 -5.9571  -1.0472  -1.0442  -1.0422  -1.0405  -1.0391  -1.0342  -1.0334
 -1.0323  -1.0270  -1.0268  -1.0260  -1.0259  -1.0243  -1.0233  -1.0205
 -1.0181  -1.0146  -1.0129  -1.0116  -1.0087  -1.0075  -1.0070  -1.0060
 -1.0020  -1.0008  -0.9995  -0.9809  -0.9180  -0.8269  -0.8254  -0.8238
 -0.8228  -0.8182  -0.8136  -0.8090  -0.8063  -0.8038  -0.8031  -0.8017
 -0.7994  -0.7987  -0.7976  -0.7963  -0.7963  -0.7955  -0.7953  -0.7938
 -0.7914  -0.7899  -0.7851  -0.7813  -0.7798  -0.7729  -0.7713  -0.7624
 -0.7618  -0.7434  -0.7415  -0.7413  -0.7412  -0.7403  -0.7372  -0.7371
 -0.7319  -0.7301  -0.7267  -0.7244  -0.7236  -0.7230  -0.7227  -0.7175
 -0.7170  -0.7157  -0.7153  -0.7129  -0.7119  -0.7098  -0.7073  -0.7061
 -0.7055  -0.7051  -0.7042  -0.6868  -0.6355  -0.6337  -0.6313  -0.6267
 -0.6263  -0.6227  -0.6215  -0.6205  -0.6178  -0.6164  -0.6158  -0.6120
 -0.6115  -0.6110  -0.6105  -0.6089  -0.6073  -0.5990  -0.5985  -0.5977
 -0.5967  -0.5960  -0.5951  -0.5933  -0.5885  -0.5877  -0.5862  -0.5737
 -0.5693  -0.5660  -0.5264  -0.5061  -0.5032  -0.4997  -0.4990  -0.4930
 -0.4927  -0.4905  -0.4904  -0.4901  -0.4897  -0.4891  -0.4875  -0.4869
 -0.4858  -0.4839  -0.4837  -0.4822  -0.4813  -0.4805  -0.4788  -0.4781
 -0.4777  -0.4765  -0.4758  -0.4750  -0.4741  -0.4732  -0.4730  -0.4727
 -0.4715  -0.4714  -0.4704  -0.4695  -0.4692  -0.4691  -0.4683  -0.4679
 -0.4677  -0.4671  -0.4665  -0.4654  -0.4649  -0.4642  -0.4635  -0.4625
 -0.4620  -0.4609  -0.4609  -0.4605  -0.4598  -0.4597  -0.4592  -0.4590
 -0.4579  -0.4575  -0.4568  -0.4564  -0.4559  -0.4550  -0.4548  -0.4542
 -0.4538  -0.4536  -0.4523  -0.4519  -0.4515  -0.4508  -0.4498  -0.4483
 -0.4475  -0.4462  -0.4442  -0.4432  -0.4427  -0.4425  -0.4420  -0.4419
 -0.4414  -0.4407  -0.4402  -0.4391  -0.4389  -0.4386  -0.4377  -0.4359
 -0.4347  -0.4341  -0.4321  -0.4315  -0.4307  -0.4306  -0.4297  -0.4277
 -0.4260  -0.4260  -0.4246  -0.4236  -0.4235  -0.4229  -0.4226  -0.4225
 -0.4212  -0.4209  -0.4204  -0.4201  -0.4197  -0.4192  -0.4186  -0.4176
 -0.4170  -0.4167  -0.4161  -0.4145  -0.4142  -0.4129  -0.4121  -0.4105
 -0.4095  -0.4091  -0.4084  -0.4084  -0.4078  -0.4069  -0.4065  -0.4054
 -0.4042  -0.4040  -0.4032  -0.4013  -0.4012  -0.4008  -0.3997  -0.3988
 -0.3978  -0.3968  -0.3967  -0.3953  -0.3945  -0.3926  -0.3923  -0.3912
 -0.3879  -0.3872  -0.3866  -0.3861  -0.3855  -0.3854  -0.3849  -0.3843
 -0.3839  -0.3837  -0.3831  -0.3823  -0.3817  -0.3810  -0.3806  -0.3805
 -0.3799  -0.3791  -0.3787  -0.3783  -0.3765  -0.3755  -0.3752  -0.3748
 -0.3735  -0.3721  -0.3718  -0.3702  -0.3698  -0.3685  -0.3674  -0.3658
 -0.3636  -0.3631  -0.3617  -0.3608  -0.3574  -0.3567  -0.3558  -0.3547
 -0.3534  -0.3521  -0.3513  -0.3493  -0.3486  -0.3473  -0.3465  -0.3428
 -0.3404  -0.3391  -0.3369  -0.3244  -0.3158  -0.3072  -0.3056  -0.3016
 -0.2967  -0.2959  -0.2941  -0.2864  -0.2827  -0.2819  -0.2804  -0.2791
 -0.2775  -0.2770  -0.2747  -0.2727  -0.2708  -0.2688  -0.2668  -0.2642
 -0.2630  -0.2628  -0.2627  -0.2616  -0.2600  -0.2583  -0.2574  -0.2565
 -0.2535  -0.2530  -0.2526  -0.2518  -0.2514  -0.2510  -0.2508  -0.2477
 -0.2471  -0.2460  -0.2443  -0.2436  -0.2432  -0.2424  -0.2410  -0.2402
 -0.2380  -0.2351  -0.2295  -0.2262  -0.2253  -0.2228  -0.2219  -0.2217
 -0.2188  -0.2181  -0.2151  -0.2112  -0.1916
 -- Virtual --
 -0.0358  -0.0239  -0.0236  -0.0223  -0.0185  -0.0173  -0.0156  -0.0131
 -0.0127  -0.0124  -0.0111  -0.0108  -0.0097  -0.0090  -0.0088  -0.0066
 -0.0058  -0.0047  -0.0037  -0.0031  -0.0014  -0.0011   0.0004   0.0005
  0.0018   0.0031   0.0036   0.0040   0.0043   0.0055   0.0058   0.0069
  0.0075   0.0078   0.0081   0.0097   0.0105   0.0108   0.0114   0.0122
  0.0127   0.0137   0.0147   0.0150   0.0161   0.0168   0.0176   0.0184
  0.0191   0.0199   0.0204   0.0213   0.0222   0.0229   0.0236   0.0244
  0.0254   0.0257   0.0265   0.0270   0.0284   0.0286   0.0288   0.0291
  0.0300   0.0304   0.0309   0.0315   0.0332   0.0341   0.0344   0.0355
  0.0362   0.0367   0.0374   0.0379   0.0383   0.0386   0.0391   0.0403
  0.0409   0.0415   0.0419   0.0423   0.0429   0.0434   0.0448   0.0454
  0.0457   0.0465   0.0471   0.0478   0.0481   0.0486   0.0490   0.0498
  0.0504   0.0510   0.0516   0.0517   0.0520   0.0529   0.0539   0.0542
  0.0548   0.0553   0.0557   0.0562   0.0570   0.0576   0.0583   0.0587
  0.0594   0.0596   0.0603   0.0607   0.0618   0.0620   0.0631   0.0635
  0.0646   0.0654   0.0658   0.0663   0.0667   0.0675   0.0681   0.0688
  0.0689   0.0695   0.0702   0.0712   0.0716   0.0723   0.0735   0.0736
  0.0744   0.0750   0.0756   0.0764   0.0765   0.0773   0.0779   0.0788
  0.0791   0.0795   0.0799   0.0811   0.0821   0.0832   0.0838   0.0843
  0.0852   0.0854   0.0858   0.0867   0.0873   0.0875   0.0881   0.0884
  0.0893   0.0902   0.0915   0.0925   0.0930   0.0933   0.0934   0.0941
  0.0955   0.0966   0.0968   0.0978   0.0987   0.0991   0.0997   0.1001
  0.1005   0.1013   0.1020   0.1027   0.1033   0.1041   0.1043   0.1058
  0.1059   0.1066   0.1068   0.1081   0.1094   0.1097   0.1101   0.1109
  0.1111   0.1124   0.1127   0.1131   0.1142   0.1149   0.1164   0.1166
  0.1170   0.1170   0.1183   0.1185   0.1185   0.1193   0.1200   0.1202
  0.1211   0.1217   0.1226   0.1232   0.1242   0.1244   0.1250   0.1260
  0.1267   0.1271   0.1276   0.1280   0.1285   0.1288   0.1297   0.1303
  0.1308   0.1313   0.1316   0.1321   0.1333   0.1336   0.1348   0.1350
  0.1359   0.1360   0.1368   0.1370   0.1379   0.1382   0.1385   0.1392
  0.1395   0.1403   0.1409   0.1416   0.1419   0.1424   0.1425   0.1432
  0.1442   0.1446   0.1449   0.1455   0.1458   0.1459   0.1474   0.1483
  0.1489   0.1494   0.1496   0.1508   0.1511   0.1516   0.1525   0.1530
  0.1533   0.1535   0.1538   0.1548   0.1558   0.1560   0.1570   0.1576
  0.1582   0.1591   0.1599   0.1602   0.1610   0.1618   0.1625   0.1626
  0.1640   0.1648   0.1655   0.1663   0.1670   0.1675   0.1678   0.1688
  0.1693   0.1698   0.1704   0.1715   0.1717   0.1722   0.1726   0.1731
  0.1746   0.1751   0.1754   0.1760   0.1773   0.1779   0.1787   0.1790
  0.1794   0.1805   0.1812   0.1817   0.1823   0.1831   0.1833   0.1845
  0.1847   0.1860   0.1866   0.1871   0.1876   0.1884   0.1889   0.1901
  0.1907   0.1914   0.1915   0.1917   0.1926   0.1928   0.1932   0.1938
  0.1944   0.1952   0.1954   0.1965   0.1971   0.1974   0.1975   0.1984
  0.1988   0.2003   0.2009   0.2010   0.2021   0.2027   0.2033   0.2037
  0.2044   0.2053   0.2058   0.2066   0.2078   0.2080   0.2086   0.2092
  0.2098   0.2108   0.2122   0.2125   0.2127   0.2129   0.2138   0.2146
  0.2151   0.2163   0.2170   0.2177   0.2180   0.2185   0.2198   0.2200
  0.2207   0.2213   0.2221   0.2225   0.2233   0.2239   0.2244   0.2249
  0.2260   0.2261   0.2262   0.2274   0.2275   0.2293   0.2297   0.2302
  0.2309   0.2317   0.2320   0.2325   0.2329   0.2333   0.2350   0.2352
  0.2362   0.2371   0.2373   0.2387   0.2389   0.2392   0.2395   0.2408
  0.2413   0.2419   0.2428   0.2438   0.2443   0.2452   0.2453   0.2458
  0.2465   0.2472   0.2481   0.2487   0.2489   0.2500   0.2506   0.2520
  0.2523   0.2527   0.2535   0.2536   0.2545   0.2549   0.2554   0.2567
  0.2574   0.2579   0.2592   0.2597   0.2604   0.2609   0.2617   0.2623
  0.2633   0.2642   0.2651   0.2662   0.2671   0.2680   0.2685   0.2689
  0.2693   0.2702   0.2706   0.2722   0.2731   0.2738   0.2744   0.2753
  0.2758   0.2764   0.2775   0.2778   0.2787   0.2789   0.2805   0.2808
  0.2819   0.2821   0.2829   0.2840   0.2855   0.2859   0.2864   0.2872
  0.2875   0.2880   0.2892   0.2903   0.2918   0.2923   0.2926   0.2931
  0.2946   0.2952   0.2959   0.2967   0.2981   0.2987   0.2990   0.2994
  0.3006   0.3020   0.3033   0.3043   0.3052   0.3055   0.3067   0.3073
  0.3083   0.3088   0.3094   0.3100   0.3111   0.3118   0.3127   0.3136
  0.3145   0.3153   0.3167   0.3176   0.3184   0.3191   0.3196   0.3201
  0.3214   0.3218   0.3234   0.3238   0.3242   0.3254   0.3261   0.3268
  0.3270   0.3281   0.3287   0.3300   0.3310   0.3317   0.3325   0.3335
  0.3341   0.3359   0.3363   0.3371   0.3382   0.3388   0.3396   0.3408
  0.3412   0.3422   0.3430   0.3434   0.3446   0.3460   0.3467   0.3469
  0.3486   0.3496   0.3503   0.3506   0.3515   0.3527   0.3534   0.3545
  0.3549   0.3560   0.3565   0.3569   0.3579   0.3584   0.3596   0.3613
  0.3625   0.3628   0.3630   0.3639   0.3655   0.3660   0.3665   0.3670
  0.3674   0.3691   0.3697   0.3714   0.3720   0.3731   0.3740   0.3746
  0.3757   0.3768   0.3773   0.3779   0.3787   0.3798   0.3811   0.3823
  0.3831   0.3836   0.3851   0.3853   0.3859   0.3869   0.3885   0.3900
  0.3905   0.3916   0.3926   0.3941   0.3951   0.3955   0.3966   0.3973
  0.3982   0.3985   0.4001   0.4004   0.4016   0.4029   0.4034   0.4047
  0.4067   0.4075   0.4083   0.4086   0.4097   0.4108   0.4114   0.4118
  0.4123   0.4139   0.4147   0.4154   0.4174   0.4176   0.4188   0.4193
  0.4204   0.4219   0.4237   0.4243   0.4249   0.4259   0.4270   0.4282
  0.4289   0.4309   0.4323   0.4329   0.4334   0.4343   0.4350   0.4365
  0.4389   0.4397   0.4404   0.4409   0.4420   0.4424   0.4433   0.4451
  0.4471   0.4484   0.4488   0.4499   0.4512   0.4528   0.4531   0.4546
  0.4553   0.4569   0.4582   0.4593   0.4601   0.4627   0.4633   0.4642
  0.4663   0.4669   0.4690   0.4694   0.4703   0.4716   0.4726   0.4754
  0.4773   0.4788   0.4790   0.4806   0.4815   0.4835   0.4851   0.4860
  0.4874   0.4885   0.4909   0.4920   0.4929   0.4937   0.4959   0.4982
  0.4999   0.5003   0.5011   0.5018   0.5031   0.5060   0.5073   0.5103
  0.5106   0.5127   0.5141   0.5158   0.5168   0.5180   0.5184   0.5212
  0.5217   0.5231   0.5244   0.5261   0.5267   0.5299   0.5328   0.5337
  0.5360   0.5383   0.5402   0.5433   0.5442   0.5451   0.5458   0.5492
  0.5505   0.5513   0.5536   0.5562   0.5572   0.5576   0.5602   0.5619
  0.5641   0.5647   0.5666   0.5669   0.5679   0.5687   0.5716   0.5729
  0.5735   0.5746   0.5756   0.5776   0.5787   0.5798   0.5804   0.5829
  0.5833   0.5850   0.5872   0.5882   0.5890   0.5915   0.5927   0.5945
  0.5969   0.5982   0.5993   0.6007   0.6019   0.6033   0.6056   0.6073
  0.6083   0.6098   0.6120   0.6131   0.6144   0.6163   0.6167   0.6180
  0.6197   0.6204   0.6216   0.6244   0.6249   0.6257   0.6276   0.6288
  0.6305   0.6312   0.6319   0.6328   0.6337   0.6351   0.6357   0.6370
  0.6374   0.6386   0.6396   0.6412   0.6422   0.6439   0.6446   0.6462
  0.6468   0.6484   0.6489   0.6508   0.6518   0.6524   0.6532   0.6535
  0.6547   0.6558   0.6560   0.6579   0.6596   0.6608   0.6613   0.6629
  0.6644   0.6652   0.6662   0.6673   0.6687   0.6691   0.6706   0.6709
  0.6731   0.6742   0.6747   0.6757   0.6781   0.6793   0.6811   0.6814
  0.6827   0.6831   0.6849   0.6852   0.6859   0.6870   0.6882   0.6897
  0.6908   0.6934   0.6940   0.6946   0.6952   0.6968   0.6988   0.6993
  0.7009   0.7018   0.7039   0.7041   0.7055   0.7064   0.7081   0.7088
  0.7105   0.7130   0.7136   0.7148   0.7157   0.7175   0.7184   0.7203
  0.7220   0.7229   0.7246   0.7257   0.7272   0.7277   0.7296   0.7302
  0.7317   0.7346   0.7367   0.7383   0.7393   0.7404   0.7418   0.7427
  0.7435   0.7452   0.7477   0.7481   0.7498   0.7509   0.7520   0.7540
  0.7550   0.7570   0.7576   0.7593   0.7604   0.7636   0.7642   0.7676
  0.7685   0.7697   0.7713   0.7718   0.7736   0.7745   0.7759   0.7780
  0.7802   0.7822   0.7831   0.7834   0.7854   0.7863   0.7881   0.7893
  0.7922   0.7942   0.7950   0.7960   0.7966   0.7978   0.8004   0.8011
  0.8024   0.8045   0.8075   0.8083   0.8089   0.8122   0.8127   0.8138
  0.8156   0.8176   0.8189   0.8195   0.8208   0.8224   0.8239   0.8245
  0.8268   0.8275   0.8294   0.8304   0.8319   0.8328   0.8348   0.8366
  0.8379   0.8410   0.8418   0.8432   0.8442   0.8467   0.8474   0.8493
  0.8503   0.8505   0.8537   0.8556   0.8558   0.8564   0.8578   0.8590
  0.8599   0.8617   0.8619   0.8638   0.8655   0.8670   0.8681   0.8690
  0.8699   0.8713   0.8719   0.8733   0.8743   0.8758   0.8767   0.8783
  0.8786   0.8808   0.8825   0.8837   0.8843   0.8848   0.8864   0.8883
  0.8889   0.8895   0.8911   0.8930   0.8936   0.8949   0.8967   0.8979
  0.8991   0.8994   0.9007   0.9017   0.9029   0.9037   0.9065   0.9067
  0.9073   0.9082   0.9093   0.9120   0.9134   0.9146   0.9151   0.9165
  0.9182   0.9194   0.9202   0.9218   0.9224   0.9230   0.9247   0.9257
  0.9262   0.9268   0.9276   0.9301   0.9316   0.9325   0.9336   0.9350
  0.9366   0.9372   0.9374   0.9384   0.9401   0.9410   0.9428   0.9441
  0.9448   0.9463   0.9473   0.9487   0.9503   0.9508   0.9525   0.9542
  0.9543   0.9554   0.9560   0.9571   0.9584   0.9588   0.9608   0.9611
  0.9619   0.9639   0.9645   0.9655   0.9665   0.9678   0.9681   0.9689
  0.9709   0.9712   0.9732   0.9741   0.9745   0.9748   0.9769   0.9772
  0.9789   0.9799   0.9806   0.9828   0.9843   0.9853   0.9859   0.9870
  0.9885   0.9898   0.9901   0.9924   0.9938   0.9946   0.9950   0.9962
  0.9972   0.9982   0.9995   1.0005   1.0016   1.0019   1.0029   1.0035
  1.0046   1.0054   1.0077   1.0082   1.0114   1.0124   1.0131   1.0154
  1.0165   1.0169   1.0190   1.0199   1.0210   1.0221   1.0235   1.0250
  1.0257   1.0275   1.0285   1.0297   1.0313   1.0319   1.0348   1.0351
  1.0359   1.0373   1.0384   1.0400   1.0412   1.0431   1.0455   1.0457
  1.0473   1.0486   1.0497   1.0505   1.0520   1.0525   1.0535   1.0548
  1.0585   1.0606   1.0608   1.0614   1.0618   1.0639   1.0647   1.0663
  1.0671   1.0691   1.0697   1.0728   1.0741   1.0752   1.0762   1.0779
  1.0785   1.0787   1.0802   1.0829   1.0837   1.0859   1.0873   1.0883
  1.0893   1.0923   1.0941   1.0946   1.0954   1.0964   1.0996   1.1011
  1.1015   1.1035   1.1042   1.1054   1.1070   1.1079   1.1099   1.1110
  1.1114   1.1131   1.1157   1.1166   1.1178   1.1196   1.1197   1.1213
  1.1223   1.1243   1.1254   1.1267   1.1275   1.1288   1.1309   1.1318
  1.1341   1.1359   1.1363   1.1368   1.1386   1.1393   1.1417   1.1423
  1.1442   1.1446   1.1465   1.1485   1.1492   1.1499   1.1512   1.1540
  1.1549   1.1553   1.1564   1.1578   1.1585   1.1623   1.1633   1.1635
  1.1646   1.1666   1.1696   1.1701   1.1702   1.1731   1.1736   1.1765
  1.1775   1.1805   1.1819   1.1842   1.1849   1.1877   1.1890   1.1900
  1.1905   1.1920   1.1934   1.1964   1.1973   1.1994   1.2008   1.2029
  1.2042   1.2051   1.2058   1.2106   1.2112   1.2157   1.2162   1.2180
  1.2208   1.2231   1.2241   1.2262   1.2287   1.2301   1.2326   1.2337
  1.2360   1.2390   1.2405   1.2420   1.2428   1.2455   1.2474   1.2505
  1.2528   1.2544   1.2570   1.2594   1.2622   1.2656   1.2676   1.2689
  1.2700   1.2724   1.2737   1.2755   1.2775   1.2804   1.2823   1.2832
  1.2868   1.2880   1.2915   1.2926   1.2936   1.2962   1.2971   1.2983
  1.3024   1.3033   1.3051   1.3061   1.3074   1.3109   1.3130   1.3157
  1.3185   1.3198   1.3221   1.3223   1.3245   1.3265   1.3306   1.3326
  1.3343   1.3367   1.3387   1.3402   1.3414   1.3435   1.3450   1.3471
  1.3484   1.3495   1.3527   1.3530   1.3552   1.3562   1.3581   1.3600
  1.3623   1.3628   1.3651   1.3665   1.3673   1.3708   1.3715   1.3727
  1.3757   1.3767   1.3776   1.3785   1.3800   1.3808   1.3830   1.3853
  1.3863   1.3872   1.3889   1.3902   1.3919   1.3940   1.3951   1.3969
  1.3970   1.3986   1.4025   1.4026   1.4041   1.4053   1.4075   1.4088
  1.4106   1.4115   1.4150   1.4158   1.4173   1.4186   1.4200   1.4209
  1.4222   1.4228   1.4248   1.4261   1.4287   1.4289   1.4294   1.4316
  1.4330   1.4346   1.4365   1.4391   1.4402   1.4420   1.4427   1.4443
  1.4461   1.4478   1.4507   1.4516   1.4535   1.4557   1.4584   1.4596
  1.4608   1.4641   1.4647   1.4665   1.4681   1.4703   1.4714   1.4732
  1.4757   1.4780   1.4796   1.4805   1.4824   1.4838   1.4872   1.4884
  1.4893   1.4918   1.4936   1.4983   1.4991   1.5022   1.5058   1.5075
  1.5084   1.5123   1.5129   1.5171   1.5212   1.5236   1.5250   1.5261
  1.5274   1.5296   1.5333   1.5341   1.5415   1.5425   1.5448   1.5465
  1.5492   1.5504   1.5525   1.5574   1.5582   1.5646   1.5665   1.5698
  1.5721   1.5756   1.5818   1.5819   1.5863   1.5889   1.5954   1.5976
  1.6016   1.6038   1.6055   1.6137   1.6206   1.6247   1.6289   1.6313
  1.6387   1.6415   1.6453   1.6492   1.6519   1.6546   1.6560   1.6574
  1.6589   1.6603   1.6628   1.6657   1.6669   1.6680   1.6701   1.6728
  1.6749   1.6771   1.6783   1.6793   1.6804   1.6811   1.6815   1.6833
  1.6842   1.6860   1.6880   1.6885   1.6891   1.6909   1.6922   1.6940
  1.6954   1.6959   1.6966   1.6981   1.6997   1.7011   1.7014   1.7025
  1.7044   1.7046   1.7073   1.7082   1.7095   1.7113   1.7137   1.7139
  1.7152   1.7165   1.7198   1.7208   1.7229   1.7240   1.7259   1.7272
  1.7288   1.7306   1.7313   1.7326   1.7345   1.7353   1.7363   1.7374
  1.7386   1.7388   1.7407   1.7431   1.7443   1.7447   1.7468   1.7470
  1.7483   1.7491   1.7514   1.7537   1.7543   1.7558   1.7567   1.7574
  1.7594   1.7615   1.7621   1.7634   1.7660   1.7671   1.7694   1.7728
  1.7743   1.7759   1.7770   1.7790   1.7798   1.7809   1.7838   1.7866
  1.7876   1.7887   1.7898   1.7910   1.7923   1.7935   1.7937   1.7964
  1.7971   1.8001   1.8011   1.8022   1.8037   1.8056   1.8078   1.8085
  1.8108   1.8149   1.8175   1.8194   1.8250   1.8323   1.8372   1.8404
  1.8423   1.8461   1.8484   1.8580   1.8592   1.8602   1.8624   1.8630
  1.8646   1.8670   1.8680   1.8692   1.8709   1.8731   1.8753   1.8773
  1.8779   1.8799   1.8808   1.8832   1.8835   1.8858   1.8866   1.8875
  1.8888   1.8902   1.8909   1.8923   1.8939   1.8947   1.8957   1.8974
  1.8990   1.9005   1.9024   1.9039   1.9042   1.9048   1.9066   1.9076
  1.9085   1.9094   1.9104   1.9112   1.9129   1.9152   1.9164   1.9181
  1.9207   1.9218   1.9222   1.9228   1.9247   1.9265   1.9279   1.9293
  1.9306   1.9314   1.9354   1.9383   1.9395   1.9410   1.9429   1.9442
  1.9475   1.9506   1.9520   1.9543   1.9584   1.9622   1.9665   1.9752
  1.9757   1.9823   1.9851   1.9893   1.9981   2.0013   2.0079   2.0100
  2.0275   2.0356   2.0367   2.0447   2.0460   2.0490   2.0498   2.0522
  2.0550   2.0584   2.0590   2.0648   2.0659   2.0685   2.0707   2.0717
  2.0732   2.0754   2.0770   2.0775   2.0782   2.0790   2.0792   2.0797
  2.0823   2.0839   2.0866   2.0875   2.0888   2.0902   2.0909   2.0924
  2.0936   2.0942   2.0969   2.0971   2.0980   2.0993   2.1005   2.1034
  2.1038   2.1068   2.1075   2.1099   2.1113   2.1121   2.1140   2.1162
  2.1186   2.1206   2.1226   2.1260   2.1267   2.1283   2.1342   2.1360
  2.1370   2.1385   2.1419   2.1534   2.1586   2.1602   2.1623   2.1633
  2.1650   2.1724   2.1733   2.1768   2.1835   2.1846   2.1854   2.1907
  2.1956   2.1973   2.1987   2.1997   2.2033   2.2065   2.2081   2.2083
  2.2101   2.2127   2.2132   2.2163   2.2186   2.2197   2.2208   2.2221
  2.2242   2.2248   2.2253   2.2262   2.2279   2.2294   2.2317   2.2330
  2.2338   2.2348   2.2360   2.2364   2.2375   2.2380   2.2390   2.2395
  2.2405   2.2406   2.2412   2.2427   2.2430   2.2441   2.2463   2.2468
  2.2495   2.2506   2.2516   2.2526   2.2540   2.2554   2.2561   2.2573
  2.2585   2.2596   2.2606   2.2615   2.2623   2.2633   2.2637   2.2651
  2.2655   2.2666   2.2670   2.2689   2.2691   2.2701   2.2716   2.2724
  2.2739   2.2755   2.2766   2.2772   2.2785   2.2789   2.2804   2.2808
  2.2816   2.2824   2.2829   2.2844   2.2854   2.2862   2.2864   2.2873
  2.2879   2.2894   2.2901   2.2906   2.2912   2.2933   2.2955   2.2966
  2.2973   2.2987   2.3001   2.3018   2.3027   2.3042   2.3045   2.3053
  2.3067   2.3072   2.3080   2.3103   2.3111   2.3121   2.3134   2.3142
  2.3144   2.3160   2.3173   2.3184   2.3192   2.3198   2.3220   2.3225
  2.3263   2.3279   2.3291   2.3297   2.3308   2.3339   2.3365   2.3380
  2.3384   2.3397   2.3407   2.3415   2.3449   2.3464   2.3496   2.3507
  2.3526   2.3545   2.3554   2.3559   2.3568   2.3583   2.3596   2.3637
  2.3675   2.3692   2.3711   2.3733   2.3794   2.3834   2.3858   2.3867
  2.3901   2.3939   2.3965   2.4027   2.4044   2.4103   2.4139   2.4264
  2.4296   2.4826   2.4984   2.5014   2.5440   2.5593   2.5907   2.6727
  2.7134   2.7483   2.7977   2.8023   2.8147   2.8260   2.8327   2.8365
  2.8385   2.8391   2.8396   2.8422   2.8426   2.8455   2.8470   2.8506
  2.8524   2.8598   2.8621   2.8629   2.8636   2.8651   2.8693   2.8717
  2.8721   2.8741   2.8750   2.8760   2.8775   2.8808   2.8815   2.8946
  2.8972   2.9523   3.1138   3.2424   3.9392   3.9455   3.9544   3.9611
  3.9651   3.9672   3.9712   3.9728   3.9784   3.9804   3.9827   3.9837
  3.9840   3.9885   3.9940   3.9964   3.9996   4.0053   4.0104   4.0156
  4.0165   4.0185   4.0204   4.0214   4.0234   4.0315   4.1766   4.1919
  4.2042   4.2097   4.2123   4.2281   4.2317   4.2326   4.2360   4.2409
  4.2410   4.2450   4.2463   4.2509   4.2567   4.2577   4.2604   4.2621
  4.2643   4.2666   4.2722   4.2746   4.2757   4.2799   4.2829   4.2892
  4.2907   4.2925   4.2954   4.2980   4.3006   4.3034   4.3056   4.3067
  4.3127   4.3157   4.3160   4.3165   4.3206   4.3242   4.3278   4.3283
  4.3339   4.3374   4.3397   4.3405   4.3422   4.3470   4.3504   4.3543
  4.3553   4.3576   4.3626   4.3637   4.3679   4.3686   4.3746   4.3788
  4.3810   4.3876   4.3901   4.3974   4.4089   4.4126   4.4138   4.4200
  4.4270   4.4419   4.4446   4.4477   4.4593   4.4650   4.4737   4.4776
  4.4896   4.4968   4.5080   4.5368   4.5450   4.5583   4.5857   4.5935
  4.6217   4.7059   4.7557   4.7977   4.9054
 --------------------------------------------------------------
 
          Ground-State Mulliken Net Atomic Charges

     Atom                 Charge (a.u.)
  ----------------------------------------
      1 C                    -0.164498
      2 C                    -0.528580
      3 C                    -0.044299
      4 C                    -0.569222
      5 C                    -0.549341
      6 C                    -0.546526
      7 H                     0.237543
      8 H                     0.212978
      9 H                     0.209754
     10 H                     0.203772
     11 H                     0.207275
     12 H                     0.227867
     13 H                     0.202575
     14 H                     0.195098
     15 H                     0.216118
     16 H                     0.201678
     17 H                     0.194008
     18 N                    -0.351358
     19 H                     0.469176
     20 C                     0.329681
     21 H                     0.203484
     22 O                    -0.557183
     23 C                    -0.856844
     24 H                     0.293845
     25 H                     0.284221
     26 H                     0.205165
     27 S                     0.870853
     28 C                    -0.850643
     29 H                     0.217827
     30 H                     0.257261
     31 H                     0.243512
     32 O                    -0.690800
     33 C                    -0.930170
     34 H                     0.259448
     35 H                     0.242527
     36 H                     0.258527
     37 S                     0.971942
     38 C                    -0.862041
     39 H                     0.260736
     40 H                     0.252811
     41 H                     0.224603
     42 O                    -0.721860
     43 C                    -0.808067
     44 H                     0.272218
     45 H                     0.242267
     46 H                     0.248881
     47 S                     0.799232
     48 C                    -0.869989
     49 H                     0.251654
     50 H                     0.263637
     51 H                     0.251662
     52 O                    -0.693226
     53 C                    -0.720498
     54 H                     0.259152
     55 H                     0.282981
     56 H                     0.206613
     57 S                     0.902698
     58 C                    -0.933848
     59 H                     0.223873
     60 H                     0.261147
     61 H                     0.254543
     62 O                    -0.698513
     63 C                    -0.817012
     64 H                     0.256896
     65 H                     0.238073
     66 H                     0.245569
     67 S                     0.847325
     68 C                    -0.740211
     69 H                     0.280295
     70 H                     0.251513
     71 H                     0.236262
     72 O                    -0.740697
     73 C                    -0.946921
     74 H                     0.304471
     75 H                     0.275982
     76 H                     0.238145
     77 S                     0.997211
     78 C                    -0.999442
     79 H                     0.269982
     80 H                     0.267155
     81 H                     0.274438
     82 O                    -0.712370
     83 C                    -0.685122
     84 H                     0.262623
     85 H                     0.279364
     86 H                     0.233085
     87 S                     0.699710
     88 C                    -0.797682
     89 H                     0.246718
     90 H                     0.232655
     91 H                     0.253481
     92 O                    -0.712685
     93 C                    -0.714017
     94 H                     0.230005
     95 H                     0.286967
     96 H                     0.230562
     97 S                     0.856737
     98 C                    -0.921121
     99 H                     0.305772
    100 H                     0.235273
    101 H                     0.224203
    102 O                    -0.731333
    103 C                    -0.864790
    104 H                     0.284440
    105 H                     0.252885
    106 H                     0.269837
    107 S                     0.879509
    108 C                    -0.921266
    109 H                     0.266043
    110 H                     0.283687
    111 H                     0.226530
    112 O                    -0.621987
    113 C                    -0.849758
    114 H                     0.235990
    115 H                     0.302494
    116 H                     0.238575
    117 S                     1.022950
    118 C                    -0.948055
    119 H                     0.249291
    120 H                     0.278500
    121 H                     0.251001
    122 O                    -0.705953
    123 C                    -0.876185
    124 H                     0.247868
    125 H                     0.206607
    126 H                     0.300120
    127 S                     0.975908
    128 C                    -0.916847
    129 H                     0.240926
    130 H                     0.248260
    131 H                     0.212337
    132 O                    -0.608619
    133 C                    -0.865910
    134 H                     0.273778
    135 H                     0.307499
    136 H                     0.234315
    137 S                     0.780941
    138 C                    -0.942881
    139 H                     0.287900
    140 H                     0.237576
    141 H                     0.264532
    142 O                    -0.587466
    143 C                    -0.860592
    144 H                     0.286150
    145 H                     0.213085
    146 H                     0.275925
    147 S                     0.859570
    148 C                    -0.842280
    149 H                     0.242012
    150 H                     0.241398
    151 H                     0.251301
    152 O                    -0.675109
    153 C                    -0.842369
    154 H                     0.248879
    155 H                     0.276798
    156 H                     0.242167
    157 S                     0.933560
    158 C                    -0.949149
    159 H                     0.225526
    160 H                     0.265836
    161 H                     0.307973
    162 O                    -0.681939
    163 C                    -0.966454
    164 H                     0.259535
    165 H                     0.290162
    166 H                     0.254874
    167 S                     0.842658
    168 C                    -0.812060
    169 H                     0.240224
    170 H                     0.276751
    171 H                     0.256685
    172 O                    -0.692876
    173 C                    -0.818177
    174 H                     0.224814
    175 H                     0.242547
    176 H                     0.250701
    177 S                     0.844633
    178 C                    -0.843897
    179 H                     0.277356
    180 H                     0.241800
    181 H                     0.251756
    182 O                    -0.700168
    183 C                    -0.732600
    184 H                     0.260719
    185 H                     0.259560
    186 H                     0.313521
    187 S                     0.613485
    188 C                    -0.809715
    189 H                     0.225592
    190 H                     0.249493
    191 H                     0.255335
    192 O                    -0.661603
    193 C                    -0.836982
    194 H                     0.239463
    195 H                     0.254970
    196 H                     0.251728
    197 S                     0.871724
    198 C                    -0.789233
    199 H                     0.254306
    200 H                     0.260215
    201 H                     0.241852
    202 O                    -0.697088
    203 C                    -0.885473
    204 H                     0.269362
    205 H                     0.178939
    206 H                     0.233925
    207 S                     1.357461
    208 C                    -1.059617
    209 H                     0.226756
    210 H                     0.276048
    211 H                     0.248883
    212 O                    -0.755754
    213 C                    -0.829116
    214 H                     0.252092
    215 H                     0.218022
    216 H                     0.275154
    217 S                     0.827803
    218 C                    -0.922034
    219 H                     0.291826
    220 H                     0.247546
    221 H                     0.255890
    222 O                    -0.644489
    223 C                    -0.786132
    224 H                     0.248730
    225 H                     0.259878
    226 H                     0.235664
    227 S                     0.762321
    228 C                    -0.745341
    229 H                     0.228378
    230 H                     0.265816
    231 H                     0.247892
    232 O                    -0.686991
    233 C                    -0.711720
    234 H                     0.269379
    235 H                     0.249082
    236 H                     0.239586
    237 S                     0.626158
    238 C                    -0.625709
    239 H                     0.240178
    240 H                     0.232703
    241 H                     0.257818
    242 O                    -0.756874
    243 C                    -0.964160
    244 H                     0.306235
    245 H                     0.253002
    246 H                     0.263317
    247 S                     0.968759
    248 C                    -0.964971
    249 H                     0.238025
    250 H                     0.284788
    251 H                     0.249582
    252 O                    -0.681695
    253 C                    -1.113620
    254 H                     0.257800
    255 H                     0.281359
    256 H                     0.241799
    257 S                     0.798948
    258 C                    -0.734811
    259 H                     0.260497
    260 H                     0.269118
    261 H                     0.285460
    262 O                    -0.625055
    263 C                    -0.952635
    264 H                     0.250493
    265 H                     0.234296
    266 H                     0.290039
    267 S                     0.943779
    268 C                    -0.816119
    269 H                     0.234371
    270 H                     0.254486
    271 H                     0.267891
    272 O                    -0.739598
    273 C                    -0.956676
    274 H                     0.267722
    275 H                     0.239683
    276 H                     0.238810
    277 S                     0.866453
    278 C                    -0.778045
    279 H                     0.268996
    280 H                     0.237348
    281 H                     0.254501
    282 O                    -0.678337
  ----------------------------------------
  Sum of atomic charges =     0.000000

 -----------------------------------------------------------------
                    Cartesian Multipole Moments
 -----------------------------------------------------------------
    Charge (ESU x 10^10)
                -0.0000
    Dipole Moment (Debye)
         X      -7.6422      Y      10.5608      Z      16.6751
       Tot      21.1659
    Quadrupole Moments (Debye-Ang)
        XX   -1051.9827     XY      27.8682     YY    -589.6282
        XZ     157.8182     YZ     480.9720     ZZ    -122.5663
    Octopole Moments (Debye-Ang^2)
       XXX  -66721.2357    XXY  -20122.0310    XYY  -21844.6871
       YYY  -53588.5948    XXZ  -19579.2619    XYZ    4269.7075
       YYZ  -14699.0956    XZZ  -12047.1884    YZZ   -3831.9532
       ZZZ  -42653.7358
    Hexadecapole Moments (Debye-Ang^3)
      XXXX ************   XXXY ************   XXYY ************
      XYYY ************   YYYY ************   XXXZ ************
      XXYZ -468745.6259   XYYZ -594351.3534   YYYZ ************
      XXZZ -987740.9588   XYZZ -355722.5083   YYZZ -881214.1775
      XZZZ ************   YZZZ ************   ZZZZ ************
 -----------------------------------------------------------------
Archival summary:
[...]
    2   0.0210356  -0.0316502   0.0528001  -0.0027052  -0.0300233   0.0182660
    3   0.0221539  -0.0005330  -0.0032019   0.0019487   0.0007794   0.0215114
          121         122         123         124         125         126
    1  -0.0101465   0.0538609   0.0056102   0.0270554  -0.0231194   0.0037110
    2   0.0014491  -0.0712140  -0.0015963   0.0222934  -0.0020349  -0.0278816
    3  -0.0299099  -0.0643686   0.0065053  -0.0002061   0.0133753   0.0227831
          127         128         129         130         131         132
    1   0.0540730  -0.0027096   0.0247610  -0.0049797  -0.0245123  -0.0853780
    2  -0.0180317   0.0037531   0.0210832   0.0045896   0.0095413  -0.0693408
    3  -0.0312459  -0.0017268   0.0024332  -0.0308750   0.0142750   0.0024906
          133         134         135         136         137         138
    1   0.0007291  -0.0035217  -0.0014458   0.0350110   0.0198136  -0.0022941
    2  -0.0037471   0.0272533  -0.0252462  -0.0057612  -0.0389331   0.0094836
    3   0.0101781   0.0102043   0.0250624   0.0044627  -0.0307278  -0.0043784
          139         140         141         142         143         144
    1  -0.0087060   0.0312050  -0.0081829  -0.1015035   0.0061736   0.0248132
    2   0.0166996   0.0042306   0.0097380   0.0092791   0.0082877   0.0122479
    3   0.0280200   0.0014506  -0.0313807   0.0386591   0.0022274  -0.0145554
          145         146         147         148         149         150
    1  -0.0219797   0.0159917  -0.0196688  -0.0049368  -0.0139885  -0.0203434
    2   0.0263240  -0.0161004   0.0130020  -0.0060916   0.0313566  -0.0284996
    3  -0.0003631   0.0241983  -0.0520839   0.0069776  -0.0036553  -0.0041218
          151         152         153         154         155         156
    1   0.0168824   0.0863028   0.0021068  -0.0222927   0.0365004   0.0041845
    2  -0.0079520  -0.0674117  -0.0036623  -0.0103606  -0.0089345  -0.0335485
    3   0.0279199   0.0138947  -0.0026453  -0.0159181  -0.0105669   0.0065247
          157         158         159         160         161         162
    1   0.0363313   0.0033738  -0.0066092   0.0347198  -0.0075779  -0.1060741
    2   0.0474608   0.0017649  -0.0312427  -0.0040831   0.0286290   0.0191870
    3  -0.0231170   0.0095003   0.0061779   0.0012402   0.0168943   0.0112224
          163         164         165         166         167         168
    1  -0.0095836  -0.0068608  -0.0022041  -0.0211314   0.0094367   0.0009347
    2  -0.0053181  -0.0265035   0.0101094   0.0197207   0.0570026  -0.0048643
    3   0.0047378  -0.0083348   0.0334319  -0.0184195  -0.0031522  -0.0076248
          169         170         171         172         173         174
    1   0.0241656  -0.0062962  -0.0230503   0.0620507   0.0021331  -0.0291022
    2   0.0064767  -0.0309137   0.0079341  -0.0706865   0.0008595   0.0054401
    3  -0.0267655   0.0026153  -0.0213001   0.0563053   0.0064607   0.0142977
          175         176         177         178         179         180
    1   0.0271313  -0.0132746  -0.0438956  -0.0017790   0.0275095  -0.0256556
    2  -0.0046754   0.0295410  -0.0018916  -0.0085400   0.0009151  -0.0034660
    3   0.0186828  -0.0044055  -0.0361779   0.0066009   0.0120376   0.0225022
          181         182         183         184         185         186
    1   0.0085244   0.1049770  -0.0041203  -0.0364184   0.0034125   0.0219535
    2  -0.0231377   0.0066161   0.0042130   0.0016857   0.0301470   0.0004332
    3  -0.0231819  -0.0305995  -0.0045582  -0.0156625   0.0150437  -0.0108867
          187         188         189         190         191         192
    1  -0.0013703  -0.0034177  -0.0343503  -0.0007833   0.0023198   0.0921357
    2  -0.0514515   0.0032654  -0.0061208  -0.0217833   0.0314163   0.0350501
    3  -0.0209961   0.0048654  -0.0059190   0.0234050   0.0072202   0.0517425
          193         194         195         196         197         198
    1  -0.0039681  -0.0289280  -0.0030156  -0.0013348   0.0493052  -0.0037507
    2   0.0005009  -0.0049185  -0.0068495   0.0341098   0.0303729   0.0013701
    3   0.0031171  -0.0110569   0.0303602   0.0093666   0.0118367  -0.0082883
          199         200         201         202         203         204
    1  -0.0054145   0.0208545  -0.0292725  -0.0071064   0.0076250   0.0230860
    2   0.0320044  -0.0107017  -0.0101736  -0.1077656   0.0002981   0.0169491
    3  -0.0131324  -0.0206943  -0.0081068   0.0247715   0.0027553  -0.0118669
          205         206         207         208         209         210
    1   0.0011489   0.0073638  -0.0174847  -0.0039601   0.0011203  -0.0323476
    2  -0.0003234  -0.0242937   0.0333910  -0.0044625  -0.0139381  -0.0150347
    3   0.0262930  -0.0187050   0.0346101   0.0002571   0.0285317  -0.0127631
          211         212         213         214         215         216
    1   0.0073545   0.0060616   0.0027944  -0.0117326  -0.0070166   0.0315010
    2  -0.0246895   0.0081055   0.0039399   0.0263974  -0.0042320   0.0102918
    3  -0.0178273  -0.1096431   0.0044546   0.0001198   0.0342956   0.0021928
          217         218         219         220         221         222
    1  -0.0550688   0.0092651   0.0378293  -0.0228275   0.0053998   0.0626633
    2  -0.0120440  -0.0068008   0.0054998  -0.0096203  -0.0235206   0.0502353
    3  -0.0066806   0.0046752  -0.0022898   0.0249750  -0.0171860  -0.0763879
          223         224         225         226         227         228
    1  -0.0026826   0.0026767   0.0129349  -0.0287669  -0.0010409  -0.0041300
    2  -0.0042690  -0.0336633   0.0193002   0.0159226   0.0638168  -0.0072005
    3   0.0070646   0.0062602   0.0230178   0.0087505  -0.0124021  -0.0030457
          229         230         231         232         233         234
    1  -0.0341339   0.0095481  -0.0065970   0.0941040   0.0074031   0.0182925
    2   0.0021158   0.0080991  -0.0374008  -0.0527925   0.0010586   0.0033165
    3   0.0057348  -0.0291275   0.0005266  -0.0058680  -0.0065021  -0.0323746
          235         236         237         238         239         240
    1   0.0071751   0.0294164  -0.0378738  -0.0015117  -0.0114026  -0.0278278
    2   0.0257934  -0.0228395   0.0354648  -0.0074882   0.0084942  -0.0188542
    3   0.0109844   0.0090666  -0.0138806   0.0021514   0.0347662  -0.0008360
          241         242         243         244         245         246
    1   0.0240413   0.0207934  -0.0009853   0.0171269  -0.0304764   0.0026176
    2  -0.0278677  -0.0924352   0.0066576   0.0045520   0.0013842   0.0308111
    3   0.0115786  -0.0589636  -0.0064095  -0.0232168  -0.0193268   0.0139204
          247         248         249         250         251         252
    1  -0.0133133  -0.0022331   0.0014087   0.0117895  -0.0313335   0.0982506
    2  -0.0471470   0.0041124  -0.0193674   0.0217642  -0.0009981   0.0179168
    3  -0.0352325   0.0027667   0.0245745   0.0218243  -0.0117264   0.0439290
          253         254         255         256         257         258
    1   0.0008189   0.0256687   0.0015699  -0.0190508   0.0260211  -0.0091900
    2   0.0013545  -0.0059464   0.0274483  -0.0255844   0.0477473   0.0017552
    3   0.0072918   0.0174700   0.0221378   0.0000451  -0.0066346  -0.0004688
          259         260         261         262         263         264
    1  -0.0174816  -0.0176467  -0.0129285   0.0231335   0.0005348   0.0164499
    2   0.0051221  -0.0267796   0.0310605  -0.0960052  -0.0105547  -0.0037132
    3  -0.0262293  -0.0005388   0.0149153  -0.0495144  -0.0014317  -0.0262069
          265         266         267         268         269         270
    1   0.0160110  -0.0279911   0.0404413  -0.0053224   0.0117261  -0.0161485
    2  -0.0208190  -0.0109190   0.0210143  -0.0041069  -0.0094836   0.0233474
    3   0.0239947  -0.0018838   0.0115894   0.0058061   0.0358978   0.0103260
          271         272         273         274         275         276
    1  -0.0306397  -0.0712613   0.0058670  -0.0032313   0.0072502   0.0195007
    2  -0.0093235   0.0266990   0.0053851   0.0196484   0.0105785  -0.0205258
    3  -0.0083897  -0.0800088  -0.0050424  -0.0289581   0.0331039  -0.0167988
          277         278         279         280         281         282
    1   0.0001852  -0.0049479   0.0220759  -0.0196279  -0.0104850  -0.0741698
    2  -0.0364249  -0.0067017  -0.0243858  -0.0223866   0.0190204   0.0783765
    3   0.0491414  -0.0102567  -0.0001299  -0.0092947  -0.0254872  -0.0174977
  --- DONE ESP SUMMARY ---
Archival summary:
1\1\n0099.mhg0\SP\ProcedureUnspecified\6-31+G*\262652h22\ymao\FriMar1207:55:342021FriMar1207:55:342021\0\\#,ProcedureUnspecified,6-31+G*,\\0,1\S\O,1,1.49652\C,1,1.80686,2,102.071\H,3,1.0925,1,109.824,2,-58.9628,0\H,3,1.09277,1,106.359,2,61.4911,0\H,3,1.09285,1,108.841,2,-176.112,0\C,1,1.80731,2,107.1,3,-98.3916,0\H,7,1.09232,1,106.6,2,-72.9305,0\H,7,1.09307,1,111.925,2,49.2746,0\H,7,1.09316,1,106.166,2,166.729,0\H,4,2.43242,3,101.507,1,83.3152,0\C,11,1.09315,4,147.02,3,167.247,0\H,12,1.09327,11,107.292,4,153.578,0\H,12,1.09385,11,112.373,4,35.4664,0\S,12,1.80777,11,105.246,4,-83.2189,0\O,15,1.49612,12,113.134,11,169.706,0\C,15,1.80716,12,92.1857,11,62.798,0\H,17,1.09217,15,105.781,12,-78.9239,0\H,17,1.09345,15,104.31,12,159.755,0\H,17,1.09366,15,107.456,12,43.9857,0\H,6,2.56816,3,106.111,1,133.98,0\C,21,1.0932,6,94.9492,3,171.465,0\H,22,1.09269,21,106.867,6,-163.803,0\H,22,1.09337,21,111.548,6,-54.4727,0\S,22,1.80661,21,113.24,6,74.8287,0\O,25,1.4965,22,113.362,21,-79.7882,0\C,25,1.80712,22,92.2222,21,178.522,0\H,27,1.09235,25,106.375,22,-170.234,0\H,27,1.09302,25,105.374,22,71.9593,0\H,27,1.09333,25,106.559,22,-50.4415,0\H,29,2.31833,27,137.936,25,-90.5552,0\C,31,1.0925,29,163.753,27,-66.3114,0\H,32,1.09285,31,110.564,29,53.2738,0\H,32,1.09357,31,114.52,29,-177.023,0\S,32,1.80668,31,109.344,29,-59.9437,0\O,35,1.49686,32,103.591,31,-43.1977,0\C,35,1.80669,32,96.7859,31,55.1388,0\H,37,1.09273,35,113.6,32,-154.542,0\H,37,1.09275,35,109.351,32,-40.6707,0\H,37,1.09366,35,109.238,32,87.771,0\Gh,36,2.14525,35,142.84,32,35.0953,0\Gh,41,1.01293,36,173.62,35,26.9439,0\Gh,42,1.37972,41,112.55,36,85.9477,0\Gh,43,1.10481,42,115.645,41,-10.7909,0\Gh,43,1.21734,42,120.45,41,173.89,0\Gh,42,1.46141,41,117.497,36,-113.235,0\Gh,46,1.09647,42,109.855,41,145.692,0\Gh,46,1.53705,42,108.726,41,-88.5539,0\Gh,48,1.09678,46,108.331,42,51.7943,0\Gh,48,1.0972,46,105.656,42,-61.5842,0\Gh,46,1.53754,42,110.199,41,31.142,0\Gh,51,1.09664,46,109.869,42,45.8415,0\Gh,51,1.09727,46,106.871,42,-58.7137,0\Gh,51,1.53799,46,111.685,42,178.181,0\Gh,54,1.09732,51,114.593,46,-62.6298,0\Gh,54,1.09757,51,104.574,46,178.054,0\Gh,54,1.53704,51,106.555,46,59.3349,0\Gh,57,1.09683,54,106.45,51,-170.535,0\Gh,57,1.09752,54,105.107,51,73.9556,0\Gh,57,1.537,54,114.824,51,-55.4804,0\Gh,60,1.09683,57,109.956,54,-178.378,0\Gh,60,1.09707,57,112.213,54,-64.1304,0\H,47,2.19778,46,156.204,42,12.7276,0\C,63,1.09333,47,151.981,46,37.609,0\H,64,1.09263,63,119.176,47,-28.0016,0\H,64,1.09301,63,107.814,47,-160.093,0\S,64,1.8068,63,104.551,47,85.4788,0\O,67,1.49684,64,97.5285,63,49.9332,0\C,67,1.80674,64,95.8563,63,-53.5467,0\H,69,1.09283,67,106.789,64,161.637,0\H,69,1.09304,67,106.617,64,-81.3745,0\H,69,1.09355,67,104.128,64,41.9627,0\H,71,2.12914,69,158.408,67,-15.9653,0\C,73,1.09291,71,126.424,69,165.879,0\H,74,1.09266,73,109.407,71,-41.4607,0\H,74,1.0928,73,104.891,71,78.0056,0\S,74,1.80785,73,113.782,71,-160.486,0\O,77,1.49659,74,110.784,73,-170.994,0\C,77,1.80731,74,92.7345,73,-71.8297,0\H,79,1.0928,77,114.296,74,-165.749,0\H,79,1.09291,77,108.39,74,74.1154,0\H,79,1.09343,77,104.902,74,-39.7065,0\H,76,2.26409,74,141.104,73,-11.9602,0\C,83,1.09298,76,119.92,74,81.4081,0\H,84,1.0929,83,105.956,76,162.337,0\H,84,1.09337,83,112.707,76,44.2388,0\S,84,1.80663,83,108.076,76,-80.9531,0\O,87,1.49642,84,102.985,83,61.9988,0\C,87,1.80719,84,95.4445,83,170.756,0\H,89,1.09202,87,118.255,84,-55.6259,0\H,89,1.09331,87,106.743,84,66.5482,0\H,89,1.09336,87,106.365,84,-172.098,0\H,85,2.06777,84,106.977,83,63.1437,0\C,93,1.09248,85,143.915,84,179.056,0\H,94,1.09253,93,108.57,85,38.2322,0\H,94,1.09295,93,116.246,85,151.781,0\S,94,1.80743,93,115.855,85,-85.5707,0\O,97,1.49662,94,103.612,93,-54.1445,0\C,97,1.80678,94,94.9655,93,60.5342,0\H,99,1.09289,97,110.9,94,-63.6655,0\H,99,1.09324,97,106.643,94,57.1028,0\H,99,1.09328,97,108.325,94,177.2,0\H,49,2.32101,48,155.777,46,-45.0766,0\C,103,1.09234,49,153.485,48,-159.111,0\H,104,1.0932,103,109.983,49,-149.503,0\H,104,1.09364,103,112.194,49,81.9171,0\S,104,1.80745,103,104.977,49,-39.2391,0\O,107,1.49704,104,103.832,103,58.2699,0\C,107,1.80742,104,88.6062,103,-50.0924,0\H,109,1.09252,107,113.54,104,-22.1859,0\H,109,1.0933,107,109.369,104,98.4379,0\H,109,1.09333,107,109.074,104,-142.418,0\H,49,2.33728,48,116.576,46,-134.215,0\C,113,1.09281,49,149.404,48,25.2653,0\H,114,1.0928,113,109.448,49,-65.5408,0\H,114,1.09282,113,108.027,49,-179.215,0\S,114,1.8073,113,110.237,49,60.3382,0\O,117,1.49698,114,112.292,113,72.1962,0\C,117,1.80772,114,93.2561,113,-172.572,0\H,119,1.09274,117,105.894,114,-49.6519,0\H,119,1.09282,117,109.863,114,-173.801,0\H,119,1.09282,117,105.929,114,68.0264,0\H,116,2.14321,114,138.834,113,14.5812,0\C,123,1.09275,116,135.655,114,169.887,0\H,124,1.09305,123,109.352,116,139.285,0\H,124,1.09332,123,106.651,116,-106.823,0\S,124,1.80621,123,116.165,116,13.4567,0\O,127,1.49721,124,98.2455,123,-45.8637,0\C,127,1.80709,124,93.993,123,54.0158,0\H,129,1.09263,127,109.406,124,-171.742,0\H,129,1.09266,127,105.828,124,67.003,0\H,129,1.09268,127,108.926,124,-44.5789,0\H,118,2.31044,117,150.189,114,-88.117,0\C,133,1.09319,118,137.737,117,-81.5332,0\H,134,1.09274,133,108.254,118,31.7374,0\H,134,1.09285,133,112.917,118,-93.7917,0\S,134,1.80684,133,113.843,118,149.252,0\O,137,1.49715,134,103.923,133,65.6177,0\C,137,1.80684,134,96.0522,133,172.048,0\H,139,1.0931,137,109.297,134,57.9437,0\H,139,1.09322,137,105.788,134,175.99,0\H,139,1.09356,137,107.508,134,-59.3049,0\H,135,2.3437,134,120.499,133,-142.277,0\C,143,1.09302,135,157.303,134,51.2509,0\H,144,1.09301,143,111.007,135,162.504,0\H,144,1.09378,143,114.163,135,44.4114,0\S,144,1.80706,143,112.405,135,-81.5106,0\O,147,1.49675,144,106.542,143,73.0265,0\C,147,1.8068,144,98.4595,143,178.67,0\H,149,1.09284,147,107.315,144,-165.558,0\H,149,1.09299,147,115.372,144,-46.6212,0\H,149,1.09315,147,111.25,144,78.0557,0\H,59,2.37286,57,127.398,54,178.241,0\C,153,1.09284,59,105.964,57,-48.8591,0\H,154,1.09267,153,106.363,59,-52.2043,0\H,154,1.0931,153,107.2,59,63.6255,0\S,154,1.80729,153,110.997,59,-170.852,0\O,157,1.49665,154,106.232,153,64.7405,0\C,157,1.80707,154,94.4727,153,171.51,0\H,159,1.09246,157,112.563,154,49.327,0\H,159,1.09269,157,100.487,154,167.652,0\H,159,1.09338,157,111.604,154,-80.0005,0\H,123,2.38931,116,75.5953,114,75.8983,0\C,163,1.09323,123,118.95,116,-119.497,0\H,164,1.09276,163,115.134,123,-92.0888,0\H,164,1.093,163,106.545,123,33.823,0\S,164,1.80683,163,110.913,123,149.19,0\O,167,1.49667,164,102.151,163,-56.2304,0\C,167,1.80712,164,87.9427,163,49.7712,0\H,169,1.09238,167,113.051,164,56.0488,0\H,169,1.09273,167,110.947,164,-72.6837,0\H,169,1.09352,167,106.695,164,176.456,0\H,45,2.39445,43,86.2349,42,127.246,0\C,173,1.09356,45,159.484,43,32.7253,0\H,174,1.09254,173,113.014,45,77.4395,0\H,174,1.09343,173,101.278,45,-164.637,0\S,174,1.8068,173,111.555,45,-55.0487,0\O,177,1.49678,174,108.926,173,84.1326,0\C,177,1.8076,174,92.6486,173,-168.96,0\H,179,1.09224,177,103.735,174,57.0332,0\H,179,1.09287,177,107.826,174,-60.0763,0\H,179,1.09332,177,112.877,174,-177.45,0\O,176,2.33727,174,132.046,173,-61.9539,0\S,183,1.49663,176,133.259,174,-104.368,0\C,184,1.80666,183,105.142,176,-21.5476,0\H,185,1.09272,184,103.496,183,68.3673,0\H,185,1.09326,184,112.091,183,-166.665,0\H,185,1.09334,184,110.767,183,-46.1013,0\C,184,1.80723,183,107.497,176,-131.161,0\H,189,1.09263,184,112.693,183,-75.9235,0\H,189,1.09265,184,100.773,183,39.8089,0\H,189,1.09311,184,108.558,183,162.758,0\H,68,2.45394,67,132.465,64,-80.9145,0\C,193,1.09344,68,138.879,67,-138.789,0\H,194,1.09282,193,103.318,68,-93.1468,0\H,194,1.09374,193,106.347,68,145.576,0\S,194,1.80668,193,111.313,68,23.4984,0\O,197,1.49755,194,99.3551,193,-175.018,0\C,197,1.80746,194,96.6317,193,-75.9197,0\H,199,1.09271,197,105.745,194,-171.004,0\H,199,1.09284,197,111,194,70.1501,0\H,199,1.09316,197,111.769,194,-50.5555,0\H,195,2.2595,194,110.06,193,-172.139,0\C,203,1.09297,195,118.778,194,-136.615,0\H,204,1.09232,203,116.779,195,46.3604,0\H,204,1.09341,203,102.461,195,-72.8843,0\S,204,1.80698,203,120.197,195,174.291,0\O,207,1.4965,204,106.448,203,165.293,0\C,207,1.8074,204,96.9005,203,49.2071,0\H,209,1.09275,207,110.713,204,35.3561,0\H,209,1.09292,207,108.362,204,-79.6801,0\H,209,1.09332,207,110.667,204,153.327,0\H,196,2.28071,194,120.301,193,-110.134,0\C,213,1.09289,196,159.404,194,-141.153,0\H,214,1.09303,213,119.888,196,-167.328,0\H,214,1.09349,213,106.767,196,-47.0177,0\S,214,1.8066,213,107.412,196,67.8291,0\O,217,1.49667,214,105.252,213,-158.322,0\C,217,1.80687,214,98.3769,213,-59.4463,0\H,219,1.09269,217,104.337,214,167.376,0\H,219,1.09285,217,110.841,214,59.7844,0\H,219,1.09331,217,115.657,214,-68.2903,0\H,215,2.26148,214,115.31,213,-154.773,0\C,223,1.09304,215,136.156,214,-119.109,0\H,224,1.09268,223,107.408,215,120.124,0\H,224,1.09309,223,111.045,215,-119.106,0\S,224,1.807,223,101.745,215,-8.5689,0\O,227,1.49636,224,102.637,223,-80.0946,0\C,227,1.80713,224,97.7128,223,171.139,0\H,229,1.09265,227,118.966,224,-167.569,0\H,229,1.09277,227,111.09,224,-42.994,0\H,229,1.09339,227,103.528,224,79.349,0\H,162,2.47481,159,134.002,157,14.7896,0\C,233,1.09307,162,154.389,159,100.049,0\H,234,1.09244,233,113.456,162,93.1998,0\H,234,1.09288,233,112.688,162,-143.731,0\S,234,1.80639,233,102.752,162,-24.0892,0\O,237,1.49647,234,95.5369,233,50.9156,0\C,237,1.80728,234,94.8848,233,154.634,0\H,239,1.09262,237,105.26,234,-46.9103,0\H,239,1.09265,237,100.978,234,-167.201,0\H,239,1.09374,237,107.174,234,76.971,0\H,236,1.85346,234,121.337,233,19.9049,0\C,243,1.09318,236,126.843,234,170.246,0\H,244,1.09256,243,109.991,236,-93.3696,0\H,244,1.09296,243,103.881,236,141.202,0\S,244,1.80683,243,110.138,236,16.3785,0\O,247,1.49722,244,109.602,243,-60.2991,0\C,247,1.80718,244,94.9531,243,51.165,0\H,249,1.0929,247,100.556,244,70.899,0\H,249,1.09318,247,112.758,244,179.848,0\H,249,1.09327,247,111.362,244,-52.8286,0\H,242,2.13422,239,172.977,237,-130.843,0\C,253,1.0928,242,115.673,239,-107.414,0\H,254,1.0924,253,117.989,242,147.89,0\H,254,1.09375,253,108.892,242,12.0084,0\S,254,1.8066,253,97.9019,242,-100.78,0\O,257,1.49632,254,110.472,253,149.936,0\C,257,1.80664,254,97.3433,253,-97.9261,0\H,259,1.09288,257,102.301,254,80.3077,0\H,259,1.09304,257,114.585,254,-46.6377,0\H,259,1.09327,257,112.387,254,-168.386,0\O,262,2.34052,259,137.861,257,-94.2483,0\S,263,1.49679,262,152.18,259,-26.4753,0\C,264,1.80605,263,101.938,262,-168.168,0\H,265,1.0926,264,105.927,263,-178.317,0\H,265,1.09303,264,106.647,263,-56.7281,0\H,265,1.09399,264,117.79,263,56.879,0\C,264,1.80717,263,103.158,262,-65.2437,0\H,269,1.0923,264,106.449,263,169.627,0\H,269,1.09356,264,109.556,263,-68.0691,0\H,269,1.09359,264,107.558,263,58.9084,0\H,201,2.70109,199,135.989,197,-120.704,0\C,273,1.09341,201,167.209,199,-88.6989,0\H,274,1.09305,273,107.402,201,-76.4678,0\H,274,1.09389,273,108.437,201,169.102,0\S,274,1.8069,273,109.347,201,45.2304,0\O,277,1.49784,274,98.1025,273,73.0153,0\C,277,1.80679,274,92.5254,273,-172.758,0\H,279,1.09272,277,119.613,274,60.9344,0\H,279,1.09298,277,112.912,274,-68.9017,0\H,279,1.0934,277,103.945,274,176.526,0\\\@

 Total job time:  66.17s(wall), 221.32s(cpu) 
 Fri Mar 12 07:55:34 2021

        *************************************************************
        *                                                           *
        *  Thank you very much for using Q-Chem.  Have a nice day.  *
        *                                                           *
        *************************************************************


