                  Welcome to Q-Chem
     A Quantum Leap Into The Future Of Chemistry


 Q-Chem 5.2 (devel), Q-Chem, Inc., Pleasanton, CA (2019)

 Yihan Shao,  Zhengting Gan,  E. Epifanovsky,  A. T. B. Gilbert,  M. Wormit,  
 J. Kussmann,  A. W. Lange,  A. Behn,  Jia Deng,  Xintian Feng,  D. Ghosh,  
 M. Goldey,  P. R. Horn,  L. D. Jacobson,  I. Kaliman,  T. Kus,  A. Landau,  
 Jie Liu,  E. I. Proynov,  R. M. Richard,  R. P. Steele,  E. J. Sundstrom,  
 H. L. Woodcock III,  P. M. Zimmerman,  D. Zuev,  B. Alam,  B. Albrecht,  
 E. Alguire,  S. A. Baeppler,  D. Barton,  Z. Benda,  Y. A. Bernard,  
 E. J. Berquist,  K. B. Bravaya,  H. Burton,  K. Carter-Fenk,  D. Casanova,  
 Chun-Min Chang,  Yunqing Chen,  A. Chien,  K. D. Closser,  M. P. Coons,  
 S. Coriani,  S. Dasgupta,  A. L. Dempwolff,  M. Diedenhofen,  Hainam Do,  
 R. G. Edgar,  Po-Tung Fang,  S. Faraji,  S. Fatehi,  Qingguo Feng,  
 J. Fosso-Tande,  J. Gayvert,  Qinghui Ge,  A. Ghysels,  G. Gidofalvi,  
 J. Gomes,  J. Gonthier,  A. Gunina,  D. Hait,  M. W. D. Hanson-Heine,  
 P. H. P. Harbach,  A. W. Hauser,  M. F. Herbst,  J. E. Herr,  
 E. G. Hohenstein,  Z. C. Holden,  Kerwin Hui,  B. C. Huynh,  T.-C. Jagau,  
 Hyunjun Ji,  B. Kaduk,  K. Khistyaev,  Jaehoon Kim,  P. Klunzinger,  K. Koh,  
 D. Kosenkov,  L. Koulias,  T. Kowalczyk,  C. M. Krauter,  A. Kunitsa,  
 Ka Un Lao,  A. Laurent,  K. V. Lawler,  Joonho Lee,  D. Lefrancois,  
 S. Lehtola,  D. S. Levine,  Yi-Pei Li,  You-Sheng Lin,  Fenglai Liu,  
 Kuan-Yu Liu,  E. Livshits,  M. Loipersberger,  A. Luenser,  P. Manohar,  
 E. Mansoor,  S. F. Manzer,  Shan-Ping Mao,  Yuezhi Mao,  N. Mardirossian,  
 A. V. Marenich,  T. Markovich,  L. A. Martinez-Martinez,  S. A. Maurer,  
 N. J. Mayhall,  S. C. McKenzie,  J.-M. Mewes,  P. Morgante,  A. F. Morrison,  
 J. W. Mullinax,  K. Nanda,  T. S. Nguyen-Beck,  R. Olivares-Amaya,  
 J. A. Parkhill,  S. K. Paul,  F. Pavosevic,  Zheng Pei,  T. M. Perrine,  
 F. Plasser,  P. Pokhilko,  S. Prager,  A. Prociuk,  E. Ramos,  B. Rana,  
 D. R. Rehn,  F. Rob,  M. Scheurer,  M. Schneider,  N. Sergueev,  
 S. M. Sharada,  S. Sharma,  D. W. Small,  T. Stauch,  C. J. Stein,  
 T. Stein,  Yu-Chuan Su,  S. P. Veccham,  Zhen Tao,  A. J. W. Thom,  
 A. Tkatchenko,  T. Tsuchimochi,  N. M. Tubman,  L. Vogt,  M. L. Vidal,  
 O. Vydrov,  M. A. Watson,  J. Wenzel,  M. de Wergifosse,  T. A. Wesolowski,  
 A. White,  J. Witte,  A. Yamada,  Jun Yang,  K. Yao,  S. Yeganeh,  
 S. R. Yost,  Zhi-Qiang You,  A. Zech,  Igor Ying Zhang,  Xing Zhang,  
 Yan Zhao,  Ying Zhu,  B. R. Brooks,  G. K. L. Chan,  C. J. Cramer,  
 M. S. Gordon,  W. J. Hehre,  A. Klamt,  M. W. Schmidt,  C. D. Sherrill,  
 D. G. Truhlar,  A. Aspuru-Guzik,  R. Baer,  A. T. Bell,  N. A. Besley,  
 Jeng-Da Chai,  A. E. DePrince, III,  R. A. DiStasio Jr.,  A. Dreuw,  
 B. D. Dunietz,  T. R. Furlani,  Chao-Ping Hsu,  Yousung Jung,  Jing Kong,  
 D. S. Lambrecht,  WanZhen Liang,  C. Ochsenfeld,  V. A. Rassolov,  
 L. V. Slipchenko,  J. E. Subotnik,  T. Van Voorhis,  J. M. Herbert,  
 A. I. Krylov,  P. M. W. Gill,  M. Head-Gordon

 Contributors to earlier versions of Q-Chem not listed above: 
 R. D. Adamson,  B. Austin,  J. Baker,  G. J. O. Beran,  K. Brandhorst,  
 S. T. Brown,  E. F. C. Byrd,  A. K. Chakraborty,  C.-L. Cheng,  
 Siu Hung Chien,  D. M. Chipman,  D. L. Crittenden,  H. Dachsel,  
 R. J. Doerksen,  A. D. Dutoi,  L. Fusti-Molnar,  W. A. Goddard III,  
 A. Golubeva-Zadorozhnaya,  S. R. Gwaltney,  G. Hawkins,  A. Heyden,  
 S. Hirata,  G. Kedziora,  F. J. Keil,  C. Kelley,  Jihan Kim,  R. A. King,  
 R. Z. Khaliullin,  P. P. Korambath,  W. Kurlancheek,  A. M. Lee,  M. S. Lee,  
 S. V. Levchenko,  Ching Yeh Lin,  D. Liotard,  R. C. Lochan,  I. Lotan,  
 P. E. Maslen,  N. Nair,  D. P. O'Neill,  D. Neuhauser,  E. Neuscamman,  
 C. M. Oana,  R. Olson,  B. Peters,  R. Peverati,  P. A. Pieniazek,  
 Y. M. Rhee,  J. Ritchie,  M. A. Rohrdanz,  E. Rosta,  N. J. Russ,  
 H. F. Schaefer III,  N. E. Schultz,  N. Shenvi,  A. C. Simmonett,  A. Sodt,  
 D. Stuck,  K. S. Thanthiriwatte,  V. Vanovschi,  Tao Wang,  A. Warshel,  
 C. F. Williams,  Q. Wu,  X. Xu,  W. Zhang

 Please cite Q-Chem as follows:
 Y. Shao et al., Mol. Phys. 113, 184-215 (2015)
 DOI: 10.1080/00268976.2014.952696

 Q-Chem 5.2.2 for Intel X86 EM64T Linux

 Parts of Q-Chem use Armadillo 9.800.1 (Horizon Scraper).
 http://arma.sourceforge.net/

 Q-Chem begins on Thu Mar 11 13:37:42 2021  

Host: n0092.mhg0
0

     Scratch files written to /local/scratch/users/ymao/r7.00_frame_0090_almo_B3LYP_dp.in20210311133739//

Checking the input file for inconsistencies... 	...done.

--------------------------------------------------------------
User input:
--------------------------------------------------------------
$molecule
0 1
--
0 1
C    26.87100   31.51000   25.85400  
C    27.18100   30.90400   27.23200  
C    26.75400   29.42900   27.14300  
C    27.39400   28.65300   25.98000  
C    27.13400   29.22900   24.57900  
C    27.43000   30.73700   24.64800  
H    26.89800   28.95500   28.12200  
H    28.26400   31.00900   27.36900  
H    25.79700   31.59600   25.64900  
H    27.33400   32.49900   25.75100  
H    28.48700   28.69300   26.06600  
H    27.14100   27.59100   26.08300  
H    27.76500   28.73400   23.83000  
H    26.10400   28.94900   24.33000  
H    28.52400   30.76300   24.71700  
H    27.22400   31.25900   23.70500  
H    25.68100   29.30800   26.95000  
N    26.39300   31.59100   28.25500  
H    25.69300   31.07700   28.77600  
C    26.80200   32.78700   28.80600  
H    26.19000   33.20200   29.62700  
O    27.74500   33.38200   28.31500  
--
0 1
C    26.96100   30.87600   18.90800  
H    25.92300   30.94700   18.57300  
H    27.64000   31.62900   18.50000  
H    27.24400   29.87800   18.56400  
S    26.77800   30.91400   20.70500  
C    25.98200   29.29200   20.70400  
H    26.73200   28.56900   20.37600  
H    25.62100   29.00200   21.69400  
H    25.10300   29.47800   20.08000  
O    25.66800   31.86400   21.03300  
C    23.78900   34.34100   20.29800  
H    23.50200   33.45200   19.73100  
H    24.35700   35.11300   19.77300  
H    24.48300   33.96600   21.05600  
S    22.37900   35.18600   21.04800  
C    21.46500   33.73200   21.60700  
H    21.32500   33.14000   20.69900  
H    22.04500   33.17700   22.34900  
H    20.52600   34.04500   22.07100  
O    21.55900   35.50500   19.83600  
C    31.76500   29.45200   25.21300  
H    31.48300   29.14500   26.22300  
H    31.17600   30.36000   25.05900  
H    31.53700   28.76500   24.39400  
S    33.52500   29.84800   25.10300  
C    33.60100   29.85500   23.29700  
H    33.29600   28.87200   22.92800  
H    32.93300   30.66300   22.99000  
H    34.59300   30.04500   22.87900  
O    34.17000   28.53200   25.40800  
C    28.82400   34.31700   23.60900  
H    29.44400   33.42500   23.49200  
H    28.50000   34.20200   24.64700  
H    28.04100   34.23000   22.85100  
S    30.00900   35.65600   23.34900  
C    31.33100   35.15100   24.47300  
H    31.12000   35.10800   25.54500  
H    31.65400   34.12200   24.29800  
H    32.11100   35.91100   24.38400  
O    29.41500   36.86300   24.00600  
C    30.04900   29.77300   21.42000  
H    29.24400   29.79800   22.15900  
H    29.74500   29.31600   20.47400  
H    31.00300   29.47700   21.86500  
S    30.20300   31.51900   20.97900  
C    31.47800   31.20600   19.73700  
H    31.65600   32.10200   19.13800  
H    32.41600   31.06000   20.27800  
H    31.23000   30.29600   19.18500  
O    30.92300   32.01500   22.19400  
C    29.78100   34.94500   36.09000  
H    29.20900   35.02500   37.01700  
H    30.61600   34.24000   36.12800  
H    30.18700   35.91300   35.78800  
S    28.64500   34.17000   34.91700  
C    27.61500   35.61900   34.59400  
H    28.29300   36.34500   34.13700  
H    26.89800   35.29100   33.83800  
H    27.07900   35.98400   35.47400  
O    27.75900   33.45700   35.89100  
C    33.29300   33.95400   28.37400  
H    33.40100   34.96200   27.96600  
H    33.28900   33.93900   29.46700  
H    34.18500   33.42500   28.02800  
S    31.81700   33.25900   27.59900  
C    31.65600   31.94100   28.82500  
H    32.54800   31.31600   28.73000  
H    31.60400   32.41100   29.81100  
H    30.67200   31.48900   28.67600  
O    32.32600   32.51100   26.40600  
C    27.86000   34.10000   19.70000  
H    28.16200   33.43200   20.51200  
H    26.78200   34.27300   19.74600  
H    28.10800   33.59200   18.76500  
S    28.75700   35.66000   19.54300  
C    28.34700   35.94500   17.80600  
H    28.84200   35.14800   17.24600  
H    27.30100   35.62900   17.82200  
H    28.44400   36.96500   17.42700  
O    30.22900   35.39700   19.46200  
C    24.11500   25.42800   27.46900  
H    24.97000   25.22600   28.11900  
H    23.97400   24.56700   26.81000  
H    24.20400   26.37500   26.93100  
S    22.64000   25.48200   28.51200  
C    22.72100   27.19900   29.07000  
H    23.75000   27.40500   29.37600  
H    22.39300   27.84900   28.25500  
H    22.04200   27.20500   29.92700  
O    23.17000   24.82100   29.74600  
C    28.32400   23.98400   24.48800  
H    28.62700   24.95500   24.08900  
H    27.82700   24.07100   25.45800  
H    29.15900   23.31800   24.72100  
S    27.21500   23.12700   23.34800  
C    27.32600   21.41400   23.91200  
H    27.02100   20.81200   23.05200  
H    28.35800   21.25200   24.23400  
H    26.56200   21.32600   24.68900  
O    28.02700   23.27800   22.09900  
C    20.91800   35.54900   26.22000  
H    20.21800   36.14300   26.81400  
H    20.64400   34.51100   26.01700  
H    21.93500   35.62800   26.61200  
S    21.12900   36.28000   24.58100  
C    21.36200   37.93300   25.27300  
H    21.55300   38.44700   24.32700  
H    20.36000   38.28600   25.53000  
H    22.18800   38.11400   25.96600  
O    19.72300   36.25800   24.06800  
C    33.50600   34.38400   33.82400  
H    33.57800   35.45600   33.62100  
H    33.64600   34.30500   34.90500  
H    34.24700   33.72300   33.36700  
S    31.84600   33.78100   33.44200  
C    31.92900   32.26200   34.41700  
H    31.74800   32.46200   35.47600  
H    31.21600   31.57400   33.95500  
H    32.98500   32.02500   34.26600  
O    31.98800   33.31800   32.02600  
C    25.01200   34.40200   26.12200  
H    24.79900   33.63300   26.86900  
H    26.07400   34.61500   26.27200  
H    24.44800   35.32400   26.28300  
S    24.66200   33.98000   24.40000  
C    25.09800   35.62600   23.79600  
H    26.13200   35.71500   24.13700  
H    24.89700   35.72200   22.72600  
H    24.46000   36.30700   24.36500  
O    23.17100   33.93100   24.52100  
C    26.56300   26.83700   32.56100  
H    26.35300   25.91700   32.01000  
H    25.79200   27.60300   32.43700  
H    27.51000   27.37200   32.45200  
S    26.64000   26.11000   34.21300  
C    24.97600   25.40600   34.18500  
H    24.81200   24.68300   34.98900  
H    24.16500   26.13300   34.27300  
H    24.79600   24.87900   33.24500  
O    26.43000   27.25700   35.15100  
C    26.31400   20.01900   27.54100  
H    27.23800   19.68800   27.06000  
H    25.89600   19.28800   28.23900  
H    25.55900   20.04200   26.75100  
S    26.59000   21.63000   28.31000  
C    24.89700   22.01400   28.81000  
H    24.86800   23.08200   28.57900  
H    24.24000   21.43900   28.15200  
H    24.76500   21.75400   29.86400  
O    26.78700   22.57400   27.16400  
C    30.32400   35.30800   30.04800  
H    29.42700   35.17300   30.65700  
H    30.01800   35.10500   29.01800  
H    31.16300   34.68400   30.36900  
S    30.98000   36.98400   30.20100  
C    29.85700   37.73900   29.00400  
H    30.22100   38.72900   28.71800  
H    29.83900   37.17400   28.06800  
H    28.85700   37.83600   29.43600  
O    32.22900   36.93400   29.37700  
C    19.86900   26.53000   24.06300  
H    18.79100   26.70400   24.11000  
H    20.25100   27.23100   23.31700  
H    19.98100   25.46800   23.82700  
S    20.64800   27.01000   25.62000  
C    19.73800   28.56900   25.70400  
H    18.75000   28.48500   25.24400  
H    19.76400   28.76300   26.77900  
H    20.33100   29.37800   25.27100  
O    22.05700   27.31100   25.21200  
C    21.30600   34.44900   33.09500  
H    22.31500   34.05900   33.25000  
H    21.02000   34.64000   32.05800  
H    21.03500   35.19100   33.85000  
S    20.34500   32.93900   33.34200  
C    21.22200   32.31600   34.79400  
H    22.18100   31.82100   34.62100  
H    21.20500   33.09900   35.55600  
H    20.55100   31.50000   35.07600  
O    20.58900   32.00900   32.19400  
C    23.74700   25.02200   22.80600  
H    23.43600   24.04500   23.18400  
H    24.83800   25.00200   22.86900  
H    23.33900   25.78700   23.47200  
S    23.37900   25.24900   21.05100  
C    21.58100   25.41900   21.12500  
H    21.32700   26.42200   21.47700  
H    21.20100   25.33800   20.10300  
H    21.20000   24.59300   21.73100  
O    23.51300   23.83200   20.58600  
C    23.04300   29.52100   32.13000  
H    22.44700   29.96600   31.33000  
H    23.12300   28.43100   32.11400  
H    22.59600   29.94600   33.03200  
S    24.68800   30.25000   31.95700  
C    24.27100   31.93500   32.45900  
H    23.84000   32.03500   33.45800  
H    25.04000   32.69200   32.28100  
H    23.51400   32.11500   31.69200  
O    24.82200   30.39300   30.47300  
C    29.04600   25.72500   19.68300  
H    29.22700   25.40900   18.65200  
H    28.64000   24.89200   20.26200  
H    28.35900   26.57400   19.62500  
S    30.50400   26.16300   20.65500  
C    31.27800   24.53200   20.74600  
H    31.53800   24.21000   19.73500  
H    32.07400   24.60700   21.49200  
H    30.59100   23.78900   21.16000  
O    29.99900   26.49400   22.02500  
C    32.60600   25.58000   24.46800  
H    32.81500   24.81800   23.71300  
H    31.51400   25.61800   24.50200  
H    32.97000   26.54200   24.09900  
S    33.41800   25.10600   26.01200  
C    35.09500   25.24100   25.35300  
H    35.14400   24.93400   24.30500  
H    35.52200   26.23600   25.50000  
H    35.72900   24.61100   25.98200  
O    33.10900   23.67200   26.31100  
C    23.04500   30.36600   22.91200  
H    23.18300   29.75900   23.81100  
H    23.97500   30.86600   22.63000  
H    22.29500   31.11700   23.17300  
S    22.49700   29.28500   21.57200  
C    22.52800   30.43900   20.18200  
H    23.21100   31.27200   20.36800  
H    22.62100   29.80200   19.29900  
H    21.54500   30.87900   19.99700  
O    21.01800   29.20200   21.79300  
C    27.12000   38.59300   26.35300  
H    27.22300   38.34900   27.41300  
H    27.67700   37.92000   25.69500  
H    27.44000   39.62200   26.17000  
S    25.34800   38.65500   26.00600  
C    25.13500   39.99500   27.19900  
H    25.85000   40.81300   27.07600  
H    24.08400   40.29100   27.15200  
H    25.28600   39.55400   28.18800  
O    24.57300   37.50800   26.57800  
C    21.99600   33.07600   28.76300  
H    21.09400   33.49400   29.21800  
H    22.85500   33.23600   29.41900  
H    22.29100   33.50900   27.80400  
S    21.75200   31.33100   28.36100  
C    22.74900   31.14900   26.86600  
H    23.77900   31.25700   27.21600  
H    22.45100   30.25100   26.31800  
H    22.62800   32.01900   26.21500  
O    20.35900   31.14200   27.84600  
C    28.64900   32.01100   32.14200  
H    29.33000   32.83200   32.37600  
H    27.71900   32.28600   31.63700  
H    28.40900   31.53800   33.09800  
S    29.59700   30.62500   31.47300  
C    28.08700   29.64100   31.34200  
H    27.49400   29.76900   32.25100  
H    27.55800   29.98000   30.44700  
H    28.38500   28.60400   31.17100  
O    30.09400   29.97300   32.72600  
C    31.97000   27.65600   28.37100  
H    32.31800   28.62900   28.72700  
H    32.66000   26.88700   28.72800  
H    31.99500   27.62100   27.27900  
S    30.31500   27.31400   29.01100  
C    29.88700   25.96500   27.88600  
H    30.72300   25.26900   27.78100  
H    28.98600   25.42700   28.19200  
H    29.64400   26.46400   26.94500  
O    29.68000   28.57200   28.50500  
C    26.09300   36.99700   29.59700  
H    25.89900   38.07200   29.54600  
H    27.04800   36.81900   30.09800  
H    26.02900   36.54000   28.60700  
S    24.83100   36.21900   30.63000  
C    25.10600   37.18400   32.13200  
H    24.37000   37.99100   32.09100  
H    24.76500   36.57500   32.97300  
H    26.12100   37.57200   32.25600  
O    25.48700   34.91600   30.96600  
$end

$rem
JOBTYPE  SP
METHOD  B3LYP
BASIS  6-31+G(D)
SYMMETRY  FALSE
SYM_IGNORE  TRUE
MEM_TOTAL  16000
MEM_STATIC  8000
MAX_SUB_FILE_NUM  16000
BASIS_LIN_DEP_THRESH  6
THRESH  14
SCF_CONVERGENCE  8
GEN_SCFMAN  TRUE
SCF_GUESS  FRAGMO
FD_MAT_VEC_PROD  FALSE
XC_GRID  000075000302
NL_GRID  1
MAX_SCF_CYCLES  200
FRGM_METHOD  STOLL
SCFMI_MODE  1
$end

$development
almo_efield  1
$end

$rem_frgm
SCF_CONVERGENCE  4
$end

--------------------------------------------------------------
 ----------------------------------------------------------------
             Standard Nuclear Orientation (Angstroms)
    I     Atom           X                Y                Z
 ----------------------------------------------------------------
    1      C      26.8710000000    31.5100000000    25.8540000000
    2      C      27.1810000000    30.9040000000    27.2320000000
    3      C      26.7540000000    29.4290000000    27.1430000000
    4      C      27.3940000000    28.6530000000    25.9800000000
    5      C      27.1340000000    29.2290000000    24.5790000000
    6      C      27.4300000000    30.7370000000    24.6480000000
    7      H      26.8980000000    28.9550000000    28.1220000000
    8      H      28.2640000000    31.0090000000    27.3690000000
    9      H      25.7970000000    31.5960000000    25.6490000000
   10      H      27.3340000000    32.4990000000    25.7510000000
   11      H      28.4870000000    28.6930000000    26.0660000000
   12      H      27.1410000000    27.5910000000    26.0830000000
   13      H      27.7650000000    28.7340000000    23.8300000000
   14      H      26.1040000000    28.9490000000    24.3300000000
   15      H      28.5240000000    30.7630000000    24.7170000000
   16      H      27.2240000000    31.2590000000    23.7050000000
   17      H      25.6810000000    29.3080000000    26.9500000000
   18      N      26.3930000000    31.5910000000    28.2550000000
   19      H      25.6930000000    31.0770000000    28.7760000000
   20      C      26.8020000000    32.7870000000    28.8060000000
   21      H      26.1900000000    33.2020000000    29.6270000000
   22      O      27.7450000000    33.3820000000    28.3150000000
   23      C      26.9610000000    30.8760000000    18.9080000000
   24      H      25.9230000000    30.9470000000    18.5730000000
   25      H      27.6400000000    31.6290000000    18.5000000000
   26      H      27.2440000000    29.8780000000    18.5640000000
   27      S      26.7780000000    30.9140000000    20.7050000000
   28      C      25.9820000000    29.2920000000    20.7040000000
   29      H      26.7320000000    28.5690000000    20.3760000000
   30      H      25.6210000000    29.0020000000    21.6940000000
   31      H      25.1030000000    29.4780000000    20.0800000000
   32      O      25.6680000000    31.8640000000    21.0330000000
   33      C      23.7890000000    34.3410000000    20.2980000000
   34      H      23.5020000000    33.4520000000    19.7310000000
   35      H      24.3570000000    35.1130000000    19.7730000000
   36      H      24.4830000000    33.9660000000    21.0560000000
   37      S      22.3790000000    35.1860000000    21.0480000000
   38      C      21.4650000000    33.7320000000    21.6070000000
   39      H      21.3250000000    33.1400000000    20.6990000000
   40      H      22.0450000000    33.1770000000    22.3490000000
   41      H      20.5260000000    34.0450000000    22.0710000000
   42      O      21.5590000000    35.5050000000    19.8360000000
   43      C      31.7650000000    29.4520000000    25.2130000000
   44      H      31.4830000000    29.1450000000    26.2230000000
   45      H      31.1760000000    30.3600000000    25.0590000000
   46      H      31.5370000000    28.7650000000    24.3940000000
   47      S      33.5250000000    29.8480000000    25.1030000000
   48      C      33.6010000000    29.8550000000    23.2970000000
   49      H      33.2960000000    28.8720000000    22.9280000000
   50      H      32.9330000000    30.6630000000    22.9900000000
   51      H      34.5930000000    30.0450000000    22.8790000000
   52      O      34.1700000000    28.5320000000    25.4080000000
   53      C      28.8240000000    34.3170000000    23.6090000000
   54      H      29.4440000000    33.4250000000    23.4920000000
   55      H      28.5000000000    34.2020000000    24.6470000000
   56      H      28.0410000000    34.2300000000    22.8510000000
   57      S      30.0090000000    35.6560000000    23.3490000000
   58      C      31.3310000000    35.1510000000    24.4730000000
   59      H      31.1200000000    35.1080000000    25.5450000000
   60      H      31.6540000000    34.1220000000    24.2980000000
   61      H      32.1110000000    35.9110000000    24.3840000000
   62      O      29.4150000000    36.8630000000    24.0060000000
   63      C      30.0490000000    29.7730000000    21.4200000000
   64      H      29.2440000000    29.7980000000    22.1590000000
   65      H      29.7450000000    29.3160000000    20.4740000000
   66      H      31.0030000000    29.4770000000    21.8650000000
   67      S      30.2030000000    31.5190000000    20.9790000000
   68      C      31.4780000000    31.2060000000    19.7370000000
   69      H      31.6560000000    32.1020000000    19.1380000000
   70      H      32.4160000000    31.0600000000    20.2780000000
   71      H      31.2300000000    30.2960000000    19.1850000000
   72      O      30.9230000000    32.0150000000    22.1940000000
   73      C      29.7810000000    34.9450000000    36.0900000000
   74      H      29.2090000000    35.0250000000    37.0170000000
   75      H      30.6160000000    34.2400000000    36.1280000000
   76      H      30.1870000000    35.9130000000    35.7880000000
   77      S      28.6450000000    34.1700000000    34.9170000000
   78      C      27.6150000000    35.6190000000    34.5940000000
   79      H      28.2930000000    36.3450000000    34.1370000000
   80      H      26.8980000000    35.2910000000    33.8380000000
   81      H      27.0790000000    35.9840000000    35.4740000000
   82      O      27.7590000000    33.4570000000    35.8910000000
   83      C      33.2930000000    33.9540000000    28.3740000000
   84      H      33.4010000000    34.9620000000    27.9660000000
   85      H      33.2890000000    33.9390000000    29.4670000000
   86      H      34.1850000000    33.4250000000    28.0280000000
   87      S      31.8170000000    33.2590000000    27.5990000000
   88      C      31.6560000000    31.9410000000    28.8250000000
   89      H      32.5480000000    31.3160000000    28.7300000000
   90      H      31.6040000000    32.4110000000    29.8110000000
   91      H      30.6720000000    31.4890000000    28.6760000000
   92      O      32.3260000000    32.5110000000    26.4060000000
   93      C      27.8600000000    34.1000000000    19.7000000000
   94      H      28.1620000000    33.4320000000    20.5120000000
   95      H      26.7820000000    34.2730000000    19.7460000000
   96      H      28.1080000000    33.5920000000    18.7650000000
   97      S      28.7570000000    35.6600000000    19.5430000000
   98      C      28.3470000000    35.9450000000    17.8060000000
   99      H      28.8420000000    35.1480000000    17.2460000000
  100      H      27.3010000000    35.6290000000    17.8220000000
  101      H      28.4440000000    36.9650000000    17.4270000000
  102      O      30.2290000000    35.3970000000    19.4620000000
  103      C      24.1150000000    25.4280000000    27.4690000000
  104      H      24.9700000000    25.2260000000    28.1190000000
  105      H      23.9740000000    24.5670000000    26.8100000000
  106      H      24.2040000000    26.3750000000    26.9310000000
  107      S      22.6400000000    25.4820000000    28.5120000000
  108      C      22.7210000000    27.1990000000    29.0700000000
  109      H      23.7500000000    27.4050000000    29.3760000000
  110      H      22.3930000000    27.8490000000    28.2550000000
  111      H      22.0420000000    27.2050000000    29.9270000000
  112      O      23.1700000000    24.8210000000    29.7460000000
  113      C      28.3240000000    23.9840000000    24.4880000000
  114      H      28.6270000000    24.9550000000    24.0890000000
  115      H      27.8270000000    24.0710000000    25.4580000000
  116      H      29.1590000000    23.3180000000    24.7210000000
  117      S      27.2150000000    23.1270000000    23.3480000000
  118      C      27.3260000000    21.4140000000    23.9120000000
  119      H      27.0210000000    20.8120000000    23.0520000000
  120      H      28.3580000000    21.2520000000    24.2340000000
  121      H      26.5620000000    21.3260000000    24.6890000000
  122      O      28.0270000000    23.2780000000    22.0990000000
  123      C      20.9180000000    35.5490000000    26.2200000000
  124      H      20.2180000000    36.1430000000    26.8140000000
  125      H      20.6440000000    34.5110000000    26.0170000000
  126      H      21.9350000000    35.6280000000    26.6120000000
  127      S      21.1290000000    36.2800000000    24.5810000000
  128      C      21.3620000000    37.9330000000    25.2730000000
  129      H      21.5530000000    38.4470000000    24.3270000000
  130      H      20.3600000000    38.2860000000    25.5300000000
  131      H      22.1880000000    38.1140000000    25.9660000000
  132      O      19.7230000000    36.2580000000    24.0680000000
  133      C      33.5060000000    34.3840000000    33.8240000000
  134      H      33.5780000000    35.4560000000    33.6210000000
  135      H      33.6460000000    34.3050000000    34.9050000000
  136      H      34.2470000000    33.7230000000    33.3670000000
  137      S      31.8460000000    33.7810000000    33.4420000000
  138      C      31.9290000000    32.2620000000    34.4170000000
  139      H      31.7480000000    32.4620000000    35.4760000000
  140      H      31.2160000000    31.5740000000    33.9550000000
  141      H      32.9850000000    32.0250000000    34.2660000000
  142      O      31.9880000000    33.3180000000    32.0260000000
  143      C      25.0120000000    34.4020000000    26.1220000000
  144      H      24.7990000000    33.6330000000    26.8690000000
  145      H      26.0740000000    34.6150000000    26.2720000000
  146      H      24.4480000000    35.3240000000    26.2830000000
  147      S      24.6620000000    33.9800000000    24.4000000000
  148      C      25.0980000000    35.6260000000    23.7960000000
  149      H      26.1320000000    35.7150000000    24.1370000000
  150      H      24.8970000000    35.7220000000    22.7260000000
  151      H      24.4600000000    36.3070000000    24.3650000000
  152      O      23.1710000000    33.9310000000    24.5210000000
  153      C      26.5630000000    26.8370000000    32.5610000000
  154      H      26.3530000000    25.9170000000    32.0100000000
  155      H      25.7920000000    27.6030000000    32.4370000000
  156      H      27.5100000000    27.3720000000    32.4520000000
  157      S      26.6400000000    26.1100000000    34.2130000000
  158      C      24.9760000000    25.4060000000    34.1850000000
  159      H      24.8120000000    24.6830000000    34.9890000000
  160      H      24.1650000000    26.1330000000    34.2730000000
  161      H      24.7960000000    24.8790000000    33.2450000000
  162      O      26.4300000000    27.2570000000    35.1510000000
  163      C      26.3140000000    20.0190000000    27.5410000000
  164      H      27.2380000000    19.6880000000    27.0600000000
  165      H      25.8960000000    19.2880000000    28.2390000000
  166      H      25.5590000000    20.0420000000    26.7510000000
  167      S      26.5900000000    21.6300000000    28.3100000000
  168      C      24.8970000000    22.0140000000    28.8100000000
  169      H      24.8680000000    23.0820000000    28.5790000000
  170      H      24.2400000000    21.4390000000    28.1520000000
  171      H      24.7650000000    21.7540000000    29.8640000000
  172      O      26.7870000000    22.5740000000    27.1640000000
  173      C      30.3240000000    35.3080000000    30.0480000000
  174      H      29.4270000000    35.1730000000    30.6570000000
  175      H      30.0180000000    35.1050000000    29.0180000000
  176      H      31.1630000000    34.6840000000    30.3690000000
  177      S      30.9800000000    36.9840000000    30.2010000000
  178      C      29.8570000000    37.7390000000    29.0040000000
  179      H      30.2210000000    38.7290000000    28.7180000000
  180      H      29.8390000000    37.1740000000    28.0680000000
  181      H      28.8570000000    37.8360000000    29.4360000000
  182      O      32.2290000000    36.9340000000    29.3770000000
  183      C      19.8690000000    26.5300000000    24.0630000000
  184      H      18.7910000000    26.7040000000    24.1100000000
  185      H      20.2510000000    27.2310000000    23.3170000000
  186      H      19.9810000000    25.4680000000    23.8270000000
  187      S      20.6480000000    27.0100000000    25.6200000000
  188      C      19.7380000000    28.5690000000    25.7040000000
  189      H      18.7500000000    28.4850000000    25.2440000000
  190      H      19.7640000000    28.7630000000    26.7790000000
  191      H      20.3310000000    29.3780000000    25.2710000000
  192      O      22.0570000000    27.3110000000    25.2120000000
  193      C      21.3060000000    34.4490000000    33.0950000000
  194      H      22.3150000000    34.0590000000    33.2500000000
  195      H      21.0200000000    34.6400000000    32.0580000000
  196      H      21.0350000000    35.1910000000    33.8500000000
  197      S      20.3450000000    32.9390000000    33.3420000000
  198      C      21.2220000000    32.3160000000    34.7940000000
  199      H      22.1810000000    31.8210000000    34.6210000000
  200      H      21.2050000000    33.0990000000    35.5560000000
  201      H      20.5510000000    31.5000000000    35.0760000000
  202      O      20.5890000000    32.0090000000    32.1940000000
  203      C      23.7470000000    25.0220000000    22.8060000000
  204      H      23.4360000000    24.0450000000    23.1840000000
  205      H      24.8380000000    25.0020000000    22.8690000000
  206      H      23.3390000000    25.7870000000    23.4720000000
  207      S      23.3790000000    25.2490000000    21.0510000000
  208      C      21.5810000000    25.4190000000    21.1250000000
  209      H      21.3270000000    26.4220000000    21.4770000000
  210      H      21.2010000000    25.3380000000    20.1030000000
  211      H      21.2000000000    24.5930000000    21.7310000000
  212      O      23.5130000000    23.8320000000    20.5860000000
  213      C      23.0430000000    29.5210000000    32.1300000000
  214      H      22.4470000000    29.9660000000    31.3300000000
  215      H      23.1230000000    28.4310000000    32.1140000000
  216      H      22.5960000000    29.9460000000    33.0320000000
  217      S      24.6880000000    30.2500000000    31.9570000000
  218      C      24.2710000000    31.9350000000    32.4590000000
  219      H      23.8400000000    32.0350000000    33.4580000000
  220      H      25.0400000000    32.6920000000    32.2810000000
  221      H      23.5140000000    32.1150000000    31.6920000000
  222      O      24.8220000000    30.3930000000    30.4730000000
  223      C      29.0460000000    25.7250000000    19.6830000000
  224      H      29.2270000000    25.4090000000    18.6520000000
  225      H      28.6400000000    24.8920000000    20.2620000000
  226      H      28.3590000000    26.5740000000    19.6250000000
  227      S      30.5040000000    26.1630000000    20.6550000000
  228      C      31.2780000000    24.5320000000    20.7460000000
  229      H      31.5380000000    24.2100000000    19.7350000000
  230      H      32.0740000000    24.6070000000    21.4920000000
  231      H      30.5910000000    23.7890000000    21.1600000000
  232      O      29.9990000000    26.4940000000    22.0250000000
  233      C      32.6060000000    25.5800000000    24.4680000000
  234      H      32.8150000000    24.8180000000    23.7130000000
  235      H      31.5140000000    25.6180000000    24.5020000000
  236      H      32.9700000000    26.5420000000    24.0990000000
  237      S      33.4180000000    25.1060000000    26.0120000000
  238      C      35.0950000000    25.2410000000    25.3530000000
  239      H      35.1440000000    24.9340000000    24.3050000000
  240      H      35.5220000000    26.2360000000    25.5000000000
  241      H      35.7290000000    24.6110000000    25.9820000000
  242      O      33.1090000000    23.6720000000    26.3110000000
  243      C      23.0450000000    30.3660000000    22.9120000000
  244      H      23.1830000000    29.7590000000    23.8110000000
  245      H      23.9750000000    30.8660000000    22.6300000000
  246      H      22.2950000000    31.1170000000    23.1730000000
  247      S      22.4970000000    29.2850000000    21.5720000000
  248      C      22.5280000000    30.4390000000    20.1820000000
  249      H      23.2110000000    31.2720000000    20.3680000000
  250      H      22.6210000000    29.8020000000    19.2990000000
  251      H      21.5450000000    30.8790000000    19.9970000000
  252      O      21.0180000000    29.2020000000    21.7930000000
  253      C      27.1200000000    38.5930000000    26.3530000000
  254      H      27.2230000000    38.3490000000    27.4130000000
  255      H      27.6770000000    37.9200000000    25.6950000000
  256      H      27.4400000000    39.6220000000    26.1700000000
  257      S      25.3480000000    38.6550000000    26.0060000000
  258      C      25.1350000000    39.9950000000    27.1990000000
  259      H      25.8500000000    40.8130000000    27.0760000000
  260      H      24.0840000000    40.2910000000    27.1520000000
  261      H      25.2860000000    39.5540000000    28.1880000000
  262      O      24.5730000000    37.5080000000    26.5780000000
  263      C      21.9960000000    33.0760000000    28.7630000000
  264      H      21.0940000000    33.4940000000    29.2180000000
  265      H      22.8550000000    33.2360000000    29.4190000000
  266      H      22.2910000000    33.5090000000    27.8040000000
  267      S      21.7520000000    31.3310000000    28.3610000000
  268      C      22.7490000000    31.1490000000    26.8660000000
  269      H      23.7790000000    31.2570000000    27.2160000000
  270      H      22.4510000000    30.2510000000    26.3180000000
  271      H      22.6280000000    32.0190000000    26.2150000000
  272      O      20.3590000000    31.1420000000    27.8460000000
  273      C      28.6490000000    32.0110000000    32.1420000000
  274      H      29.3300000000    32.8320000000    32.3760000000
  275      H      27.7190000000    32.2860000000    31.6370000000
  276      H      28.4090000000    31.5380000000    33.0980000000
  277      S      29.5970000000    30.6250000000    31.4730000000
  278      C      28.0870000000    29.6410000000    31.3420000000
  279      H      27.4940000000    29.7690000000    32.2510000000
  280      H      27.5580000000    29.9800000000    30.4470000000
  281      H      28.3850000000    28.6040000000    31.1710000000
  282      O      30.0940000000    29.9730000000    32.7260000000
  283      C      31.9700000000    27.6560000000    28.3710000000
  284      H      32.3180000000    28.6290000000    28.7270000000
  285      H      32.6600000000    26.8870000000    28.7280000000
  286      H      31.9950000000    27.6210000000    27.2790000000
  287      S      30.3150000000    27.3140000000    29.0110000000
  288      C      29.8870000000    25.9650000000    27.8860000000
  289      H      30.7230000000    25.2690000000    27.7810000000
  290      H      28.9860000000    25.4270000000    28.1920000000
  291      H      29.6440000000    26.4640000000    26.9450000000
  292      O      29.6800000000    28.5720000000    28.5050000000
  293      C      26.0930000000    36.9970000000    29.5970000000
  294      H      25.8990000000    38.0720000000    29.5460000000
  295      H      27.0480000000    36.8190000000    30.0980000000
  296      H      26.0290000000    36.5400000000    28.6070000000
  297      S      24.8310000000    36.2190000000    30.6300000000
  298      C      25.1060000000    37.1840000000    32.1320000000
  299      H      24.3700000000    37.9910000000    32.0910000000
  300      H      24.7650000000    36.5750000000    32.9730000000
  301      H      26.1210000000    37.5720000000    32.2560000000
  302      O      25.4870000000    34.9160000000    30.9660000000
 ----------------------------------------------------------------
 Nuclear Repulsion Energy =       50156.41193725 hartrees
 There are      623 alpha and      623 beta electrons
 Requested basis set is 6-31+G(d)
 There are 995 shells and 2773 basis functions

 Total QAlloc Memory Limit  16000 MB
 Mega-Array Size      7821 MB
 MEM_STATIC part      8000 MB
 A cutoff of  1.0D-14 yielded 180380 shell pairs
 There are   1573692 function pairs
 Smallest overlap matrix eigenvalue = 5.58E-07
 Linear dependence detected in AO basis
 Tighter screening thresholds may be required for diffuse basis sets
 Use S2THRESH > 14 and THRESH = 14 in case of SCF convergence issues
 Number of orthogonalized atomic orbitals = 2771
 Maximum deviation from orthogonality = 1.343E-10

 Scale SEOQF with 1.000000e-03/1.000000e-03/1.000000e-03

 Standard Electronic Orientation quadrupole field applied
 Nucleus-field energy     =     0.0000002165 hartrees
Attempting to make child job directory: /local/scratch/users/ymao/r7.00_frame_0090_almo_B3LYP_dp.in20210311133739//Frg1/
Attempting to make child job directory: /local/scratch/users/ymao/r7.00_frame_0090_almo_B3LYP_dp.in20210311133739//Frg2/
Creating input file /local/scratch/users/ymao/r7.00_frame_0090_almo_B3LYP_dp.in20210311133739/Frg1.input
using default PutDataFrgm: nothing
calling putenv with: QCSCRATCH=/local/scratch/users/ymao/r7.00_frame_0090_almo_B3LYP_dp.in20210311133739/ 
Spawning Job For Fragment 0
Done Job For Fragment 0
calling putenv with: QCSCRATCH=/local/scratch/users/ymao 
calling putenv with: QCTHREADS=8 
Creating input file /local/scratch/users/ymao/r7.00_frame_0090_almo_B3LYP_dp.in20210311133739/Frg2.input
using default PutDataFrgm: nothing
calling putenv with: QCSCRATCH=/local/scratch/users/ymao/r7.00_frame_0090_almo_B3LYP_dp.in20210311133739/ 
Spawning Job For Fragment 1
Done Job For Fragment 1
calling putenv with: QCSCRATCH=/local/scratch/users/ymao 
calling putenv with: QCTHREADS=8 
 Time for running child jobs:  CPU 0.90 s  wall 21551.67 s

 -----------------------------------------------------------------------
  General SCF calculation program by
  Eric Jon Sundstrom, Paul Horn, Yuezhi Mao, Dmitri Zuev, Alec White,
  David Stuck, Shaama M.S., Shane Yost, Joonho Lee, David Small,
  Daniel Levine, Susi Lehtola, Hugh Burton, Evgeny Epifanovsky,
  Bang C. Huynh
 -----------------------------------------------------------------------
Performing Restricted Closed Shell SCFMI
Doing General SCFMI
 Exchange:     0.2000 Hartree-Fock + 0.0800 Slater + 0.7200 B88
 Correlation:  0.1900 VWN1RPA + 0.8100 LYP
 Using Euler-Maclaurin-Lebedev (75,302) quadrature formula
performing fock build before subrot guess so that all methods have access
Printing subrot_rss_gen Method Specification:
Occupied Subspace Method is 0
Virtual Subspace Method is 0
Energy prior to optimization (guess energy) = -15893.885191701826
Begin Timing: Total SCF Calculation
begin iterations for algorithm: DIIS         
the SCF tolerance is set to 1.00e-08
    1  -15893.8851917018      4.10e-05     00000 
    2  -15893.8835669572      6.41e-05     00000 
    3  -15893.8944491535      1.55e-05     00000 
    4  -15893.8950805609      5.84e-06     00000 
    5  -15893.8951902472      2.93e-06     00000 
    6  -15893.8952127876      1.86e-06     00000 
    7  -15893.8952221933      9.78e-07     00000 
    8  -15893.8952251034      5.02e-07     00000 
    9  -15893.8952256750      3.20e-07     00000 
   10  -15893.8952258725      2.09e-07     00000 
   11  -15893.8952259740      1.11e-07     00000 
   12  -15893.8952260070      6.18e-08     00000 
   13  -15893.8952260180      3.12e-08     00000 
   14  -15893.8952260205      2.25e-08     00000 
   15  -15893.8952260212      1.29e-08     00000 
   16  -15893.8952260218      5.23e-09     00000 Convergence criterion met
write pseudocanon occs and virts to disk
write pseudocanon orbital energies to disk
Timing for Total SCF: 47705.00s (wall), 380787.68s (cpu)
SCFMI Energy  -15893.8952260218
<S^2>            0.00000
 Total energy in the final basis set =   -15893.8952260218
    ==================================================
        The end of Object-Oriented SCFman: SCFMI      
    ==================================================
 
 --------------------------------------------------------------
 
                    Orbital Energies (a.u.)
 --------------------------------------------------------------
 
 Alpha MOs
 -- Occupied --
-89.0314 -89.0288 -89.0229 -89.0127 -89.0124 -89.0124 -89.0088 -89.0082
-89.0067 -89.0040 -89.0024 -89.0017 -89.0012 -88.9986 -88.9954 -88.9927
-88.9920 -88.9914 -88.9874 -88.9838 -88.9836 -88.9833 -88.9831 -88.9807
-88.9796 -88.9788 -88.9776 -88.9723 -19.1517 -19.1496 -19.1412 -19.1389
-19.1293 -19.1254 -19.1239 -19.1236 -19.1236 -19.1230 -19.1205 -19.1168
-19.1149 -19.1119 -19.1097 -19.1088 -19.1050 -19.1040 -19.1019 -19.0979
-19.0969 -19.0969 -19.0966 -19.0965 -19.0951 -19.0922 -19.0919 -19.0911
-19.0830 -14.3540 -10.2807 -10.2511 -10.2487 -10.2450 -10.2450 -10.2446
-10.2435 -10.2399 -10.2346 -10.2331 -10.2326 -10.2309 -10.2297 -10.2295
-10.2277 -10.2266 -10.2257 -10.2228 -10.2227 -10.2214 -10.2212 -10.2211
-10.2205 -10.2187 -10.2187 -10.2158 -10.2147 -10.2113 -10.2109 -10.2105
-10.2105 -10.2100 -10.2088 -10.2073 -10.2063 -10.2060 -10.2053 -10.2052
-10.2040 -10.2033 -10.2032 -10.2029 -10.2018 -10.2014 -10.2010 -10.1998
-10.1981 -10.1971 -10.1970 -10.1949 -10.1948 -10.1934 -10.1934 -10.1910
-10.1900 -10.1885 -10.1879 -10.1860 -10.1836 -10.1834 -10.1801 -10.1788
-10.1766  -8.0772  -8.0747  -8.0690  -8.0597  -8.0588  -8.0588  -8.0552
 -8.0543  -8.0535  -8.0498  -8.0485  -8.0477  -8.0471  -8.0443  -8.0421
 -8.0389  -8.0387  -8.0378  -8.0334  -8.0298  -8.0295  -8.0289  -8.0289
 -8.0263  -8.0254  -8.0247  -8.0237  -8.0184  -6.0416  -6.0404  -6.0391
 -6.0377  -6.0347  -6.0336  -6.0321  -6.0319  -6.0263  -6.0239  -6.0232
 -6.0230  -6.0228  -6.0221  -6.0217  -6.0194  -6.0188  -6.0181  -6.0179
 -6.0174  -6.0166  -6.0166  -6.0164  -6.0163  -6.0142  -6.0130  -6.0129
 -6.0128  -6.0119  -6.0118  -6.0116  -6.0114  -6.0108  -6.0108  -6.0104
 -6.0088  -6.0073  -6.0070  -6.0065  -6.0057  -6.0054  -6.0050  -6.0046
 -6.0032  -6.0029  -6.0020  -6.0020  -6.0018  -6.0018  -6.0010  -5.9995
 -5.9975  -5.9966  -5.9963  -5.9961  -5.9953  -5.9940  -5.9939  -5.9934
 -5.9934  -5.9927  -5.9927  -5.9923  -5.9921  -5.9910  -5.9907  -5.9898
 -5.9895  -5.9889  -5.9884  -5.9880  -5.9879  -5.9875  -5.9867  -5.9867
 -5.9859  -5.9858  -5.9835  -5.9826  -5.9826  -5.9823  -5.9815  -5.9813
 -5.9759  -1.0576  -1.0555  -1.0541  -1.0420  -1.0407  -1.0400  -1.0374
 -1.0350  -1.0334  -1.0322  -1.0279  -1.0265  -1.0255  -1.0229  -1.0217
 -1.0213  -1.0175  -1.0175  -1.0114  -1.0086  -1.0070  -1.0060  -1.0059
 -1.0053  -1.0051  -1.0047  -1.0044  -0.9991  -0.9970  -0.9157  -0.8398
 -0.8356  -0.8301  -0.8289  -0.8230  -0.8174  -0.8155  -0.8146  -0.8090
 -0.8083  -0.8080  -0.8042  -0.8021  -0.7991  -0.7970  -0.7939  -0.7925
 -0.7903  -0.7895  -0.7882  -0.7852  -0.7846  -0.7842  -0.7802  -0.7801
 -0.7799  -0.7782  -0.7772  -0.7745  -0.7619  -0.7559  -0.7543  -0.7469
 -0.7460  -0.7424  -0.7399  -0.7394  -0.7388  -0.7377  -0.7366  -0.7343
 -0.7317  -0.7289  -0.7268  -0.7248  -0.7219  -0.7208  -0.7201  -0.7187
 -0.7173  -0.7164  -0.7149  -0.7108  -0.7093  -0.7088  -0.7081  -0.7072
 -0.7056  -0.6990  -0.6445  -0.6442  -0.6357  -0.6341  -0.6272  -0.6265
 -0.6228  -0.6220  -0.6210  -0.6198  -0.6191  -0.6138  -0.6136  -0.6133
 -0.6128  -0.6108  -0.6072  -0.6063  -0.6059  -0.6025  -0.5989  -0.5986
 -0.5979  -0.5975  -0.5971  -0.5941  -0.5934  -0.5919  -0.5882  -0.5845
 -0.5759  -0.5600  -0.5272  -0.5215  -0.5155  -0.5054  -0.5054  -0.5048
 -0.5042  -0.5022  -0.5003  -0.4982  -0.4978  -0.4941  -0.4920  -0.4916
 -0.4903  -0.4890  -0.4886  -0.4881  -0.4877  -0.4860  -0.4850  -0.4841
 -0.4838  -0.4834  -0.4818  -0.4816  -0.4803  -0.4774  -0.4773  -0.4769
 -0.4768  -0.4762  -0.4752  -0.4747  -0.4739  -0.4732  -0.4726  -0.4715
 -0.4708  -0.4706  -0.4703  -0.4701  -0.4697  -0.4695  -0.4685  -0.4682
 -0.4674  -0.4668  -0.4664  -0.4663  -0.4650  -0.4646  -0.4641  -0.4622
 -0.4615  -0.4615  -0.4606  -0.4602  -0.4599  -0.4597  -0.4590  -0.4590
 -0.4586  -0.4575  -0.4573  -0.4571  -0.4561  -0.4558  -0.4548  -0.4538
 -0.4530  -0.4527  -0.4524  -0.4523  -0.4523  -0.4515  -0.4502  -0.4500
 -0.4485  -0.4482  -0.4478  -0.4470  -0.4463  -0.4452  -0.4445  -0.4441
 -0.4439  -0.4427  -0.4421  -0.4418  -0.4415  -0.4402  -0.4399  -0.4396
 -0.4393  -0.4387  -0.4376  -0.4366  -0.4356  -0.4352  -0.4341  -0.4312
 -0.4309  -0.4288  -0.4273  -0.4272  -0.4238  -0.4237  -0.4225  -0.4219
 -0.4215  -0.4214  -0.4201  -0.4199  -0.4198  -0.4194  -0.4192  -0.4188
 -0.4178  -0.4173  -0.4164  -0.4157  -0.4145  -0.4145  -0.4140  -0.4127
 -0.4123  -0.4121  -0.4112  -0.4101  -0.4093  -0.4091  -0.4087  -0.4083
 -0.4081  -0.4076  -0.4074  -0.4066  -0.4059  -0.4054  -0.4045  -0.4040
 -0.4033  -0.4016  -0.4008  -0.4003  -0.3998  -0.3996  -0.3983  -0.3972
 -0.3964  -0.3961  -0.3952  -0.3948  -0.3945  -0.3938  -0.3937  -0.3933
 -0.3931  -0.3927  -0.3923  -0.3921  -0.3911  -0.3904  -0.3899  -0.3895
 -0.3888  -0.3880  -0.3872  -0.3856  -0.3852  -0.3844  -0.3817  -0.3811
 -0.3799  -0.3797  -0.3796  -0.3785  -0.3739  -0.3718  -0.3717  -0.3715
 -0.3699  -0.3693  -0.3654  -0.3643  -0.3640  -0.3630  -0.3624  -0.3607
 -0.3603  -0.3598  -0.3563  -0.3546  -0.3526  -0.3518  -0.3508  -0.3473
 -0.3466  -0.3451  -0.3449  -0.3439  -0.3430  -0.3417  -0.3416  -0.3374
 -0.3368  -0.3318  -0.3253  -0.3115  -0.3105  -0.3102  -0.3034  -0.3009
 -0.3000  -0.2910  -0.2900  -0.2867  -0.2860  -0.2813  -0.2786  -0.2764
 -0.2763  -0.2750  -0.2732  -0.2729  -0.2698  -0.2679  -0.2673  -0.2668
 -0.2655  -0.2621  -0.2614  -0.2598  -0.2592  -0.2588  -0.2573  -0.2569
 -0.2559  -0.2552  -0.2540  -0.2534  -0.2522  -0.2517  -0.2504  -0.2482
 -0.2478  -0.2469  -0.2457  -0.2446  -0.2441  -0.2411  -0.2409  -0.2396
 -0.2381  -0.2370  -0.2330  -0.2325  -0.2289  -0.2276  -0.2256  -0.2231
 -0.2202  -0.2197  -0.2193  -0.2185  -0.2157  -0.2149  -0.2123
 -- Virtual --
 -0.0419  -0.0348  -0.0300  -0.0258  -0.0250  -0.0236  -0.0197  -0.0187
 -0.0180  -0.0158  -0.0139  -0.0136  -0.0133  -0.0114  -0.0107  -0.0096
 -0.0084  -0.0079  -0.0069  -0.0065  -0.0061  -0.0053  -0.0046  -0.0035
 -0.0027  -0.0026  -0.0012  -0.0006   0.0001   0.0013   0.0018   0.0028
  0.0033   0.0041   0.0055   0.0060   0.0073   0.0074   0.0088   0.0093
  0.0103   0.0108   0.0117   0.0119   0.0131   0.0136   0.0143   0.0148
  0.0151   0.0158   0.0161   0.0165   0.0172   0.0187   0.0193   0.0197
  0.0200   0.0205   0.0208   0.0216   0.0226   0.0228   0.0234   0.0243
  0.0250   0.0261   0.0268   0.0274   0.0276   0.0280   0.0282   0.0288
  0.0297   0.0301   0.0302   0.0315   0.0321   0.0323   0.0334   0.0336
  0.0341   0.0350   0.0353   0.0360   0.0365   0.0369   0.0375   0.0377
  0.0387   0.0392   0.0398   0.0410   0.0413   0.0420   0.0431   0.0436
  0.0442   0.0454   0.0458   0.0466   0.0468   0.0472   0.0477   0.0480
  0.0485   0.0491   0.0498   0.0503   0.0510   0.0516   0.0528   0.0532
  0.0538   0.0543   0.0550   0.0554   0.0565   0.0571   0.0578   0.0582
  0.0585   0.0591   0.0597   0.0604   0.0609   0.0619   0.0622   0.0630
  0.0631   0.0641   0.0648   0.0653   0.0665   0.0670   0.0677   0.0680
  0.0687   0.0697   0.0697   0.0701   0.0708   0.0713   0.0725   0.0725
  0.0736   0.0743   0.0745   0.0749   0.0755   0.0759   0.0766   0.0772
  0.0780   0.0787   0.0793   0.0800   0.0802   0.0806   0.0812   0.0819
  0.0828   0.0829   0.0834   0.0838   0.0843   0.0847   0.0852   0.0860
  0.0867   0.0877   0.0882   0.0887   0.0892   0.0900   0.0904   0.0914
  0.0917   0.0926   0.0928   0.0934   0.0940   0.0947   0.0952   0.0959
  0.0960   0.0970   0.0977   0.0982   0.0987   0.0993   0.0998   0.1010
  0.1012   0.1022   0.1027   0.1034   0.1037   0.1042   0.1052   0.1054
  0.1057   0.1061   0.1075   0.1079   0.1085   0.1087   0.1094   0.1101
  0.1103   0.1117   0.1119   0.1129   0.1137   0.1142   0.1155   0.1162
  0.1162   0.1167   0.1176   0.1178   0.1187   0.1189   0.1197   0.1205
  0.1214   0.1216   0.1220   0.1224   0.1234   0.1236   0.1241   0.1245
  0.1258   0.1261   0.1263   0.1266   0.1273   0.1276   0.1282   0.1292
  0.1298   0.1301   0.1306   0.1307   0.1317   0.1324   0.1332   0.1333
  0.1336   0.1343   0.1348   0.1358   0.1367   0.1372   0.1382   0.1388
  0.1392   0.1396   0.1403   0.1404   0.1411   0.1420   0.1432   0.1433
  0.1437   0.1444   0.1450   0.1454   0.1458   0.1466   0.1471   0.1477
  0.1483   0.1487   0.1492   0.1497   0.1502   0.1505   0.1516   0.1519
  0.1521   0.1536   0.1538   0.1545   0.1551   0.1553   0.1566   0.1568
  0.1573   0.1581   0.1586   0.1594   0.1601   0.1603   0.1611   0.1616
  0.1621   0.1626   0.1637   0.1638   0.1644   0.1648   0.1656   0.1659
  0.1668   0.1677   0.1678   0.1688   0.1693   0.1695   0.1701   0.1707
  0.1713   0.1717   0.1727   0.1734   0.1743   0.1747   0.1754   0.1758
  0.1761   0.1772   0.1777   0.1786   0.1790   0.1792   0.1797   0.1806
  0.1811   0.1813   0.1822   0.1824   0.1826   0.1837   0.1842   0.1854
  0.1860   0.1863   0.1870   0.1877   0.1885   0.1888   0.1899   0.1900
  0.1912   0.1918   0.1923   0.1927   0.1927   0.1934   0.1945   0.1953
  0.1955   0.1959   0.1963   0.1967   0.1975   0.1977   0.1983   0.1994
  0.2003   0.2008   0.2012   0.2016   0.2030   0.2032   0.2038   0.2042
  0.2047   0.2059   0.2066   0.2067   0.2074   0.2077   0.2090   0.2094
  0.2100   0.2106   0.2109   0.2113   0.2124   0.2129   0.2136   0.2138
  0.2144   0.2149   0.2159   0.2163   0.2169   0.2173   0.2177   0.2190
  0.2195   0.2200   0.2204   0.2211   0.2214   0.2219   0.2227   0.2232
  0.2243   0.2246   0.2250   0.2260   0.2263   0.2272   0.2275   0.2281
  0.2284   0.2293   0.2301   0.2304   0.2312   0.2318   0.2320   0.2326
  0.2339   0.2345   0.2348   0.2349   0.2358   0.2362   0.2376   0.2378
  0.2379   0.2384   0.2394   0.2396   0.2401   0.2419   0.2421   0.2427
  0.2436   0.2442   0.2447   0.2456   0.2457   0.2463   0.2467   0.2475
  0.2482   0.2489   0.2498   0.2507   0.2513   0.2514   0.2523   0.2524
  0.2527   0.2542   0.2548   0.2550   0.2562   0.2572   0.2579   0.2584
  0.2592   0.2597   0.2601   0.2608   0.2619   0.2626   0.2635   0.2644
  0.2654   0.2658   0.2663   0.2669   0.2675   0.2681   0.2685   0.2697
  0.2704   0.2707   0.2717   0.2723   0.2732   0.2742   0.2749   0.2757
  0.2761   0.2773   0.2778   0.2790   0.2796   0.2807   0.2813   0.2825
  0.2829   0.2833   0.2844   0.2850   0.2854   0.2868   0.2872   0.2881
  0.2883   0.2890   0.2892   0.2907   0.2914   0.2924   0.2928   0.2932
  0.2949   0.2951   0.2958   0.2977   0.2979   0.2987   0.2989   0.3006
  0.3014   0.3027   0.3032   0.3037   0.3040   0.3047   0.3053   0.3062
  0.3070   0.3082   0.3087   0.3097   0.3099   0.3107   0.3115   0.3121
  0.3121   0.3131   0.3139   0.3150   0.3157   0.3167   0.3182   0.3188
  0.3198   0.3203   0.3210   0.3224   0.3231   0.3239   0.3241   0.3250
  0.3257   0.3266   0.3274   0.3277   0.3289   0.3300   0.3303   0.3313
  0.3326   0.3334   0.3335   0.3343   0.3353   0.3358   0.3365   0.3376
  0.3382   0.3390   0.3399   0.3411   0.3417   0.3432   0.3433   0.3438
  0.3443   0.3448   0.3462   0.3468   0.3476   0.3481   0.3490   0.3497
  0.3503   0.3516   0.3525   0.3530   0.3541   0.3553   0.3560   0.3565
  0.3572   0.3584   0.3591   0.3597   0.3604   0.3615   0.3621   0.3622
  0.3638   0.3646   0.3650   0.3664   0.3673   0.3678   0.3688   0.3691
  0.3692   0.3699   0.3706   0.3718   0.3724   0.3734   0.3735   0.3752
  0.3758   0.3770   0.3783   0.3788   0.3799   0.3814   0.3819   0.3826
  0.3832   0.3846   0.3852   0.3866   0.3868   0.3876   0.3891   0.3897
  0.3905   0.3913   0.3923   0.3935   0.3936   0.3947   0.3952   0.3955
  0.3961   0.3978   0.3986   0.3996   0.4003   0.4013   0.4017   0.4018
  0.4034   0.4037   0.4047   0.4051   0.4063   0.4068   0.4072   0.4076
  0.4083   0.4094   0.4103   0.4113   0.4115   0.4142   0.4154   0.4162
  0.4164   0.4176   0.4187   0.4191   0.4204   0.4211   0.4225   0.4228
  0.4243   0.4248   0.4258   0.4264   0.4276   0.4288   0.4298   0.4299
  0.4313   0.4326   0.4351   0.4361   0.4373   0.4381   0.4391   0.4393
  0.4404   0.4413   0.4417   0.4423   0.4433   0.4442   0.4446   0.4472
  0.4477   0.4493   0.4494   0.4507   0.4515   0.4545   0.4551   0.4563
  0.4579   0.4592   0.4607   0.4618   0.4635   0.4641   0.4650   0.4661
  0.4672   0.4685   0.4710   0.4721   0.4726   0.4739   0.4749   0.4760
  0.4771   0.4785   0.4795   0.4804   0.4816   0.4831   0.4851   0.4866
  0.4868   0.4879   0.4885   0.4902   0.4923   0.4943   0.4963   0.4973
  0.4982   0.4983   0.4991   0.5017   0.5025   0.5055   0.5069   0.5080
  0.5086   0.5105   0.5117   0.5123   0.5143   0.5154   0.5184   0.5214
  0.5231   0.5241   0.5264   0.5274   0.5295   0.5308   0.5316   0.5336
  0.5347   0.5363   0.5375   0.5388   0.5407   0.5413   0.5444   0.5461
  0.5464   0.5470   0.5480   0.5502   0.5518   0.5523   0.5536   0.5563
  0.5565   0.5582   0.5594   0.5621   0.5623   0.5653   0.5662   0.5671
  0.5680   0.5710   0.5725   0.5733   0.5744   0.5769   0.5783   0.5788
  0.5804   0.5812   0.5829   0.5845   0.5852   0.5860   0.5871   0.5881
  0.5896   0.5898   0.5922   0.5945   0.5953   0.5955   0.5970   0.5976
  0.6004   0.6017   0.6026   0.6041   0.6051   0.6068   0.6073   0.6096
  0.6104   0.6107   0.6120   0.6131   0.6145   0.6154   0.6177   0.6194
  0.6209   0.6224   0.6239   0.6247   0.6255   0.6266   0.6287   0.6294
  0.6297   0.6309   0.6324   0.6336   0.6346   0.6353   0.6365   0.6385
  0.6391   0.6397   0.6416   0.6433   0.6440   0.6453   0.6470   0.6474
  0.6481   0.6489   0.6494   0.6499   0.6510   0.6521   0.6536   0.6556
  0.6563   0.6570   0.6576   0.6593   0.6596   0.6622   0.6624   0.6638
  0.6643   0.6661   0.6673   0.6676   0.6685   0.6696   0.6703   0.6710
  0.6712   0.6715   0.6724   0.6746   0.6752   0.6762   0.6768   0.6781
  0.6789   0.6799   0.6805   0.6831   0.6835   0.6844   0.6857   0.6867
  0.6881   0.6889   0.6890   0.6902   0.6919   0.6937   0.6950   0.6962
  0.6980   0.6983   0.6990   0.7012   0.7018   0.7039   0.7043   0.7050
  0.7052   0.7068   0.7074   0.7083   0.7092   0.7107   0.7133   0.7139
  0.7143   0.7151   0.7168   0.7185   0.7198   0.7200   0.7201   0.7213
  0.7223   0.7240   0.7246   0.7275   0.7289   0.7302   0.7318   0.7345
  0.7360   0.7363   0.7373   0.7379   0.7390   0.7406   0.7421   0.7439
  0.7448   0.7458   0.7480   0.7504   0.7529   0.7536   0.7543   0.7553
  0.7563   0.7579   0.7589   0.7598   0.7613   0.7627   0.7641   0.7652
  0.7671   0.7677   0.7700   0.7717   0.7724   0.7733   0.7751   0.7762
  0.7781   0.7790   0.7796   0.7821   0.7835   0.7857   0.7864   0.7874
  0.7900   0.7903   0.7909   0.7943   0.7947   0.7957   0.7961   0.7993
  0.8010   0.8015   0.8030   0.8036   0.8052   0.8071   0.8086   0.8108
  0.8110   0.8116   0.8124   0.8160   0.8167   0.8187   0.8189   0.8194
  0.8210   0.8222   0.8242   0.8247   0.8259   0.8268   0.8277   0.8291
  0.8299   0.8346   0.8356   0.8359   0.8369   0.8385   0.8387   0.8415
  0.8420   0.8431   0.8439   0.8461   0.8474   0.8487   0.8503   0.8509
  0.8530   0.8555   0.8556   0.8576   0.8585   0.8597   0.8608   0.8615
  0.8621   0.8641   0.8650   0.8659   0.8676   0.8682   0.8689   0.8707
  0.8717   0.8723   0.8728   0.8736   0.8761   0.8764   0.8783   0.8790
  0.8799   0.8824   0.8829   0.8841   0.8850   0.8858   0.8871   0.8887
  0.8905   0.8912   0.8921   0.8942   0.8950   0.8953   0.8968   0.8974
  0.8979   0.8986   0.9005   0.9011   0.9020   0.9038   0.9042   0.9059
  0.9066   0.9079   0.9092   0.9108   0.9114   0.9127   0.9135   0.9137
  0.9155   0.9184   0.9191   0.9207   0.9219   0.9233   0.9239   0.9256
  0.9259   0.9278   0.9301   0.9311   0.9318   0.9324   0.9329   0.9337
  0.9350   0.9368   0.9371   0.9390   0.9395   0.9404   0.9410   0.9425
  0.9440   0.9450   0.9464   0.9471   0.9485   0.9512   0.9522   0.9551
  0.9555   0.9561   0.9568   0.9579   0.9586   0.9599   0.9607   0.9622
  0.9626   0.9645   0.9659   0.9671   0.9680   0.9691   0.9706   0.9708
  0.9725   0.9728   0.9735   0.9759   0.9771   0.9776   0.9797   0.9799
  0.9811   0.9818   0.9825   0.9838   0.9844   0.9846   0.9848   0.9867
  0.9882   0.9891   0.9905   0.9917   0.9932   0.9933   0.9946   0.9960
  0.9966   0.9973   0.9986   1.0001   1.0001   1.0013   1.0028   1.0039
  1.0040   1.0048   1.0064   1.0071   1.0075   1.0094   1.0112   1.0115
  1.0128   1.0149   1.0153   1.0163   1.0172   1.0185   1.0194   1.0200
  1.0212   1.0225   1.0232   1.0239   1.0247   1.0261   1.0268   1.0279
  1.0283   1.0297   1.0311   1.0311   1.0314   1.0341   1.0355   1.0360
  1.0361   1.0386   1.0392   1.0410   1.0427   1.0442   1.0453   1.0472
  1.0488   1.0496   1.0501   1.0513   1.0528   1.0533   1.0546   1.0557
  1.0571   1.0579   1.0591   1.0609   1.0613   1.0625   1.0636   1.0650
  1.0676   1.0680   1.0697   1.0712   1.0728   1.0738   1.0761   1.0766
  1.0783   1.0789   1.0808   1.0825   1.0831   1.0853   1.0862   1.0867
  1.0884   1.0896   1.0903   1.0915   1.0946   1.0962   1.0977   1.0989
  1.1003   1.1008   1.1029   1.1037   1.1052   1.1064   1.1075   1.1082
  1.1103   1.1104   1.1124   1.1138   1.1161   1.1166   1.1177   1.1184
  1.1195   1.1214   1.1231   1.1240   1.1248   1.1263   1.1271   1.1285
  1.1291   1.1315   1.1331   1.1335   1.1342   1.1355   1.1358   1.1372
  1.1387   1.1396   1.1404   1.1416   1.1424   1.1442   1.1458   1.1470
  1.1477   1.1497   1.1508   1.1526   1.1535   1.1563   1.1567   1.1574
  1.1582   1.1602   1.1620   1.1621   1.1628   1.1636   1.1646   1.1666
  1.1679   1.1691   1.1706   1.1723   1.1731   1.1733   1.1751   1.1757
  1.1796   1.1804   1.1832   1.1840   1.1850   1.1877   1.1877   1.1896
  1.1904   1.1910   1.1924   1.1942   1.1955   1.1976   1.1995   1.2009
  1.2032   1.2038   1.2058   1.2083   1.2094   1.2109   1.2125   1.2140
  1.2156   1.2175   1.2195   1.2224   1.2242   1.2259   1.2264   1.2289
  1.2306   1.2323   1.2352   1.2369   1.2388   1.2415   1.2432   1.2445
  1.2462   1.2477   1.2483   1.2501   1.2507   1.2514   1.2538   1.2552
  1.2593   1.2618   1.2640   1.2661   1.2674   1.2708   1.2714   1.2729
  1.2747   1.2782   1.2796   1.2810   1.2830   1.2849   1.2862   1.2887
  1.2915   1.2928   1.2962   1.2987   1.3002   1.3016   1.3058   1.3084
  1.3086   1.3124   1.3138   1.3153   1.3209   1.3211   1.3243   1.3263
  1.3290   1.3295   1.3306   1.3331   1.3345   1.3350   1.3388   1.3394
  1.3407   1.3435   1.3454   1.3467   1.3495   1.3500   1.3523   1.3538
  1.3553   1.3583   1.3589   1.3596   1.3612   1.3620   1.3631   1.3650
  1.3662   1.3679   1.3693   1.3710   1.3733   1.3756   1.3772   1.3780
  1.3803   1.3818   1.3838   1.3842   1.3863   1.3874   1.3903   1.3915
  1.3925   1.3934   1.3955   1.3965   1.3993   1.3998   1.4021   1.4028
  1.4043   1.4053   1.4056   1.4065   1.4083   1.4100   1.4110   1.4124
  1.4134   1.4152   1.4167   1.4170   1.4175   1.4206   1.4235   1.4245
  1.4248   1.4268   1.4273   1.4294   1.4306   1.4320   1.4333   1.4344
  1.4355   1.4368   1.4391   1.4398   1.4414   1.4426   1.4442   1.4457
  1.4461   1.4485   1.4497   1.4521   1.4537   1.4542   1.4565   1.4577
  1.4599   1.4626   1.4651   1.4656   1.4674   1.4682   1.4717   1.4739
  1.4742   1.4764   1.4773   1.4790   1.4810   1.4827   1.4837   1.4860
  1.4870   1.4890   1.4908   1.4920   1.4931   1.4958   1.4969   1.4998
  1.5009   1.5029   1.5038   1.5058   1.5099   1.5123   1.5132   1.5169
  1.5176   1.5197   1.5201   1.5219   1.5252   1.5286   1.5300   1.5323
  1.5355   1.5387   1.5402   1.5411   1.5451   1.5474   1.5493   1.5501
  1.5540   1.5551   1.5580   1.5638   1.5648   1.5671   1.5680   1.5777
  1.5799   1.5826   1.5853   1.5915   1.5925   1.5947   1.5993   1.6043
  1.6097   1.6138   1.6190   1.6235   1.6268   1.6282   1.6352   1.6377
  1.6450   1.6481   1.6489   1.6498   1.6560   1.6575   1.6586   1.6598
  1.6647   1.6671   1.6676   1.6695   1.6717   1.6726   1.6741   1.6750
  1.6759   1.6778   1.6782   1.6792   1.6796   1.6807   1.6822   1.6827
  1.6839   1.6852   1.6858   1.6868   1.6879   1.6886   1.6900   1.6914
  1.6919   1.6925   1.6935   1.6958   1.6964   1.6966   1.6978   1.6987
  1.6999   1.7000   1.7016   1.7016   1.7030   1.7047   1.7066   1.7083
  1.7093   1.7093   1.7118   1.7126   1.7159   1.7167   1.7171   1.7199
  1.7206   1.7218   1.7229   1.7237   1.7247   1.7275   1.7291   1.7305
  1.7324   1.7343   1.7347   1.7376   1.7383   1.7396   1.7404   1.7424
  1.7430   1.7435   1.7455   1.7469   1.7481   1.7483   1.7502   1.7510
  1.7537   1.7546   1.7554   1.7578   1.7608   1.7616   1.7617   1.7625
  1.7634   1.7648   1.7659   1.7683   1.7698   1.7708   1.7727   1.7730
  1.7742   1.7749   1.7779   1.7792   1.7816   1.7824   1.7844   1.7868
  1.7876   1.7888   1.7910   1.7924   1.7939   1.7973   1.7974   1.8007
  1.8076   1.8086   1.8108   1.8113   1.8135   1.8147   1.8187   1.8193
  1.8220   1.8250   1.8268   1.8273   1.8292   1.8334   1.8361   1.8394
  1.8403   1.8417   1.8450   1.8495   1.8542   1.8554   1.8568   1.8607
  1.8615   1.8656   1.8663   1.8703   1.8722   1.8739   1.8762   1.8795
  1.8813   1.8828   1.8841   1.8846   1.8866   1.8872   1.8880   1.8891
  1.8899   1.8912   1.8924   1.8932   1.8947   1.8954   1.8977   1.8994
  1.8994   1.9005   1.9022   1.9029   1.9036   1.9044   1.9062   1.9073
  1.9095   1.9099   1.9109   1.9114   1.9134   1.9135   1.9139   1.9155
  1.9169   1.9194   1.9205   1.9212   1.9223   1.9229   1.9236   1.9257
  1.9277   1.9282   1.9292   1.9300   1.9311   1.9328   1.9367   1.9381
  1.9402   1.9429   1.9451   1.9469   1.9482   1.9496   1.9523   1.9538
  1.9565   1.9605   1.9653   1.9687   1.9693   1.9733   1.9773   1.9791
  1.9861   1.9874   1.9923   2.0011   2.0067   2.0247   2.0326   2.0415
  2.0464   2.0487   2.0511   2.0524   2.0529   2.0536   2.0581   2.0599
  2.0614   2.0623   2.0639   2.0655   2.0680   2.0686   2.0709   2.0720
  2.0724   2.0740   2.0745   2.0752   2.0758   2.0785   2.0797   2.0819
  2.0831   2.0838   2.0859   2.0868   2.0878   2.0892   2.0903   2.0922
  2.0925   2.0938   2.0952   2.0954   2.0966   2.0973   2.0995   2.1007
  2.1029   2.1041   2.1056   2.1067   2.1081   2.1109   2.1124   2.1160
  2.1176   2.1189   2.1199   2.1220   2.1235   2.1264   2.1290   2.1313
  2.1337   2.1404   2.1434   2.1439   2.1507   2.1516   2.1527   2.1549
  2.1596   2.1616   2.1638   2.1647   2.1655   2.1783   2.1788   2.1814
  2.1850   2.1852   2.1920   2.1953   2.1963   2.1983   2.1999   2.2007
  2.2040   2.2072   2.2075   2.2089   2.2119   2.2128   2.2154   2.2167
  2.2176   2.2199   2.2210   2.2227   2.2228   2.2251   2.2265   2.2273
  2.2279   2.2286   2.2301   2.2306   2.2311   2.2328   2.2341   2.2348
  2.2376   2.2395   2.2413   2.2415   2.2432   2.2442   2.2456   2.2457
  2.2481   2.2483   2.2487   2.2498   2.2502   2.2512   2.2514   2.2525
  2.2549   2.2554   2.2563   2.2567   2.2574   2.2579   2.2587   2.2604
  2.2614   2.2622   2.2634   2.2644   2.2652   2.2667   2.2672   2.2680
  2.2682   2.2692   2.2702   2.2719   2.2721   2.2728   2.2745   2.2757
  2.2759   2.2767   2.2775   2.2784   2.2785   2.2795   2.2802   2.2806
  2.2825   2.2838   2.2850   2.2857   2.2862   2.2870   2.2877   2.2885
  2.2903   2.2917   2.2923   2.2926   2.2932   2.2947   2.2953   2.2967
  2.2988   2.3001   2.3014   2.3020   2.3037   2.3045   2.3049   2.3051
  2.3064   2.3078   2.3081   2.3094   2.3098   2.3114   2.3127   2.3129
  2.3138   2.3139   2.3153   2.3170   2.3178   2.3184   2.3189   2.3201
  2.3211   2.3225   2.3232   2.3246   2.3268   2.3273   2.3279   2.3291
  2.3311   2.3323   2.3361   2.3373   2.3384   2.3394   2.3403   2.3416
  2.3437   2.3456   2.3469   2.3484   2.3493   2.3500   2.3526   2.3550
  2.3558   2.3581   2.3585   2.3606   2.3630   2.3680   2.3713   2.3747
  2.3758   2.3769   2.3834   2.3869   2.3881   2.3928   2.3945   2.3978
  2.4043   2.4135   2.4173   2.4212   2.4294   2.4411   2.4598   2.4641
  2.4891   2.5184   2.5581   2.5838   2.6617   2.7187   2.7472   2.7671
  2.8129   2.8180   2.8253   2.8286   2.8312   2.8367   2.8397   2.8423
  2.8460   2.8473   2.8488   2.8505   2.8512   2.8526   2.8545   2.8559
  2.8577   2.8585   2.8628   2.8648   2.8672   2.8685   2.8728   2.8732
  2.8741   2.8777   2.8797   2.8842   2.8880   2.8923   2.8926   2.9190
  2.9554   3.1095   3.2376   3.9447   3.9521   3.9529   3.9531   3.9592
  3.9638   3.9682   3.9702   3.9728   3.9733   3.9751   3.9793   3.9800
  3.9835   3.9893   3.9911   3.9924   3.9949   3.9963   3.9979   4.0037
  4.0059   4.0118   4.0180   4.0204   4.0310   4.0334   4.0365   4.2030
  4.2120   4.2166   4.2198   4.2250   4.2297   4.2308   4.2330   4.2347
  4.2388   4.2396   4.2417   4.2485   4.2535   4.2549   4.2593   4.2596
  4.2631   4.2638   4.2666   4.2714   4.2732   4.2740   4.2768   4.2805
  4.2836   4.2847   4.2873   4.2928   4.2952   4.2990   4.2995   4.3021
  4.3037   4.3066   4.3078   4.3119   4.3124   4.3152   4.3155   4.3175
  4.3188   4.3193   4.3224   4.3237   4.3271   4.3292   4.3311   4.3367
  4.3375   4.3411   4.3418   4.3437   4.3462   4.3506   4.3513   4.3553
  4.3568   4.3601   4.3631   4.3638   4.3702   4.3717   4.3798   4.3863
  4.3899   4.3918   4.3949   4.3984   4.4024   4.4059   4.4110   4.4255
  4.4294   4.4418   4.4467   4.4477   4.4572   4.4635   4.4742   4.4804
  4.4899   4.4972   4.5208   4.5360   4.5524   4.5783   4.6096   4.6906
  4.6997   4.7344   4.8013   4.9154
 --------------------------------------------------------------
 
          Ground-State Mulliken Net Atomic Charges

     Atom                 Charge (a.u.)
  ----------------------------------------
      1 C                    -0.260814
      2 C                    -0.332843
      3 C                    -0.340691
      4 C                    -0.507005
      5 C                    -0.365083
      6 C                    -0.489028
      7 H                     0.228726
      8 H                     0.244464
      9 H                     0.200227
     10 H                     0.205414
     11 H                     0.230591
     12 H                     0.191309
     13 H                     0.203379
     14 H                     0.187031
     15 H                     0.217045
     16 H                     0.199567
     17 H                     0.206613
     18 N                    -0.477656
     19 H                     0.488743
     20 C                     0.242204
     21 H                     0.224701
     22 O                    -0.496891
     23 C                    -0.674017
     24 H                     0.271791
     25 H                     0.247724
     26 H                     0.257993
     27 S                     0.469255
     28 C                    -0.861572
     29 H                     0.236602
     30 H                     0.292381
     31 H                     0.254514
     32 O                    -0.596488
     33 C                    -0.918851
     34 H                     0.241356
     35 H                     0.235503
     36 H                     0.264645
     37 S                     0.984336
     38 C                    -0.852625
     39 H                     0.234328
     40 H                     0.259949
     41 H                     0.293223
     42 O                    -0.734272
     43 C                    -0.859243
     44 H                     0.273881
     45 H                     0.297935
     46 H                     0.235679
     47 S                     0.974729
     48 C                    -0.884073
     49 H                     0.231367
     50 H                     0.284285
     51 H                     0.247355
     52 O                    -0.730025
     53 C                    -0.972874
     54 H                     0.303820
     55 H                     0.265253
     56 H                     0.239504
     57 S                     0.965682
     58 C                    -0.894206
     59 H                     0.250467
     60 H                     0.300022
     61 H                     0.241857
     62 O                    -0.696751
     63 C                    -0.932699
     64 H                     0.281714
     65 H                     0.202584
     66 H                     0.284321
     67 S                     0.944877
     68 C                    -0.898550
     69 H                     0.273398
     70 H                     0.272869
     71 H                     0.226333
     72 O                    -0.677601
     73 C                    -0.859196
     74 H                     0.274170
     75 H                     0.215440
     76 H                     0.236170
     77 S                     1.086594
     78 C                    -0.873352
     79 H                     0.217159
     80 H                     0.265527
     81 H                     0.259996
     82 O                    -0.718177
     83 C                    -0.855802
     84 H                     0.283493
     85 H                     0.263454
     86 H                     0.269227
     87 S                     0.903559
     88 C                    -0.905190
     89 H                     0.246576
     90 H                     0.271451
     91 H                     0.278132
     92 O                    -0.707385
     93 C                    -0.999199
     94 H                     0.273916
     95 H                     0.266793
     96 H                     0.227746
     97 S                     1.061723
     98 C                    -0.902099
     99 H                     0.261338
    100 H                     0.231322
    101 H                     0.258830
    102 O                    -0.685226
    103 C                    -0.907160
    104 H                     0.265586
    105 H                     0.259372
    106 H                     0.268116
    107 S                     1.026378
    108 C                    -0.871415
    109 H                     0.261924
    110 H                     0.240853
    111 H                     0.247603
    112 O                    -0.751672
    113 C                    -0.766594
    114 H                     0.283521
    115 H                     0.283384
    116 H                     0.247024
    117 S                     0.751773
    118 C                    -0.781766
    119 H                     0.254769
    120 H                     0.240094
    121 H                     0.249022
    122 O                    -0.742165
    123 C                    -0.810776
    124 H                     0.236826
    125 H                     0.273443
    126 H                     0.234175
    127 S                     1.003525
    128 C                    -0.934598
    129 H                     0.238952
    130 H                     0.262831
    131 H                     0.251303
    132 O                    -0.710710
    133 C                    -0.919449
    134 H                     0.254147
    135 H                     0.240650
    136 H                     0.273130
    137 S                     0.758716
    138 C                    -0.781802
    139 H                     0.229239
    140 H                     0.345751
    141 H                     0.238748
    142 O                    -0.724227
    143 C                    -0.704798
    144 H                     0.263945
    145 H                     0.270599
    146 H                     0.293321
    147 S                     0.313961
    148 C                    -0.737970
    149 H                     0.258794
    150 H                     0.253645
    151 H                     0.276945
    152 O                    -0.547384
    153 C                    -0.752485
    154 H                     0.209267
    155 H                     0.250599
    156 H                     0.249505
    157 S                     0.905539
    158 C                    -0.863801
    159 H                     0.242401
    160 H                     0.259034
    161 H                     0.233241
    162 O                    -0.712427
    163 C                    -0.851778
    164 H                     0.258052
    165 H                     0.240075
    166 H                     0.254888
    167 S                     0.925214
    168 C                    -0.785749
    169 H                     0.272692
    170 H                     0.235481
    171 H                     0.245409
    172 O                    -0.800987
    173 C                    -0.929792
    174 H                     0.238798
    175 H                     0.290260
    176 H                     0.289387
    177 S                     0.852661
    178 C                    -0.770172
    179 H                     0.254130
    180 H                     0.275578
    181 H                     0.190456
    182 O                    -0.709202
    183 C                    -0.953705
    184 H                     0.229177
    185 H                     0.314607
    186 H                     0.235539
    187 S                     0.848816
    188 C                    -0.779224
    189 H                     0.230669
    190 H                     0.285107
    191 H                     0.287459
    192 O                    -0.700875
    193 C                    -0.688054
    194 H                     0.249483
    195 H                     0.254917
    196 H                     0.240190
    197 S                     0.618548
    198 C                    -0.773596
    199 H                     0.247059
    200 H                     0.237573
    201 H                     0.260921
    202 O                    -0.633643
    203 C                    -0.907823
    204 H                     0.260105
    205 H                     0.257176
    206 H                     0.275958
    207 S                     0.968829
    208 C                    -0.864936
    209 H                     0.256729
    210 H                     0.257881
    211 H                     0.243494
    212 O                    -0.734077
    213 C                    -0.931717
    214 H                     0.312910
    215 H                     0.250416
    216 H                     0.244309
    217 S                     0.705241
    218 C                    -0.757121
    219 H                     0.212758
    220 H                     0.296335
    221 H                     0.269396
    222 O                    -0.638413
    223 C                    -0.728957
    224 H                     0.234646
    225 H                     0.323402
    226 H                     0.214315
    227 S                     0.761272
    228 C                    -0.854949
    229 H                     0.229018
    230 H                     0.244904
    231 H                     0.312671
    232 O                    -0.616171
    233 C                    -0.864723
    234 H                     0.228262
    235 H                     0.274259
    236 H                     0.269672
    237 S                     0.912545
    238 C                    -0.968860
    239 H                     0.227722
    240 H                     0.294091
    241 H                     0.248081
    242 O                    -0.661084
    243 C                    -0.992979
    244 H                     0.279747
    245 H                     0.281846
    246 H                     0.293211
    247 S                     1.200295
    248 C                    -1.117132
    249 H                     0.275105
    250 H                     0.246485
    251 H                     0.295748
    252 O                    -0.758856
    253 C                    -0.773732
    254 H                     0.237666
    255 H                     0.329067
    256 H                     0.231757
    257 S                     0.765591
    258 C                    -0.796886
    259 H                     0.239586
    260 H                     0.254454
    261 H                     0.236242
    262 O                    -0.658750
    263 C                    -0.987461
    264 H                     0.270335
    265 H                     0.249233
    266 H                     0.242221
    267 S                     0.900917
    268 C                    -0.934535
    269 H                     0.255992
    270 H                     0.268113
    271 H                     0.308237
    272 O                    -0.656592
    273 C                    -1.068089
    274 H                     0.261572
    275 H                     0.262021
    276 H                     0.277684
    277 S                     1.137924
    278 C                    -1.027386
    279 H                     0.244815
    280 H                     0.291887
    281 H                     0.240071
    282 O                    -0.710241
    283 C                    -0.940561
    284 H                     0.262329
    285 H                     0.250659
    286 H                     0.258837
    287 S                     0.836982
    288 C                    -0.802175
    289 H                     0.275585
    290 H                     0.260835
    291 H                     0.273319
    292 O                    -0.706383
    293 C                    -0.550441
    294 H                     0.213919
    295 H                     0.248947
    296 H                     0.297880
    297 S                     0.618849
    298 C                    -0.879731
    299 H                     0.245926
    300 H                     0.264136
    301 H                     0.253124
    302 O                    -0.706277
  ----------------------------------------
  Sum of atomic charges =     0.000000

 -----------------------------------------------------------------
                    Cartesian Multipole Moments
 -----------------------------------------------------------------
    Charge (ESU x 10^10)
                -0.0000
    Dipole Moment (Debye)
         X       3.0452      Y       5.9371      Z       8.2808
       Tot      10.6346
    Quadrupole Moments (Debye-Ang)
        XX    -943.5845     XY     285.3025     YY    -527.3057
        XZ     211.0602     YZ     542.2181     ZZ    -474.1489
    Octopole Moments (Debye-Ang^2)
       XXX  -81843.6102    XXY  -23584.7345    XYY   -9594.4077
       YYY  -65420.9589    XXZ  -23326.5860    XYZ   15036.8092
       YYZ    3004.0562    XZZ  -14914.6803    YZZ   -2913.6394
       ZZZ  -55817.7103
    Hexadecapole Moments (Debye-Ang^3)
      XXXX ************   XXXY ************   XXYY ************
      XYYY ************   YYYY ************   XXXZ ************
      XXYZ -477842.4202   XYYZ  108946.8147   YYYZ ************
      XXZZ ************   XYZZ -123062.0654   YYZZ -337574.7335
      XZZZ ************   YZZZ ************   ZZZZ ************
 -----------------------------------------------------------------
Archival summary:
[...]
    2   0.0241427  -0.0049913   0.0051285  -0.0138164   0.0172982   0.0047970
    3   0.0116712   0.0093703  -0.0048307  -0.0438311   0.0019557  -0.0136388
          157         158         159         160         161         162
    1   0.0371704  -0.0091595   0.0008345  -0.0134613  -0.0088414  -0.0146797
    2  -0.0322838  -0.0027524  -0.0189871   0.0323572  -0.0194950   0.0850346
    3   0.0028907  -0.0017823   0.0252944   0.0054006  -0.0290122   0.0701919
          163         164         165         166         167         168
    1  -0.0025709   0.0278600  -0.0022106  -0.0212787   0.0342332  -0.0066382
    2  -0.0065047  -0.0124756  -0.0246451   0.0119695  -0.0027381   0.0056243
    3  -0.0054635  -0.0080385   0.0254514  -0.0268742   0.0460118   0.0008843
          169         170         171         172         173         174
    1  -0.0140632  -0.0276189  -0.0125537   0.0162233   0.0029026  -0.0229859
    2   0.0290284  -0.0089926   0.0015371   0.0710597  -0.0084689  -0.0092288
    3   0.0048780  -0.0154950   0.0305849  -0.0819123   0.0010795   0.0278580
          175         176         177         178         179         180
    1   0.0039147   0.0179941  -0.0031853  -0.0020374   0.0153465   0.0034929
    2  -0.0047456  -0.0255150   0.0196388   0.0047666   0.0307141  -0.0173688
    3  -0.0258898   0.0175974   0.0485020  -0.0060712  -0.0027981  -0.0240086
          181         182         183         184         185         186
    1  -0.0307333   0.0947444  -0.0028930  -0.0328409   0.0150281   0.0117371
    2   0.0068633  -0.0013785   0.0013977   0.0031732   0.0173316  -0.0272721
    3   0.0095405  -0.0592787  -0.0096324   0.0006787  -0.0261886  -0.0089275
          187         188         189         190         191         192
    1  -0.0177374  -0.0003527  -0.0285882  -0.0161188   0.0142727   0.1032366
    2  -0.0329855   0.0108489   0.0055368   0.0226645   0.0211503   0.0201780
    3   0.0433434   0.0038387  -0.0058743   0.0305350  -0.0187671  -0.0281759
          193         194         195         196         197         198
    1   0.0051364   0.0380432   0.0053749  -0.0086504  -0.0580647   0.0014532
    2   0.0004149   0.0056685   0.0221526   0.0260030   0.0147597  -0.0059609
    3  -0.0027112  -0.0089233  -0.0303347   0.0156553   0.0189772   0.0037762
          199         200         201         202         203         204
    1   0.0301494   0.0053592  -0.0160349   0.0121610   0.0015025  -0.0141161
    2  -0.0056054   0.0171003  -0.0242710  -0.0699463  -0.0004806  -0.0316306
    3  -0.0068115   0.0279541   0.0208688  -0.0854988   0.0110788  -0.0006939
          205         206         207         208         209         210
    1   0.0316887  -0.0108251   0.0238721  -0.0069177  -0.0150463  -0.0101392
    2   0.0003093   0.0272737   0.0403201   0.0019443   0.0275166  -0.0070775
    3   0.0056807   0.0216148  -0.0210435   0.0015033   0.0152572  -0.0289678
          211         212         213         214         215         216
    1  -0.0131578   0.0110753  -0.0095501  -0.0168071  -0.0028994  -0.0184275
    2  -0.0223737  -0.1049791   0.0023325   0.0054021  -0.0285009  -0.0000273
    3   0.0160177  -0.0347193  -0.0041187  -0.0302433  -0.0015801   0.0281756
          217         218         219         220         221         222
    1   0.0415546  -0.0036917  -0.0061882   0.0277655  -0.0259337   0.0152428
    2  -0.0273238   0.0100429   0.0003681   0.0148553   0.0177532   0.0130309
    3   0.0327914  -0.0062879   0.0271728  -0.0103557  -0.0198130  -0.1202570
          223         224         225         226         227         228
    1  -0.0099717   0.0109403  -0.0289723  -0.0214519   0.0374146  -0.0014701
    2  -0.0088442  -0.0125244  -0.0236611   0.0209119   0.0374010  -0.0108553
    3   0.0005809  -0.0293330   0.0150353   0.0058239  -0.0303150   0.0043007
          229         230         231         232         233         234
    1   0.0190974   0.0298178  -0.0284564  -0.0363536  -0.0041023   0.0091210
    2  -0.0117891   0.0008641  -0.0189012   0.0260188   0.0023520  -0.0258189
    3  -0.0268021   0.0122060   0.0139075   0.1009644  -0.0094401  -0.0202097
          235         236         237         238         239         240
    1  -0.0314446   0.0136557  -0.0095259   0.0095698   0.0045803   0.0000562
    2   0.0027501   0.0293565   0.0460599   0.0013285  -0.0109951   0.0370518
    3   0.0083754  -0.0027068   0.0442742  -0.0021067  -0.0290593  -0.0012097
          241         242         243         244         245         246
    1   0.0163090  -0.0234116   0.0022967   0.0051341   0.0287827  -0.0257080
    2  -0.0266324  -0.1042470   0.0074733  -0.0214010   0.0179894   0.0193820
    3   0.0144330   0.0262055   0.0079561   0.0252552  -0.0032925   0.0017719
          247         248         249         250         251         252
    1   0.0320373  -0.0034044   0.0292241   0.0168890  -0.0352886  -0.1091526
    2  -0.0412111   0.0079974   0.0173169  -0.0109093   0.0076618  -0.0040392
    3  -0.0060243  -0.0044105  -0.0056188  -0.0317485   0.0124428   0.0151595
          253         254         255         256         257         258
    1   0.0102013   0.0123324   0.0182435   0.0212873  -0.0068720  -0.0035869
    2  -0.0026674  -0.0076499  -0.0187893   0.0273094   0.0234382   0.0043791
    3  -0.0002622   0.0279530  -0.0201053  -0.0068181  -0.0593703   0.0066970
          259         260         261         262         263         264
    1   0.0130303  -0.0283080   0.0015693  -0.0598429   0.0034074  -0.0267989
    2   0.0282023   0.0172257  -0.0104357  -0.0818522   0.0070507   0.0070243
    3  -0.0065399  -0.0011525   0.0290503   0.0378883  -0.0010287   0.0073703
          265         266         267         268         269         270
    1   0.0273899  -0.0032609   0.0238750   0.0037653   0.0394150  -0.0005639
    2  -0.0037572   0.0265914  -0.0408610   0.0035306  -0.0177687  -0.0297739
    3   0.0253329  -0.0229309   0.0467028  -0.0053687   0.0078663  -0.0073846
          271         272         273         274         275         276
    1  -0.0127641  -0.1023132  -0.0047998   0.0134572  -0.0271867  -0.0137190
    2   0.0231150  -0.0163849   0.0013169   0.0248754   0.0099071  -0.0064835
    3  -0.0240892  -0.0355495   0.0088468  -0.0013515  -0.0215395   0.0330056
          277         278         279         280         281         282
    1   0.0228076  -0.0091616  -0.0148286  -0.0305455   0.0082122   0.0349127
    2   0.0046158  -0.0040662  -0.0005901   0.0034479  -0.0256413  -0.0517483
    3  -0.0480506  -0.0059138   0.0247113  -0.0285208  -0.0071545   0.0893782
          283         284         285         286         287         288
    1   0.0098254   0.0035608   0.0260937   0.0009489   0.0010517  -0.0033763
    2  -0.0008836   0.0266314  -0.0211869  -0.0015039  -0.0149444  -0.0040388
    3  -0.0047631   0.0108642   0.0080520  -0.0280140   0.0543902  -0.0078500
          289         290         291         292         293         294
    1   0.0223315  -0.0256962  -0.0058989  -0.0475183   0.0038190  -0.0053569
    2  -0.0232214  -0.0149673   0.0131546   0.0941223   0.0020759   0.0319650
    3  -0.0064775   0.0124213  -0.0310860  -0.0358724  -0.0035911  -0.0044920
          295         296         297         298         299         300
    1   0.0245420  -0.0037503  -0.0524656  -0.0015044  -0.0175920  -0.0022443
    2  -0.0105445  -0.0090264   0.0039541   0.0032759   0.0322933  -0.0222257
    3   0.0122982  -0.0267994  -0.0195211   0.0064785   0.0027029   0.0244198
          301         302
    1   0.0278857   0.0462923
    2   0.0065312  -0.1026899
    3   0.0060403   0.0226496
  --- DONE ESP SUMMARY ---
Archival summary:
1\1\n0092.mhg0\SP\ProcedureUnspecified\6-31+G*\282856h22\ymao\FriMar1210:58:092021FriMar1210:58:092021\0\\#,ProcedureUnspecified,6-31+G*,\\0,1\S\O,1,1.4967\C,1,1.80672,2,107.293\H,3,1.09241,1,101.437,2,156.995,0\H,3,1.09294,1,111.28,2,-76.4091,0\H,3,1.09296,1,104.64,2,42.7535,0\C,1,1.80717,2,97.0968,3,95.8029,0\H,7,1.09275,1,103.736,2,-56.8028,0\H,7,1.09304,1,116.691,2,68.294,0\H,7,1.09349,1,111.364,2,-173.271,0\O,8,2.20738,7,145.616,1,-108.425,0\S,11,1.4978,8,137.387,7,41.9094,0\C,12,1.80671,11,104.762,8,-163.543,0\H,13,1.0929,12,106.61,11,-68.0356,0\H,13,1.09334,12,106.371,11,45.1189,0\H,13,1.09338,12,113.797,11,164.218,0\C,12,1.80672,11,114.07,8,-65.8509,0\H,17,1.09259,12,106.646,11,-45.8269,0\H,17,1.09304,12,102.866,11,-161.786,0\H,17,1.09368,12,113.895,11,80.1254,0\H,15,2.10149,13,155.405,12,14.2664,0\C,21,1.09355,15,140.817,13,-23.2444,0\H,22,1.09227,21,111.016,15,6.71285,0\H,22,1.09303,21,109.662,15,132.913,0\S,22,1.80694,21,109.027,15,-111.266,0\O,25,1.49701,22,101.363,21,-161.631,0\C,25,1.80634,22,97.991,21,-57.3773,0\H,27,1.09291,25,107.138,22,-154.876,0\H,27,1.09299,25,105.114,22,95.6853,0\H,27,1.09368,25,115.156,22,-27.4838,0\H,24,2.17831,22,120.681,21,-52.1008,0\C,31,1.09363,24,146.929,22,-115.861,0\H,32,1.09288,31,109.122,24,168.132,0\H,32,1.09346,31,111.648,24,53.1862,0\S,32,1.80664,31,110.104,24,-70.827,0\O,35,1.49716,32,99.6638,31,178.659,0\C,35,1.8063,32,96.0784,31,74.2977,0\H,37,1.09257,35,111.444,32,-82.0446,0\H,37,1.0935,35,110.712,32,35.4287,0\H,37,1.09377,35,103.056,32,156.12,0\Gh,26,2.28581,25,130.992,22,-61.238,0\Gh,41,1.1049,26,152.531,25,59.0343,0\Gh,42,1.21834,41,123.007,26,13.9531,0\Gh,42,1.37888,41,117.285,26,-160.536,0\Gh,44,1.01274,42,116.083,41,-13.5436,0\Gh,44,1.46268,42,121.808,41,-175.451,0\Gh,46,1.09667,44,113.558,42,35.2001,0\Gh,46,1.53695,44,109.464,42,-82.865,0\Gh,48,1.09677,46,113.329,44,-49.2087,0\Gh,48,1.09686,46,110.767,44,73.6237,0\Gh,48,1.53768,46,115.573,44,-169.657,0\Gh,51,1.09648,48,107.544,46,-63.8967,0\Gh,51,1.09735,48,111.506,46,-176.476,0\Gh,46,1.53814,44,109.957,42,161.461,0\Gh,54,1.09691,46,112.8,44,56.0123,0\Gh,54,1.0972,46,109.039,44,-58.687,0\Gh,54,1.53764,46,114.341,44,172.768,0\Gh,57,1.09657,54,108.765,46,172.224,0\Gh,57,1.09711,54,109.693,46,57.9699,0\Gh,57,1.53694,54,115.462,46,-57.9213,0\Gh,60,1.09604,57,105.683,54,-76.2506,0\Gh,60,1.09735,57,110.846,54,169.728,0\O,45,2.0264,44,154.057,42,-37.9737,0\S,63,1.49688,45,154.285,44,1.01344,0\C,64,1.80696,63,101.946,45,66.4792,0\H,65,1.09258,64,96.8051,63,46.0507,0\H,65,1.09259,64,115.493,63,162.877,0\H,65,1.09366,64,115.974,63,-64.3237,0\C,64,1.80759,63,102.408,45,167.579,0\H,69,1.09236,64,105.197,63,-34.9551,0\H,69,1.09272,64,107.123,63,-143.944,0\H,69,1.09305,64,109.522,63,90.1492,0\H,67,2.03731,65,146.466,64,-77.2321,0\C,73,1.09299,67,139.223,65,-74.0848,0\H,74,1.09271,73,116.651,67,-89.5889,0\H,74,1.09344,73,103.962,67,148.881,0\S,74,1.80709,73,117.05,67,40.2296,0\O,77,1.49744,74,108.833,73,34.7748,0\C,77,1.80683,74,98.0383,73,-78.6591,0\H,79,1.09254,77,97.8526,74,161.622,0\H,79,1.09272,77,109.946,74,-74.5211,0\H,79,1.0928,77,99.9881,74,43.3296,0\O,40,2.30048,37,145.612,35,108.357,0\S,83,1.49653,40,117.632,37,-44.9164,0\C,84,1.8069,83,104.248,40,156.955,0\H,85,1.09275,84,98.7518,83,70.0413,0\H,85,1.09281,84,111.189,83,-175.014,0\H,85,1.09323,84,105.727,83,-50.024,0\C,84,1.80697,83,102.48,40,-102.237,0\H,89,1.09289,84,107.618,83,-153.941,0\H,89,1.09309,84,109.425,83,-38.6751,0\H,89,1.09342,84,110.39,83,92.8882,0\H,87,2.20631,85,121.254,84,23.8339,0\C,93,1.09348,87,154.302,85,46.1679,0\H,94,1.09221,93,114.686,87,120.879,0\H,94,1.09227,93,107.286,87,-114.851,0\S,94,1.8075,93,103.064,87,7.76417,0\O,97,1.49734,94,98.854,93,95.2123,0\C,97,1.80688,94,97.4946,93,-164.145,0\H,99,1.09234,97,104.897,94,177.085,0\H,99,1.09312,97,113.789,94,-63.1293,0\H,99,1.09344,97,104.697,94,62.9421,0\O,88,2.30923,85,167.991,84,92.3495,0\S,103,1.49737,88,107.742,85,-89.4237,0\C,104,1.80707,103,95.7915,88,-146.63,0\H,105,1.09243,104,107.476,103,-64.8574,0\H,105,1.09285,104,109.229,103,57.9745,0\H,105,1.09352,104,107.143,103,-179.957,0\C,104,1.80756,103,101.434,88,-55.0952,0\H,109,1.09204,104,109.191,103,82.2956,0\H,109,1.09328,104,96.144,103,-26.9794,0\H,109,1.09341,104,117.904,103,-142.319,0\H,106,1.98101,105,111.632,104,128.35,0\C,113,1.09312,106,138.721,105,83.9745,0\H,114,1.09275,113,121.888,106,78.1976,0\H,114,1.09388,113,104.868,106,-52.2582,0\S,114,1.80653,113,104.55,106,-173.125,0\O,117,1.49651,114,104.996,113,74.1057,0\C,117,1.80701,114,95.9329,113,176.477,0\H,119,1.09258,117,110.668,114,46.8766,0\H,119,1.0927,117,115.024,114,-72.604,0\H,119,1.09364,117,112.598,114,166.314,0\H,50,2.34064,48,155.589,46,137.832,0\C,123,1.09346,50,132.212,48,8.47104,0\H,124,1.09259,123,100.599,50,-58.1303,0\H,124,1.09326,123,115.95,50,55.0352,0\S,124,1.80686,123,114.134,50,-167.171,0\O,127,1.49711,124,105.908,123,-50.2301,0\C,127,1.80723,124,100.555,123,57.8105,0\H,129,1.09261,127,112.321,124,52.7422,0\H,129,1.09267,127,106.091,124,179.85,0\H,129,1.09341,127,118.659,124,-63.5209,0\H,40,2.38167,37,128.152,35,-155.771,0\C,133,1.09353,40,129.068,37,52.4288,0\H,134,1.09305,133,104.942,40,-97.4604,0\H,134,1.0933,133,111.275,40,132.451,0\S,134,1.80724,133,107.606,40,16.044,0\O,137,1.49728,134,101.916,133,161.978,0\C,137,1.80616,134,93.5743,133,55.9774,0\H,139,1.09279,137,105.992,134,-163.02,0\H,139,1.09311,137,114.883,134,-37.8545,0\H,139,1.09326,137,110.168,134,84.672,0\O,125,2.42081,124,151.597,123,-177.132,0\S,143,1.49688,125,109.533,124,-62.1244,0\C,144,1.80725,143,106.014,125,153.139,0\H,145,1.09238,144,110.471,143,-89.9007,0\H,145,1.09263,144,106.769,143,22.5202,0\H,145,1.09284,144,109.344,143,140.886,0\C,144,1.80741,143,99.383,125,-110.476,0\H,149,1.09306,144,101.866,143,75.8748,0\H,149,1.09351,144,106.646,143,-41.5924,0\H,149,1.0937,144,102.491,143,-167.103,0\H,5,2.45842,3,129.292,1,-15.7397,0\C,153,1.09399,5,109.43,3,147.338,0\H,154,1.09278,153,104.315,5,-168.529,0\H,154,1.09281,153,104.199,5,67.6686,0\S,154,1.80683,153,111.577,5,-46.2043,0\O,157,1.4977,154,101.009,153,-176.203,0\C,157,1.8061,154,98.447,153,-75.9446,0\H,159,1.09294,157,104.108,154,-56.175,0\H,159,1.09315,157,109.607,154,-177.832,0\H,159,1.09316,157,110.506,154,62.9597,0\H,162,2.23273,159,141.109,157,-153.807,0\C,163,1.09299,162,128.51,159,97.744,0\H,164,1.0929,163,109.34,162,31.6885,0\H,164,1.09348,163,105.765,162,151.3,0\S,164,1.80678,163,112.338,162,-90.6086,0\O,167,1.49772,164,102.899,163,-32.5941,0\C,167,1.80687,164,100.557,163,69.8657,0\H,169,1.09275,167,104.524,164,157.045,0\H,169,1.09276,167,111.837,164,-95.6184,0\H,169,1.09315,167,111.5,164,23.5064,0\O,153,2.41312,5,123.091,3,-39.0938,0\S,173,1.49739,153,156.744,5,-85.7568,0\C,174,1.80669,173,107.836,153,-57.1524,0\H,175,1.0929,174,111.008,173,-145.281,0\H,175,1.09294,174,114.818,173,88.4502,0\H,175,1.09303,174,101.963,173,-37.2243,0\C,174,1.80679,173,104.069,153,-153.348,0\H,179,1.09216,174,106.973,173,174.753,0\H,179,1.09294,174,112.533,173,-65.7434,0\H,179,1.0939,174,101.635,173,48.6549,0\H,177,2.03534,175,139.352,174,-41.1853,0\C,183,1.09261,177,120.507,175,20.6127,0\H,184,1.09276,183,109.484,177,-72.9623,0\H,184,1.09397,183,106.775,177,45.7785,0\S,184,1.80634,183,102.383,177,169.316,0\O,187,1.4975,184,109.947,183,-62.4813,0\C,187,1.80734,184,96.1463,183,42.0959,0\H,189,1.09245,187,117.42,184,160.376,0\H,189,1.09263,187,105.949,184,-65.9325,0\H,189,1.09281,187,99.0598,184,40.807,0\H,45,2.47576,44,99.9799,42,112.734,0\C,193,1.09319,45,157.363,44,-173.632,0\H,194,1.09332,193,102.492,45,148.084,0\H,194,1.09339,193,119.894,45,-91.1673,0\S,194,1.80614,193,104.19,45,32.7781,0\O,197,1.49713,194,102.483,193,-178.591,0\C,197,1.80725,194,101.94,193,68.7013,0\H,199,1.09262,197,112.401,194,-89.9303,0\H,199,1.09279,197,102.934,194,22.3702,0\H,199,1.09332,197,110.508,194,146.703,0\H,201,2.45719,199,136.744,197,144.273,0\C,203,1.09279,201,104.271,199,-77.4233,0\H,204,1.09258,203,111.637,201,-29.5453,0\H,204,1.09347,203,111.2,201,103.344,0\S,204,1.80699,203,100.804,201,-139.674,0\O,207,1.49683,204,101.258,203,-176.504,0\C,207,1.80709,204,92.1643,203,-70.3197,0\H,209,1.09301,207,105.501,204,-78.0271,0\H,209,1.09329,207,119.445,204,59.7561,0\H,209,1.09343,207,96.9623,204,177.185,0\H,196,2.52046,194,136.212,193,179.752,0\C,213,1.09253,196,123.256,194,-106.213,0\H,214,1.09267,213,104.213,196,39.574,0\H,214,1.09307,213,112.378,196,166.831,0\S,214,1.80711,213,110.308,196,-67.8438,0\O,217,1.49745,214,108.245,213,10.3467,0\C,217,1.80596,214,92.9897,213,-94.3565,0\H,219,1.09263,217,105.504,214,68.0544,0\H,219,1.09296,217,110.246,214,-45.7262,0\H,219,1.09366,217,113.576,214,-163.695,0\H,220,2.27988,219,119.234,217,122.839,0\C,223,1.0929,220,134.049,219,-0.218439,0\H,224,1.09301,223,115.719,220,4.49951,0\H,224,1.09336,223,106.755,220,127.212,0\S,224,1.80753,223,109.31,220,-116.812,0\O,227,1.49735,224,100.996,223,178.879,0\C,227,1.80748,224,100.055,223,77.0729,0\H,229,1.09276,227,112.968,224,71.9238,0\H,229,1.093,227,105.158,224,-174.896,0\H,229,1.09327,227,115.317,224,-52.9214,0\H,151,2.52925,149,136.038,144,22.2298,0\C,233,1.0924,151,104.169,149,176.589,0\H,234,1.09311,233,108.597,151,124.905,0\H,234,1.09338,233,113.551,151,6.91318,0\S,234,1.80761,233,104.948,151,-111.765,0\O,237,1.49697,234,100.886,233,166.423,0\C,237,1.80735,234,95.8889,233,62.5669,0\H,239,1.09264,237,111.663,234,166.154,0\H,239,1.09303,237,107.172,234,36.119,0\H,239,1.09321,237,109.518,234,-80.4476,0\H,240,1.9235,239,131.406,237,-64.8409,0\C,243,1.09285,240,121.139,239,154.315,0\H,244,1.09296,243,110.285,240,-39.3243,0\H,244,1.09312,243,106.82,240,-157.16,0\S,244,1.80709,243,111.64,240,83.4977,0\O,247,1.49727,244,96.2987,243,-68.3051,0\C,247,1.80793,244,97.9116,243,41.3612,0\H,249,1.09249,247,104.348,244,-76.6297,0\H,249,1.09286,247,110.725,244,44.3189,0\H,249,1.09311,247,112.841,244,168.267,0\H,236,2.62801,234,132.947,233,-130.179,0\C,253,1.09275,236,166.484,234,129.138,0\H,254,1.09286,253,108.472,236,84.4524,0\H,254,1.09319,253,108.219,236,-27.4322,0\S,254,1.80775,253,111.692,236,-155.714,0\O,257,1.49708,254,109.21,253,-167.864,0\C,257,1.80689,254,94.9217,253,-55.0898,0\H,259,1.09269,257,112.436,254,91.1775,0\H,259,1.09293,257,106.584,254,-156.971,0\H,259,1.09314,257,111.733,254,-35.1396,0\H,255,2.35084,254,130.919,253,-61.4491,0\C,263,1.09351,255,151.659,254,-56.7718,0\H,264,1.09243,263,118.576,255,-166.161,0\H,264,1.09335,263,104.222,255,-46.8154,0\S,264,1.80763,263,106.508,255,70.9517,0\O,267,1.49716,264,107.328,263,-58.4778,0\C,267,1.80621,264,98.8546,263,-168.285,0\H,269,1.09269,267,101.516,264,52.7412,0\H,269,1.09342,267,116.352,264,-66.5393,0\H,269,1.09368,267,110.325,264,172.483,0\O,270,2.52098,269,164.696,267,25.6366,0\S,273,1.49738,270,143.537,269,69.3331,0\C,274,1.80663,273,98.3734,270,-79.1903,0\H,275,1.09263,274,111.183,273,49.6542,0\H,275,1.09319,274,108.323,273,-76.4048,0\H,275,1.09338,274,108.573,273,173.666,0\C,274,1.80687,273,108.824,270,174.56,0\H,279,1.09314,274,106.884,273,67.6086,0\H,279,1.09317,274,105.033,273,-54.3282,0\H,279,1.09324,274,104.787,273,-168.747,0\O,278,2.49661,275,138.405,274,56.5171,0\S,283,1.49775,278,162.855,275,82.3115,0\C,284,1.80634,283,104.861,278,-102.657,0\H,285,1.093,284,113.234,283,-49.5173,0\H,285,1.09302,284,109.163,283,68.0531,0\H,285,1.09375,284,112.506,283,-164.783,0\C,284,1.80657,283,101.599,278,154.17,0\H,289,1.09308,284,100.024,283,-32.9983,0\H,289,1.09327,284,106.547,283,83.4421,0\H,289,1.09359,284,109.228,283,-154.807,0\H,290,2.19516,289,175.815,284,-19.9876,0\C,293,1.09285,290,105.594,289,147.007,0\H,294,1.09278,293,112.91,290,-163.057,0\H,294,1.09338,293,108.289,290,-36.7095,0\S,294,1.80732,293,107.505,290,76.751,0\O,297,1.49686,294,99.9968,293,-16.3619,0\C,297,1.80721,294,99.7875,293,84.2456,0\H,299,1.09284,297,108.746,294,76.2191,0\H,299,1.09312,297,107.919,294,-45.8269,0\H,299,1.0934,297,102.673,294,-163.534,0\\\@

 Total job time:  75.51s(wall), 257.32s(cpu) 
 Fri Mar 12 10:58:09 2021

        *************************************************************
        *                                                           *
        *  Thank you very much for using Q-Chem.  Have a nice day.  *
        *                                                           *
        *************************************************************


