                  Welcome to Q-Chem
     A Quantum Leap Into The Future Of Chemistry


 Q-Chem 5.2 (devel), Q-Chem, Inc., Pleasanton, CA (2019)

 Yihan Shao,  Zhengting Gan,  E. Epifanovsky,  A. T. B. Gilbert,  M. Wormit,  
 J. Kussmann,  A. W. Lange,  A. Behn,  Jia Deng,  Xintian Feng,  D. Ghosh,  
 M. Goldey,  P. R. Horn,  L. D. Jacobson,  I. Kaliman,  T. Kus,  A. Landau,  
 Jie Liu,  E. I. Proynov,  R. M. Richard,  R. P. Steele,  E. J. Sundstrom,  
 H. L. Woodcock III,  P. M. Zimmerman,  D. Zuev,  B. Alam,  B. Albrecht,  
 E. Alguire,  S. A. Baeppler,  D. Barton,  Z. Benda,  Y. A. Bernard,  
 E. J. Berquist,  K. B. Bravaya,  H. Burton,  K. Carter-Fenk,  D. Casanova,  
 Chun-Min Chang,  Yunqing Chen,  A. Chien,  K. D. Closser,  M. P. Coons,  
 S. Coriani,  S. Dasgupta,  A. L. Dempwolff,  M. Diedenhofen,  Hainam Do,  
 R. G. Edgar,  Po-Tung Fang,  S. Faraji,  S. Fatehi,  Qingguo Feng,  
 J. Fosso-Tande,  J. Gayvert,  Qinghui Ge,  A. Ghysels,  G. Gidofalvi,  
 J. Gomes,  J. Gonthier,  A. Gunina,  D. Hait,  M. W. D. Hanson-Heine,  
 P. H. P. Harbach,  A. W. Hauser,  M. F. Herbst,  J. E. Herr,  
 E. G. Hohenstein,  Z. C. Holden,  Kerwin Hui,  B. C. Huynh,  T.-C. Jagau,  
 Hyunjun Ji,  B. Kaduk,  K. Khistyaev,  Jaehoon Kim,  P. Klunzinger,  K. Koh,  
 D. Kosenkov,  L. Koulias,  T. Kowalczyk,  C. M. Krauter,  A. Kunitsa,  
 Ka Un Lao,  A. Laurent,  K. V. Lawler,  Joonho Lee,  D. Lefrancois,  
 S. Lehtola,  D. S. Levine,  Yi-Pei Li,  You-Sheng Lin,  Fenglai Liu,  
 Kuan-Yu Liu,  E. Livshits,  M. Loipersberger,  A. Luenser,  P. Manohar,  
 E. Mansoor,  S. F. Manzer,  Shan-Ping Mao,  Yuezhi Mao,  N. Mardirossian,  
 A. V. Marenich,  T. Markovich,  L. A. Martinez-Martinez,  S. A. Maurer,  
 N. J. Mayhall,  S. C. McKenzie,  J.-M. Mewes,  P. Morgante,  A. F. Morrison,  
 J. W. Mullinax,  K. Nanda,  T. S. Nguyen-Beck,  R. Olivares-Amaya,  
 J. A. Parkhill,  S. K. Paul,  F. Pavosevic,  Zheng Pei,  T. M. Perrine,  
 F. Plasser,  P. Pokhilko,  S. Prager,  A. Prociuk,  E. Ramos,  B. Rana,  
 D. R. Rehn,  F. Rob,  M. Scheurer,  M. Schneider,  N. Sergueev,  
 S. M. Sharada,  S. Sharma,  D. W. Small,  T. Stauch,  C. J. Stein,  
 T. Stein,  Yu-Chuan Su,  S. P. Veccham,  Zhen Tao,  A. J. W. Thom,  
 A. Tkatchenko,  T. Tsuchimochi,  N. M. Tubman,  L. Vogt,  M. L. Vidal,  
 O. Vydrov,  M. A. Watson,  J. Wenzel,  M. de Wergifosse,  T. A. Wesolowski,  
 A. White,  J. Witte,  A. Yamada,  Jun Yang,  K. Yao,  S. Yeganeh,  
 S. R. Yost,  Zhi-Qiang You,  A. Zech,  Igor Ying Zhang,  Xing Zhang,  
 Yan Zhao,  Ying Zhu,  B. R. Brooks,  G. K. L. Chan,  C. J. Cramer,  
 M. S. Gordon,  W. J. Hehre,  A. Klamt,  M. W. Schmidt,  C. D. Sherrill,  
 D. G. Truhlar,  A. Aspuru-Guzik,  R. Baer,  A. T. Bell,  N. A. Besley,  
 Jeng-Da Chai,  A. E. DePrince, III,  R. A. DiStasio Jr.,  A. Dreuw,  
 B. D. Dunietz,  T. R. Furlani,  Chao-Ping Hsu,  Yousung Jung,  Jing Kong,  
 D. S. Lambrecht,  WanZhen Liang,  C. Ochsenfeld,  V. A. Rassolov,  
 L. V. Slipchenko,  J. E. Subotnik,  T. Van Voorhis,  J. M. Herbert,  
 A. I. Krylov,  P. M. W. Gill,  M. Head-Gordon

 Contributors to earlier versions of Q-Chem not listed above: 
 R. D. Adamson,  B. Austin,  J. Baker,  G. J. O. Beran,  K. Brandhorst,  
 S. T. Brown,  E. F. C. Byrd,  A. K. Chakraborty,  C.-L. Cheng,  
 Siu Hung Chien,  D. M. Chipman,  D. L. Crittenden,  H. Dachsel,  
 R. J. Doerksen,  A. D. Dutoi,  L. Fusti-Molnar,  W. A. Goddard III,  
 A. Golubeva-Zadorozhnaya,  S. R. Gwaltney,  G. Hawkins,  A. Heyden,  
 S. Hirata,  G. Kedziora,  F. J. Keil,  C. Kelley,  Jihan Kim,  R. A. King,  
 R. Z. Khaliullin,  P. P. Korambath,  W. Kurlancheek,  A. M. Lee,  M. S. Lee,  
 S. V. Levchenko,  Ching Yeh Lin,  D. Liotard,  R. C. Lochan,  I. Lotan,  
 P. E. Maslen,  N. Nair,  D. P. O'Neill,  D. Neuhauser,  E. Neuscamman,  
 C. M. Oana,  R. Olson,  B. Peters,  R. Peverati,  P. A. Pieniazek,  
 Y. M. Rhee,  J. Ritchie,  M. A. Rohrdanz,  E. Rosta,  N. J. Russ,  
 H. F. Schaefer III,  N. E. Schultz,  N. Shenvi,  A. C. Simmonett,  A. Sodt,  
 D. Stuck,  K. S. Thanthiriwatte,  V. Vanovschi,  Tao Wang,  A. Warshel,  
 C. F. Williams,  Q. Wu,  X. Xu,  W. Zhang

 Please cite Q-Chem as follows:
 Y. Shao et al., Mol. Phys. 113, 184-215 (2015)
 DOI: 10.1080/00268976.2014.952696

 Q-Chem 5.2.2 for Intel X86 EM64T Linux

 Parts of Q-Chem use Armadillo 9.800.1 (Horizon Scraper).
 http://arma.sourceforge.net/

 Q-Chem begins on Thu Mar 11 13:37:48 2021  

Host: n0096.mhg0
0

     Scratch files written to /local/scratch/users/ymao/r7.00_frame_0085_almo_B3LYP_dp.in20210311133743//

Checking the input file for inconsistencies... 	...done.

--------------------------------------------------------------
User input:
--------------------------------------------------------------
$molecule
0 1
--
0 1
C    28.10600   28.24500   23.21800  
C    27.10800   28.47000   24.36600  
C    25.86500   27.59200   24.14900  
C    26.26500   26.10700   24.15600  
C    27.36800   25.82500   23.12300  
C    28.56900   26.78400   23.09500  
H    25.27200   27.76900   25.05400  
H    27.58600   28.16700   25.30500  
H    27.50700   28.69300   22.41500  
H    28.96500   28.91800   23.33200  
H    26.56200   25.88300   25.18800  
H    25.44200   25.43000   23.89600  
H    27.60700   24.75500   23.12500  
H    26.82400   26.05800   22.19900  
H    29.17400   26.52100   23.97200  
H    29.12000   26.62400   22.16000  
H    25.33500   27.99400   23.27600  
N    26.65100   29.85800   24.35600  
H    25.75600   30.01500   23.90700  
C    27.33500   30.96100   24.82100  
H    26.90300   31.95500   24.60300  
O    28.48500   30.85700   25.21100  
--
0 1
C    23.12300   33.09000   24.77700  
H    23.31300   33.89700   24.06500  
H    22.17000   33.10200   25.31200  
H    23.97800   33.05400   25.45600  
S    23.09200   31.61100   23.73900  
C    22.89000   30.48500   25.13800  
H    22.58000   29.51400   24.74500  
H    23.85500   30.50800   25.65000  
H    22.07800   30.81300   25.79200  
O    24.53500   31.42400   23.38500  
C    34.84400   31.74200   25.63400  
H    34.21700   32.53100   25.21100  
H    34.80800   31.61500   26.71900  
H    35.89300   31.76700   25.33000  
S    34.24500   30.12500   25.09400  
C    35.02700   30.15400   23.46500  
H    34.72000   29.25900   22.91900  
H    34.66300   31.00400   22.88200  
H    36.10200   30.17900   23.66000  
O    32.79700   30.40800   24.83700  
C    31.12300   33.41800   24.57500  
H    30.48700   33.76700   25.39300  
H    30.96200   32.34400   24.45300  
H    32.16900   33.55500   24.85900  
S    30.57400   34.29300   23.09200  
C    30.76500   35.94300   23.80400  
H    30.47800   36.67300   23.04300  
H    30.01000   36.04200   24.58800  
H    31.74500   36.04600   24.27600  
O    29.09900   34.09200   22.93700  
C    32.25600   29.78100   21.46500  
H    31.78700   28.87700   21.86100  
H    33.30200   29.58900   21.21300  
H    32.32600   30.48200   22.30000  
S    31.47300   30.59000   20.05200  
C    29.87900   30.94100   20.82700  
H    29.88600   31.67400   21.63800  
H    29.25400   31.36600   20.03700  
H    29.52400   30.02900   21.31300  
O    31.01600   29.40000   19.26600  
C    26.99100   18.86000   25.15900  
H    25.95100   18.61400   24.92800  
H    27.33200   18.18800   25.95100  
H    26.94400   19.90200   25.48600  
S    28.16300   18.71400   23.79200  
C    28.01800   16.93000   23.54200  
H    28.58200   16.75100   22.62300  
H    28.39600   16.25800   24.31600  
H    26.96300   16.67400   23.41500  
O    29.47000   18.77400   24.51800  
C    32.15600   33.52000   28.52100  
H    31.66900   33.46500   29.49800  
H    33.20600   33.82100   28.55800  
H    31.59300   34.27100   27.96000  
S    32.07200   31.85600   27.82100  
C    30.26500   31.86600   27.83600  
H    29.86400   31.74300   28.84600  
H    29.79200   32.69100   27.29600  
H    30.00200   31.00500   27.21700  
O    32.36300   31.00400   29.01600  
C    29.26200   24.96600   30.83500  
H    28.89800   25.39600   29.89800  
H    28.37000   24.66800   31.39200  
H    29.84600   25.73500   31.34700  
S    30.37300   23.56500   30.57400  
C    31.19200   24.32200   29.15300  
H    30.46200   24.56600   28.37700  
H    31.62900   25.21600   29.60700  
H    31.96500   23.63800   28.79300  
O    29.52100   22.43200   30.09200  
C    24.30600   23.66100   28.04600  
H    23.36300   23.10800   28.08300  
H    24.76400   23.57800   27.05700  
H    24.95700   23.17700   28.77800  
S    24.35100   25.35700   28.66600  
C    26.13500   25.32800   28.95200  
H    26.54200   25.99300   28.18600  
H    26.26500   25.78000   29.93900  
H    26.59500   24.34300   28.83400  
O    23.77000   25.35300   30.04600  
C    29.46500   21.51900   22.66700  
H    29.01800   21.59100   23.66200  
H    28.66600   21.36700   21.93700  
H    30.25700   20.77000   22.59100  
S    30.15600   23.15600   22.34000  
C    30.74700   22.65100   20.70900  
H    31.11300   23.62200   20.36500  
H    31.57000   21.93700   20.79900  
H    29.91500   22.24800   20.12600  
O    31.44700   23.19800   23.09800  
C    28.87200   23.63100   25.83500  
H    29.77200   23.03000   25.68600  
H    28.27900   23.65800   24.91700  
H    29.09700   24.65100   26.15700  
S    27.98500   22.81900   27.18400  
C    29.05200   21.36100   27.12600  
H    29.06600   20.98700   26.09900  
H    30.09000   21.62700   27.34200  
H    28.59300   20.59200   27.75300  
O    26.80100   22.20200   26.50800  
C    25.58100   34.63700   22.05200  
H    24.93200   35.51600   22.07100  
H    25.50700   34.07000   22.98400  
H    26.58500   34.95000   21.75300  
S    25.02000   33.52900   20.73900  
C    26.54300   32.59400   20.47100  
H    26.55900   32.21200   19.44600  
H    27.42000   33.21900   20.65700  
H    26.53700   31.75400   21.17100  
O    25.06800   34.40400   19.52500  
C    22.48700   26.09400   25.15500  
H    22.69200   26.31200   26.20600  
H    23.31700   26.16800   24.44800  
H    21.62600   26.65100   24.77500  
S    21.84800   24.41000   25.30300  
C    21.33800   24.35400   23.57000  
H    20.59700   25.13100   23.37000  
H    22.17000   24.41000   22.86300  
H    20.78200   23.41300   23.55200  
O    20.56200   24.38600   26.06900  
C    23.04200   25.27500   19.19400  
H    22.15800   25.76700   19.60800  
H    23.36700   25.62200   18.21000  
H    22.97400   24.19000   19.31100  
S    24.43500   25.85000   20.19200  
C    25.58700   24.46600   20.04600  
H    25.82400   24.35500   18.98500  
H    26.50300   24.72300   20.58500  
H    25.02200   23.58800   20.36800  
O    23.85200   25.65100   21.55700  
C    33.81300   27.19200   19.12800  
H    33.51400   26.50000   18.33700  
H    32.97500   27.87600   19.28300  
H    34.68900   27.80900   18.91400  
S    34.25800   26.28200   20.62500  
C    32.60600   25.95100   21.27600  
H    32.59200   25.47400   22.25900  
H    32.02700   26.87700   21.32500  
H    32.01600   25.32900   20.59800  
O    34.85700   27.30900   21.53500  
C    27.42800   30.50500   33.05200  
H    27.22900   29.97900   33.98900  
H    28.42000   30.94900   32.94400  
H    26.76300   31.29300   32.68900  
S    27.06400   29.32900   31.72800  
C    25.38900   28.80400   32.16000  
H    25.50000   28.40900   33.17300  
H    24.64200   29.60100   32.20000  
H    25.02100   28.05400   31.45600  
O    27.87200   28.08700   31.94000  
C    29.31800   27.31800   16.72000  
H    28.25300   27.55600   16.66700  
H    29.90300   28.07200   17.25200  
H    29.71800   27.22200   15.70700  
S    29.47400   25.80700   17.69800  
C    29.05500   26.41100   19.34900  
H    28.06200   26.86800   19.37500  
H    29.20400   25.56600   20.02500  
H    29.81500   27.16000   19.58700  
O    30.90500   25.38900   17.82900  
C    34.49200   26.68800   26.04600  
H    34.76400   26.58100   24.99200  
H    33.60300   27.32100   26.10500  
H    35.34800   27.12500   26.56700  
S    34.02500   25.05300   26.65500  
C    32.55500   24.71600   25.66000  
H    31.83600   25.50500   25.89900  
H    32.93400   24.75000   24.63500  
H    32.02000   23.79300   25.89700  
O    33.41700   25.52400   27.93900  
C    26.61100   30.77500   15.28100  
H    26.25200   31.72300   15.68900  
H    26.61400   31.02200   14.21600  
H    25.89100   29.96200   15.40100  
S    28.27700   30.35600   15.84200  
C    27.68200   30.09900   17.52900  
H    28.52800   30.18900   18.21500  
H    26.93400   30.84300   17.81500  
H    27.20100   29.12600   17.66100  
O    28.89800   31.70800   16.01500  
C    24.20100   30.80600   28.73600  
H    23.11500   30.92300   28.69800  
H    24.58200   31.18500   29.68700  
H    24.61300   31.35900   27.88800  
S    24.47300   29.02000   28.68500  
C    26.02900   29.02700   27.76700  
H    25.73900   29.57400   26.86600  
H    26.76600   29.62900   28.30400  
H    26.29400   27.97300   27.64900  
O    23.39300   28.66500   27.71100  
C    23.44600   29.46100   19.87200  
H    24.19300   30.09600   20.35500  
H    22.47500   29.93700   20.03000  
H    23.50100   28.38400   20.04900  
S    23.83900   29.43900   18.10800  
C    22.25800   28.77100   17.54500  
H    21.44600   29.49100   17.67800  
H    22.25600   28.66700   16.45600  
H    22.02300   27.87100   18.11800  
O    24.85000   28.36400   17.85700  
C    25.39700   35.44200   26.59400  
H    24.54400   35.31700   27.26600  
H    25.73600   36.47900   26.66300  
H    24.96800   35.39400   25.58900  
S    26.72900   34.28900   26.99500  
C    27.72800   34.69100   25.54300  
H    28.31200   35.60600   25.66900  
H    28.41200   33.84100   25.47900  
H    27.03300   34.69200   24.69900  
O    26.07900   32.96100   26.76300  
C    23.99600   19.85800   27.17500  
H    24.47800   20.83800   27.13900  
H    24.40300   19.26100   27.99500  
H    24.20400   19.34100   26.23400  
S    22.20900   20.02100   27.38600  
C    21.93200   20.94800   25.86000  
H    20.89900   21.30400   25.84400  
H    22.68600   21.71700   25.67400  
H    21.81900   20.29100   24.99300  
O    22.20200   21.03900   28.48300  
C    21.60600   27.94700   22.02900  
H    21.55300   27.43300   21.06500  
H    22.04600   28.94700   22.06900  
H    22.06000   27.33200   22.81100  
S    19.85200   28.19000   22.38900  
C    19.70900   29.66600   21.35600  
H    18.71100   30.10600   21.29300  
H    20.50800   30.35100   21.65300  
H    20.01000   29.41000   20.33700  
O    19.90200   28.66900   23.80600  
C    23.33100   21.27600   22.05300  
H    23.49700   22.09800   21.35300  
H    23.29300   20.34200   21.48700  
H    22.36300   21.41000   22.54200  
S    24.70800   21.16300   23.21800  
C    25.01800   22.88200   23.68200  
H    26.01500   22.97000   24.12000  
H    25.01300   23.53900   22.80800  
H    24.21900   23.17100   24.36900  
O    25.86000   20.99000   22.27800  
C    30.79200   28.46800   26.47700  
H    31.40100   27.56700   26.58400  
H    30.38000   28.47500   25.46500  
H    31.30500   29.42000   26.63600  
S    29.37900   28.41300   27.60200  
C    30.39000   27.97900   29.03600  
H    31.09300   27.22200   28.67900  
H    30.97800   28.85100   29.33500  
H    29.77700   27.60500   29.85900  
O    28.74100   27.11200   27.22500  
C    23.89800   21.02200   18.08600  
H    23.96800   21.55800   19.03600  
H    23.31000   21.65000   17.41200  
H    23.36500   20.11100   18.37000  
S    25.56200   20.69200   17.46300  
C    26.18000   19.98600   19.00800  
H    26.25600   20.62800   19.88900  
H    25.63200   19.08400   19.29200  
H    27.16400   19.62500   18.69800  
O    26.21700   22.03300   17.58100  
$end

$rem
JOBTYPE  SP
METHOD  B3LYP
BASIS  6-31+G(D)
SYMMETRY  FALSE
SYM_IGNORE  TRUE
MEM_TOTAL  16000
MEM_STATIC  8000
MAX_SUB_FILE_NUM  16000
BASIS_LIN_DEP_THRESH  6
THRESH  14
SCF_CONVERGENCE  8
GEN_SCFMAN  TRUE
SCF_GUESS  FRAGMO
FD_MAT_VEC_PROD  FALSE
XC_GRID  000075000302
NL_GRID  1
MAX_SCF_CYCLES  200
FRGM_METHOD  STOLL
SCFMI_MODE  1
$end

$development
almo_efield  1
$end

$rem_frgm
SCF_CONVERGENCE  4
$end

--------------------------------------------------------------
 ----------------------------------------------------------------
             Standard Nuclear Orientation (Angstroms)
    I     Atom           X                Y                Z
 ----------------------------------------------------------------
    1      C      28.1060000000    28.2450000000    23.2180000000
    2      C      27.1080000000    28.4700000000    24.3660000000
    3      C      25.8650000000    27.5920000000    24.1490000000
    4      C      26.2650000000    26.1070000000    24.1560000000
    5      C      27.3680000000    25.8250000000    23.1230000000
    6      C      28.5690000000    26.7840000000    23.0950000000
    7      H      25.2720000000    27.7690000000    25.0540000000
    8      H      27.5860000000    28.1670000000    25.3050000000
    9      H      27.5070000000    28.6930000000    22.4150000000
   10      H      28.9650000000    28.9180000000    23.3320000000
   11      H      26.5620000000    25.8830000000    25.1880000000
   12      H      25.4420000000    25.4300000000    23.8960000000
   13      H      27.6070000000    24.7550000000    23.1250000000
   14      H      26.8240000000    26.0580000000    22.1990000000
   15      H      29.1740000000    26.5210000000    23.9720000000
   16      H      29.1200000000    26.6240000000    22.1600000000
   17      H      25.3350000000    27.9940000000    23.2760000000
   18      N      26.6510000000    29.8580000000    24.3560000000
   19      H      25.7560000000    30.0150000000    23.9070000000
   20      C      27.3350000000    30.9610000000    24.8210000000
   21      H      26.9030000000    31.9550000000    24.6030000000
   22      O      28.4850000000    30.8570000000    25.2110000000
   23      C      23.1230000000    33.0900000000    24.7770000000
   24      H      23.3130000000    33.8970000000    24.0650000000
   25      H      22.1700000000    33.1020000000    25.3120000000
   26      H      23.9780000000    33.0540000000    25.4560000000
   27      S      23.0920000000    31.6110000000    23.7390000000
   28      C      22.8900000000    30.4850000000    25.1380000000
   29      H      22.5800000000    29.5140000000    24.7450000000
   30      H      23.8550000000    30.5080000000    25.6500000000
   31      H      22.0780000000    30.8130000000    25.7920000000
   32      O      24.5350000000    31.4240000000    23.3850000000
   33      C      34.8440000000    31.7420000000    25.6340000000
   34      H      34.2170000000    32.5310000000    25.2110000000
   35      H      34.8080000000    31.6150000000    26.7190000000
   36      H      35.8930000000    31.7670000000    25.3300000000
   37      S      34.2450000000    30.1250000000    25.0940000000
   38      C      35.0270000000    30.1540000000    23.4650000000
   39      H      34.7200000000    29.2590000000    22.9190000000
   40      H      34.6630000000    31.0040000000    22.8820000000
   41      H      36.1020000000    30.1790000000    23.6600000000
   42      O      32.7970000000    30.4080000000    24.8370000000
   43      C      31.1230000000    33.4180000000    24.5750000000
   44      H      30.4870000000    33.7670000000    25.3930000000
   45      H      30.9620000000    32.3440000000    24.4530000000
   46      H      32.1690000000    33.5550000000    24.8590000000
   47      S      30.5740000000    34.2930000000    23.0920000000
   48      C      30.7650000000    35.9430000000    23.8040000000
   49      H      30.4780000000    36.6730000000    23.0430000000
   50      H      30.0100000000    36.0420000000    24.5880000000
   51      H      31.7450000000    36.0460000000    24.2760000000
   52      O      29.0990000000    34.0920000000    22.9370000000
   53      C      32.2560000000    29.7810000000    21.4650000000
   54      H      31.7870000000    28.8770000000    21.8610000000
   55      H      33.3020000000    29.5890000000    21.2130000000
   56      H      32.3260000000    30.4820000000    22.3000000000
   57      S      31.4730000000    30.5900000000    20.0520000000
   58      C      29.8790000000    30.9410000000    20.8270000000
   59      H      29.8860000000    31.6740000000    21.6380000000
   60      H      29.2540000000    31.3660000000    20.0370000000
   61      H      29.5240000000    30.0290000000    21.3130000000
   62      O      31.0160000000    29.4000000000    19.2660000000
   63      C      26.9910000000    18.8600000000    25.1590000000
   64      H      25.9510000000    18.6140000000    24.9280000000
   65      H      27.3320000000    18.1880000000    25.9510000000
   66      H      26.9440000000    19.9020000000    25.4860000000
   67      S      28.1630000000    18.7140000000    23.7920000000
   68      C      28.0180000000    16.9300000000    23.5420000000
   69      H      28.5820000000    16.7510000000    22.6230000000
   70      H      28.3960000000    16.2580000000    24.3160000000
   71      H      26.9630000000    16.6740000000    23.4150000000
   72      O      29.4700000000    18.7740000000    24.5180000000
   73      C      32.1560000000    33.5200000000    28.5210000000
   74      H      31.6690000000    33.4650000000    29.4980000000
   75      H      33.2060000000    33.8210000000    28.5580000000
   76      H      31.5930000000    34.2710000000    27.9600000000
   77      S      32.0720000000    31.8560000000    27.8210000000
   78      C      30.2650000000    31.8660000000    27.8360000000
   79      H      29.8640000000    31.7430000000    28.8460000000
   80      H      29.7920000000    32.6910000000    27.2960000000
   81      H      30.0020000000    31.0050000000    27.2170000000
   82      O      32.3630000000    31.0040000000    29.0160000000
   83      C      29.2620000000    24.9660000000    30.8350000000
   84      H      28.8980000000    25.3960000000    29.8980000000
   85      H      28.3700000000    24.6680000000    31.3920000000
   86      H      29.8460000000    25.7350000000    31.3470000000
   87      S      30.3730000000    23.5650000000    30.5740000000
   88      C      31.1920000000    24.3220000000    29.1530000000
   89      H      30.4620000000    24.5660000000    28.3770000000
   90      H      31.6290000000    25.2160000000    29.6070000000
   91      H      31.9650000000    23.6380000000    28.7930000000
   92      O      29.5210000000    22.4320000000    30.0920000000
   93      C      24.3060000000    23.6610000000    28.0460000000
   94      H      23.3630000000    23.1080000000    28.0830000000
   95      H      24.7640000000    23.5780000000    27.0570000000
   96      H      24.9570000000    23.1770000000    28.7780000000
   97      S      24.3510000000    25.3570000000    28.6660000000
   98      C      26.1350000000    25.3280000000    28.9520000000
   99      H      26.5420000000    25.9930000000    28.1860000000
  100      H      26.2650000000    25.7800000000    29.9390000000
  101      H      26.5950000000    24.3430000000    28.8340000000
  102      O      23.7700000000    25.3530000000    30.0460000000
  103      C      29.4650000000    21.5190000000    22.6670000000
  104      H      29.0180000000    21.5910000000    23.6620000000
  105      H      28.6660000000    21.3670000000    21.9370000000
  106      H      30.2570000000    20.7700000000    22.5910000000
  107      S      30.1560000000    23.1560000000    22.3400000000
  108      C      30.7470000000    22.6510000000    20.7090000000
  109      H      31.1130000000    23.6220000000    20.3650000000
  110      H      31.5700000000    21.9370000000    20.7990000000
  111      H      29.9150000000    22.2480000000    20.1260000000
  112      O      31.4470000000    23.1980000000    23.0980000000
  113      C      28.8720000000    23.6310000000    25.8350000000
  114      H      29.7720000000    23.0300000000    25.6860000000
  115      H      28.2790000000    23.6580000000    24.9170000000
  116      H      29.0970000000    24.6510000000    26.1570000000
  117      S      27.9850000000    22.8190000000    27.1840000000
  118      C      29.0520000000    21.3610000000    27.1260000000
  119      H      29.0660000000    20.9870000000    26.0990000000
  120      H      30.0900000000    21.6270000000    27.3420000000
  121      H      28.5930000000    20.5920000000    27.7530000000
  122      O      26.8010000000    22.2020000000    26.5080000000
  123      C      25.5810000000    34.6370000000    22.0520000000
  124      H      24.9320000000    35.5160000000    22.0710000000
  125      H      25.5070000000    34.0700000000    22.9840000000
  126      H      26.5850000000    34.9500000000    21.7530000000
  127      S      25.0200000000    33.5290000000    20.7390000000
  128      C      26.5430000000    32.5940000000    20.4710000000
  129      H      26.5590000000    32.2120000000    19.4460000000
  130      H      27.4200000000    33.2190000000    20.6570000000
  131      H      26.5370000000    31.7540000000    21.1710000000
  132      O      25.0680000000    34.4040000000    19.5250000000
  133      C      22.4870000000    26.0940000000    25.1550000000
  134      H      22.6920000000    26.3120000000    26.2060000000
  135      H      23.3170000000    26.1680000000    24.4480000000
  136      H      21.6260000000    26.6510000000    24.7750000000
  137      S      21.8480000000    24.4100000000    25.3030000000
  138      C      21.3380000000    24.3540000000    23.5700000000
  139      H      20.5970000000    25.1310000000    23.3700000000
  140      H      22.1700000000    24.4100000000    22.8630000000
  141      H      20.7820000000    23.4130000000    23.5520000000
  142      O      20.5620000000    24.3860000000    26.0690000000
  143      C      23.0420000000    25.2750000000    19.1940000000
  144      H      22.1580000000    25.7670000000    19.6080000000
  145      H      23.3670000000    25.6220000000    18.2100000000
  146      H      22.9740000000    24.1900000000    19.3110000000
  147      S      24.4350000000    25.8500000000    20.1920000000
  148      C      25.5870000000    24.4660000000    20.0460000000
  149      H      25.8240000000    24.3550000000    18.9850000000
  150      H      26.5030000000    24.7230000000    20.5850000000
  151      H      25.0220000000    23.5880000000    20.3680000000
  152      O      23.8520000000    25.6510000000    21.5570000000
  153      C      33.8130000000    27.1920000000    19.1280000000
  154      H      33.5140000000    26.5000000000    18.3370000000
  155      H      32.9750000000    27.8760000000    19.2830000000
  156      H      34.6890000000    27.8090000000    18.9140000000
  157      S      34.2580000000    26.2820000000    20.6250000000
  158      C      32.6060000000    25.9510000000    21.2760000000
  159      H      32.5920000000    25.4740000000    22.2590000000
  160      H      32.0270000000    26.8770000000    21.3250000000
  161      H      32.0160000000    25.3290000000    20.5980000000
  162      O      34.8570000000    27.3090000000    21.5350000000
  163      C      27.4280000000    30.5050000000    33.0520000000
  164      H      27.2290000000    29.9790000000    33.9890000000
  165      H      28.4200000000    30.9490000000    32.9440000000
  166      H      26.7630000000    31.2930000000    32.6890000000
  167      S      27.0640000000    29.3290000000    31.7280000000
  168      C      25.3890000000    28.8040000000    32.1600000000
  169      H      25.5000000000    28.4090000000    33.1730000000
  170      H      24.6420000000    29.6010000000    32.2000000000
  171      H      25.0210000000    28.0540000000    31.4560000000
  172      O      27.8720000000    28.0870000000    31.9400000000
  173      C      29.3180000000    27.3180000000    16.7200000000
  174      H      28.2530000000    27.5560000000    16.6670000000
  175      H      29.9030000000    28.0720000000    17.2520000000
  176      H      29.7180000000    27.2220000000    15.7070000000
  177      S      29.4740000000    25.8070000000    17.6980000000
  178      C      29.0550000000    26.4110000000    19.3490000000
  179      H      28.0620000000    26.8680000000    19.3750000000
  180      H      29.2040000000    25.5660000000    20.0250000000
  181      H      29.8150000000    27.1600000000    19.5870000000
  182      O      30.9050000000    25.3890000000    17.8290000000
  183      C      34.4920000000    26.6880000000    26.0460000000
  184      H      34.7640000000    26.5810000000    24.9920000000
  185      H      33.6030000000    27.3210000000    26.1050000000
  186      H      35.3480000000    27.1250000000    26.5670000000
  187      S      34.0250000000    25.0530000000    26.6550000000
  188      C      32.5550000000    24.7160000000    25.6600000000
  189      H      31.8360000000    25.5050000000    25.8990000000
  190      H      32.9340000000    24.7500000000    24.6350000000
  191      H      32.0200000000    23.7930000000    25.8970000000
  192      O      33.4170000000    25.5240000000    27.9390000000
  193      C      26.6110000000    30.7750000000    15.2810000000
  194      H      26.2520000000    31.7230000000    15.6890000000
  195      H      26.6140000000    31.0220000000    14.2160000000
  196      H      25.8910000000    29.9620000000    15.4010000000
  197      S      28.2770000000    30.3560000000    15.8420000000
  198      C      27.6820000000    30.0990000000    17.5290000000
  199      H      28.5280000000    30.1890000000    18.2150000000
  200      H      26.9340000000    30.8430000000    17.8150000000
  201      H      27.2010000000    29.1260000000    17.6610000000
  202      O      28.8980000000    31.7080000000    16.0150000000
  203      C      24.2010000000    30.8060000000    28.7360000000
  204      H      23.1150000000    30.9230000000    28.6980000000
  205      H      24.5820000000    31.1850000000    29.6870000000
  206      H      24.6130000000    31.3590000000    27.8880000000
  207      S      24.4730000000    29.0200000000    28.6850000000
  208      C      26.0290000000    29.0270000000    27.7670000000
  209      H      25.7390000000    29.5740000000    26.8660000000
  210      H      26.7660000000    29.6290000000    28.3040000000
  211      H      26.2940000000    27.9730000000    27.6490000000
  212      O      23.3930000000    28.6650000000    27.7110000000
  213      C      23.4460000000    29.4610000000    19.8720000000
  214      H      24.1930000000    30.0960000000    20.3550000000
  215      H      22.4750000000    29.9370000000    20.0300000000
  216      H      23.5010000000    28.3840000000    20.0490000000
  217      S      23.8390000000    29.4390000000    18.1080000000
  218      C      22.2580000000    28.7710000000    17.5450000000
  219      H      21.4460000000    29.4910000000    17.6780000000
  220      H      22.2560000000    28.6670000000    16.4560000000
  221      H      22.0230000000    27.8710000000    18.1180000000
  222      O      24.8500000000    28.3640000000    17.8570000000
  223      C      25.3970000000    35.4420000000    26.5940000000
  224      H      24.5440000000    35.3170000000    27.2660000000
  225      H      25.7360000000    36.4790000000    26.6630000000
  226      H      24.9680000000    35.3940000000    25.5890000000
  227      S      26.7290000000    34.2890000000    26.9950000000
  228      C      27.7280000000    34.6910000000    25.5430000000
  229      H      28.3120000000    35.6060000000    25.6690000000
  230      H      28.4120000000    33.8410000000    25.4790000000
  231      H      27.0330000000    34.6920000000    24.6990000000
  232      O      26.0790000000    32.9610000000    26.7630000000
  233      C      23.9960000000    19.8580000000    27.1750000000
  234      H      24.4780000000    20.8380000000    27.1390000000
  235      H      24.4030000000    19.2610000000    27.9950000000
  236      H      24.2040000000    19.3410000000    26.2340000000
  237      S      22.2090000000    20.0210000000    27.3860000000
  238      C      21.9320000000    20.9480000000    25.8600000000
  239      H      20.8990000000    21.3040000000    25.8440000000
  240      H      22.6860000000    21.7170000000    25.6740000000
  241      H      21.8190000000    20.2910000000    24.9930000000
  242      O      22.2020000000    21.0390000000    28.4830000000
  243      C      21.6060000000    27.9470000000    22.0290000000
  244      H      21.5530000000    27.4330000000    21.0650000000
  245      H      22.0460000000    28.9470000000    22.0690000000
  246      H      22.0600000000    27.3320000000    22.8110000000
  247      S      19.8520000000    28.1900000000    22.3890000000
  248      C      19.7090000000    29.6660000000    21.3560000000
  249      H      18.7110000000    30.1060000000    21.2930000000
  250      H      20.5080000000    30.3510000000    21.6530000000
  251      H      20.0100000000    29.4100000000    20.3370000000
  252      O      19.9020000000    28.6690000000    23.8060000000
  253      C      23.3310000000    21.2760000000    22.0530000000
  254      H      23.4970000000    22.0980000000    21.3530000000
  255      H      23.2930000000    20.3420000000    21.4870000000
  256      H      22.3630000000    21.4100000000    22.5420000000
  257      S      24.7080000000    21.1630000000    23.2180000000
  258      C      25.0180000000    22.8820000000    23.6820000000
  259      H      26.0150000000    22.9700000000    24.1200000000
  260      H      25.0130000000    23.5390000000    22.8080000000
  261      H      24.2190000000    23.1710000000    24.3690000000
  262      O      25.8600000000    20.9900000000    22.2780000000
  263      C      30.7920000000    28.4680000000    26.4770000000
  264      H      31.4010000000    27.5670000000    26.5840000000
  265      H      30.3800000000    28.4750000000    25.4650000000
  266      H      31.3050000000    29.4200000000    26.6360000000
  267      S      29.3790000000    28.4130000000    27.6020000000
  268      C      30.3900000000    27.9790000000    29.0360000000
  269      H      31.0930000000    27.2220000000    28.6790000000
  270      H      30.9780000000    28.8510000000    29.3350000000
  271      H      29.7770000000    27.6050000000    29.8590000000
  272      O      28.7410000000    27.1120000000    27.2250000000
  273      C      23.8980000000    21.0220000000    18.0860000000
  274      H      23.9680000000    21.5580000000    19.0360000000
  275      H      23.3100000000    21.6500000000    17.4120000000
  276      H      23.3650000000    20.1110000000    18.3700000000
  277      S      25.5620000000    20.6920000000    17.4630000000
  278      C      26.1800000000    19.9860000000    19.0080000000
  279      H      26.2560000000    20.6280000000    19.8890000000
  280      H      25.6320000000    19.0840000000    19.2920000000
  281      H      27.1640000000    19.6250000000    18.6980000000
  282      O      26.2170000000    22.0330000000    17.5810000000
 ----------------------------------------------------------------
 Nuclear Repulsion Energy =       46027.42725677 hartrees
 There are      581 alpha and      581 beta electrons
 Requested basis set is 6-31+G(d)
 There are 929 shells and 2589 basis functions

 Total QAlloc Memory Limit  16000 MB
 Mega-Array Size      7821 MB
 MEM_STATIC part      8000 MB
 A cutoff of  1.0D-14 yielded 174759 shell pairs
 There are   1502504 function pairs
 Smallest overlap matrix eigenvalue = 3.54E-07
 Linear dependence detected in AO basis
 Tighter screening thresholds may be required for diffuse basis sets
 Use S2THRESH > 14 and THRESH = 14 in case of SCF convergence issues
 Number of orthogonalized atomic orbitals = 2586
 Maximum deviation from orthogonality = 1.340E-10

 Scale SEOQF with 1.000000e-03/1.000000e-03/1.000000e-03

 Standard Electronic Orientation quadrupole field applied
 Nucleus-field energy     =     0.0000002113 hartrees
Attempting to make child job directory: /local/scratch/users/ymao/r7.00_frame_0085_almo_B3LYP_dp.in20210311133743//Frg1/
Attempting to make child job directory: /local/scratch/users/ymao/r7.00_frame_0085_almo_B3LYP_dp.in20210311133743//Frg2/
Creating input file /local/scratch/users/ymao/r7.00_frame_0085_almo_B3LYP_dp.in20210311133743/Frg1.input
using default PutDataFrgm: nothing
calling putenv with: QCSCRATCH=/local/scratch/users/ymao/r7.00_frame_0085_almo_B3LYP_dp.in20210311133743/ 
Spawning Job For Fragment 0
Done Job For Fragment 0
calling putenv with: QCSCRATCH=/local/scratch/users/ymao 
calling putenv with: QCTHREADS=8 
Creating input file /local/scratch/users/ymao/r7.00_frame_0085_almo_B3LYP_dp.in20210311133743/Frg2.input
using default PutDataFrgm: nothing
calling putenv with: QCSCRATCH=/local/scratch/users/ymao/r7.00_frame_0085_almo_B3LYP_dp.in20210311133743/ 
Spawning Job For Fragment 1
Done Job For Fragment 1
calling putenv with: QCSCRATCH=/local/scratch/users/ymao 
calling putenv with: QCTHREADS=8 
 Time for running child jobs:  CPU 0.83 s  wall 20322.63 s

 -----------------------------------------------------------------------
  General SCF calculation program by
  Eric Jon Sundstrom, Paul Horn, Yuezhi Mao, Dmitri Zuev, Alec White,
  David Stuck, Shaama M.S., Shane Yost, Joonho Lee, David Small,
  Daniel Levine, Susi Lehtola, Hugh Burton, Evgeny Epifanovsky,
  Bang C. Huynh
 -----------------------------------------------------------------------
Performing Restricted Closed Shell SCFMI
Doing General SCFMI
 Exchange:     0.2000 Hartree-Fock + 0.0800 Slater + 0.7200 B88
 Correlation:  0.1900 VWN1RPA + 0.8100 LYP
 Using Euler-Maclaurin-Lebedev (75,302) quadrature formula
performing fock build before subrot guess so that all methods have access
Printing subrot_rss_gen Method Specification:
Occupied Subspace Method is 0
Virtual Subspace Method is 0
Energy prior to optimization (guess energy) = -14787.485609240874
Begin Timing: Total SCF Calculation
begin iterations for algorithm: DIIS         
the SCF tolerance is set to 1.00e-08
    1  -14787.4856092409      4.76e-05     00000 
    2  -14787.4854564375      7.01e-05     00000 
    3  -14787.4965729068      1.96e-05     00000 
    4  -14787.4974201728      7.26e-06     00000 
    5  -14787.4975675787      3.61e-06     00000 
    6  -14787.4975974612      2.30e-06     00000 
    7  -14787.4976105200      1.26e-06     00000 
    8  -14787.4976149720      6.81e-07     00000 
    9  -14787.4976159594      4.65e-07     00000 
   10  -14787.4976162954      3.35e-07     00000 
   11  -14787.4976165238      1.79e-07     00000 
   12  -14787.4976165999      1.07e-07     00000 
   13  -14787.4976166280      6.40e-08     00000 
   14  -14787.4976166358      4.54e-08     00000 
   15  -14787.4976166396      2.77e-08     00000 
   16  -14787.4976166414      1.32e-08     00000 
   17  -14787.4976166417      7.67e-09     00000 Convergence criterion met
write pseudocanon occs and virts to disk
write pseudocanon orbital energies to disk
Timing for Total SCF: 52581.00s (wall), 416675.49s (cpu)
SCFMI Energy  -14787.4976166417
<S^2>            0.00000
 Total energy in the final basis set =   -14787.4976166417
    ==================================================
        The end of Object-Oriented SCFman: SCFMI      
    ==================================================
 
 --------------------------------------------------------------
 
                    Orbital Energies (a.u.)
 --------------------------------------------------------------
 
 Alpha MOs
 -- Occupied --
-89.0279 -89.0259 -89.0226 -89.0163 -89.0159 -89.0150 -89.0131 -89.0128
-89.0126 -89.0121 -89.0076 -88.9976 -88.9958 -88.9953 -88.9943 -88.9936
-88.9897 -88.9893 -88.9874 -88.9873 -88.9852 -88.9833 -88.9825 -88.9809
-88.9655 -88.9567 -19.1469 -19.1466 -19.1439 -19.1333 -19.1284 -19.1275
-19.1262 -19.1230 -19.1219 -19.1208 -19.1204 -19.1135 -19.1125 -19.1113
-19.1099 -19.1097 -19.1040 -19.1035 -19.1017 -19.1010 -19.0997 -19.0982
-19.0944 -19.0925 -19.0916 -19.0857 -19.0731 -14.3496 -10.2804 -10.2490
-10.2480 -10.2459 -10.2457 -10.2427 -10.2412 -10.2401 -10.2385 -10.2376
-10.2374 -10.2340 -10.2325 -10.2315 -10.2311 -10.2309 -10.2298 -10.2224
-10.2192 -10.2191 -10.2179 -10.2178 -10.2177 -10.2157 -10.2144 -10.2144
-10.2123 -10.2116 -10.2115 -10.2103 -10.2101 -10.2093 -10.2092 -10.2075
-10.2061 -10.2050 -10.2047 -10.2044 -10.2041 -10.2031 -10.2029 -10.2004
-10.2003 -10.2002 -10.1990 -10.1982 -10.1976 -10.1931 -10.1907 -10.1890
-10.1883 -10.1873 -10.1863 -10.1850 -10.1848 -10.1832 -10.1827 -10.1760
-10.1651  -8.0736  -8.0715  -8.0688  -8.0624  -8.0619  -8.0615  -8.0595
 -8.0594  -8.0589  -8.0581  -8.0532  -8.0436  -8.0415  -8.0413  -8.0406
 -8.0394  -8.0357  -8.0357  -8.0335  -8.0332  -8.0313  -8.0292  -8.0285
 -8.0267  -8.0119  -8.0024  -6.0380  -6.0367  -6.0358  -6.0347  -6.0332
 -6.0320  -6.0311  -6.0288  -6.0264  -6.0264  -6.0260  -6.0259  -6.0255
 -6.0249  -6.0247  -6.0239  -6.0238  -6.0232  -6.0225  -6.0222  -6.0222
 -6.0220  -6.0212  -6.0199  -6.0191  -6.0188  -6.0174  -6.0170  -6.0168
 -6.0164  -6.0163  -6.0157  -6.0108  -6.0081  -6.0068  -6.0056  -6.0055
 -6.0049  -6.0046  -6.0045  -6.0036  -6.0036  -6.0027  -6.0008  -6.0002
 -6.0001  -5.9993  -5.9988  -5.9988  -5.9987  -5.9984  -5.9980  -5.9973
 -5.9968  -5.9968  -5.9964  -5.9958  -5.9941  -5.9937  -5.9931  -5.9928
 -5.9927  -5.9920  -5.9917  -5.9909  -5.9908  -5.9904  -5.9898  -5.9888
 -5.9867  -5.9859  -5.9843  -5.9764  -5.9748  -5.9692  -5.9667  -5.9656
 -5.9598  -1.0526  -1.0523  -1.0520  -1.0458  -1.0436  -1.0397  -1.0376
 -1.0370  -1.0365  -1.0343  -1.0332  -1.0289  -1.0214  -1.0198  -1.0164
 -1.0149  -1.0148  -1.0146  -1.0140  -1.0132  -1.0125  -1.0106  -1.0068
 -1.0067  -1.0042  -0.9917  -0.9797  -0.9162  -0.8343  -0.8310  -0.8284
 -0.8270  -0.8218  -0.8195  -0.8179  -0.8143  -0.8108  -0.8082  -0.8071
 -0.8055  -0.7975  -0.7961  -0.7948  -0.7930  -0.7905  -0.7877  -0.7876
 -0.7868  -0.7856  -0.7851  -0.7849  -0.7844  -0.7838  -0.7749  -0.7637
 -0.7599  -0.7545  -0.7542  -0.7536  -0.7488  -0.7464  -0.7448  -0.7435
 -0.7425  -0.7394  -0.7357  -0.7336  -0.7331  -0.7300  -0.7276  -0.7275
 -0.7221  -0.7208  -0.7187  -0.7171  -0.7160  -0.7148  -0.7140  -0.7116
 -0.7054  -0.7031  -0.6936  -0.6836  -0.6458  -0.6395  -0.6371  -0.6338
 -0.6307  -0.6284  -0.6276  -0.6275  -0.6254  -0.6244  -0.6242  -0.6207
 -0.6182  -0.6117  -0.6091  -0.6074  -0.6070  -0.6053  -0.6032  -0.6029
 -0.6018  -0.6006  -0.5986  -0.5970  -0.5944  -0.5925  -0.5783  -0.5752
 -0.5704  -0.5671  -0.5257  -0.5232  -0.5126  -0.5083  -0.5044  -0.5041
 -0.5011  -0.4986  -0.4975  -0.4961  -0.4952  -0.4942  -0.4937  -0.4913
 -0.4903  -0.4892  -0.4892  -0.4886  -0.4881  -0.4876  -0.4869  -0.4862
 -0.4852  -0.4847  -0.4838  -0.4833  -0.4815  -0.4813  -0.4788  -0.4783
 -0.4778  -0.4765  -0.4751  -0.4749  -0.4740  -0.4739  -0.4735  -0.4725
 -0.4717  -0.4712  -0.4706  -0.4701  -0.4700  -0.4695  -0.4687  -0.4680
 -0.4664  -0.4661  -0.4659  -0.4628  -0.4618  -0.4613  -0.4609  -0.4602
 -0.4602  -0.4596  -0.4594  -0.4585  -0.4584  -0.4583  -0.4575  -0.4571
 -0.4568  -0.4551  -0.4541  -0.4538  -0.4532  -0.4529  -0.4519  -0.4513
 -0.4502  -0.4499  -0.4493  -0.4486  -0.4482  -0.4476  -0.4467  -0.4460
 -0.4459  -0.4453  -0.4447  -0.4442  -0.4416  -0.4411  -0.4406  -0.4404
 -0.4402  -0.4401  -0.4395  -0.4369  -0.4364  -0.4357  -0.4348  -0.4316
 -0.4309  -0.4302  -0.4295  -0.4291  -0.4283  -0.4275  -0.4269  -0.4266
 -0.4261  -0.4255  -0.4232  -0.4224  -0.4222  -0.4216  -0.4214  -0.4205
 -0.4203  -0.4186  -0.4184  -0.4180  -0.4178  -0.4171  -0.4154  -0.4151
 -0.4148  -0.4143  -0.4135  -0.4117  -0.4116  -0.4112  -0.4101  -0.4084
 -0.4077  -0.4073  -0.4069  -0.4051  -0.4048  -0.4043  -0.4030  -0.4021
 -0.4015  -0.4007  -0.3995  -0.3992  -0.3986  -0.3985  -0.3979  -0.3971
 -0.3969  -0.3960  -0.3945  -0.3935  -0.3931  -0.3924  -0.3911  -0.3900
 -0.3886  -0.3872  -0.3866  -0.3859  -0.3847  -0.3844  -0.3834  -0.3812
 -0.3807  -0.3802  -0.3796  -0.3787  -0.3786  -0.3774  -0.3774  -0.3761
 -0.3754  -0.3753  -0.3751  -0.3739  -0.3735  -0.3726  -0.3712  -0.3672
 -0.3670  -0.3638  -0.3627  -0.3597  -0.3584  -0.3581  -0.3562  -0.3531
 -0.3525  -0.3515  -0.3512  -0.3502  -0.3472  -0.3467  -0.3452  -0.3420
 -0.3416  -0.3389  -0.3339  -0.3296  -0.3190  -0.3113  -0.3092  -0.3090
 -0.3086  -0.3052  -0.2937  -0.2903  -0.2894  -0.2846  -0.2844  -0.2820
 -0.2805  -0.2754  -0.2746  -0.2743  -0.2737  -0.2718  -0.2685  -0.2670
 -0.2662  -0.2648  -0.2628  -0.2622  -0.2614  -0.2606  -0.2587  -0.2580
 -0.2576  -0.2562  -0.2558  -0.2553  -0.2551  -0.2543  -0.2530  -0.2523
 -0.2513  -0.2481  -0.2470  -0.2449  -0.2428  -0.2406  -0.2370  -0.2348
 -0.2336  -0.2326  -0.2317  -0.2298  -0.2294  -0.2271  -0.2249  -0.2238
 -0.2222  -0.2214  -0.2209  -0.2072  -0.1954
 -- Virtual --
 -0.0412  -0.0408  -0.0331  -0.0326  -0.0289  -0.0240  -0.0220  -0.0212
 -0.0187  -0.0179  -0.0167  -0.0161  -0.0137  -0.0133  -0.0126  -0.0101
 -0.0089  -0.0077  -0.0068  -0.0057  -0.0050  -0.0038  -0.0036  -0.0029
 -0.0021  -0.0005   0.0001   0.0006   0.0015   0.0021   0.0038   0.0045
  0.0049   0.0052   0.0062   0.0071   0.0080   0.0085   0.0093   0.0097
  0.0106   0.0111   0.0120   0.0127   0.0132   0.0142   0.0148   0.0155
  0.0158   0.0169   0.0175   0.0183   0.0194   0.0199   0.0206   0.0215
  0.0221   0.0230   0.0239   0.0246   0.0248   0.0253   0.0259   0.0263
  0.0267   0.0271   0.0291   0.0294   0.0298   0.0306   0.0309   0.0315
  0.0322   0.0330   0.0335   0.0343   0.0352   0.0353   0.0363   0.0369
  0.0372   0.0382   0.0385   0.0398   0.0401   0.0415   0.0422   0.0430
  0.0437   0.0452   0.0454   0.0460   0.0474   0.0477   0.0484   0.0485
  0.0492   0.0498   0.0512   0.0519   0.0521   0.0524   0.0528   0.0541
  0.0547   0.0551   0.0558   0.0568   0.0570   0.0577   0.0584   0.0587
  0.0595   0.0604   0.0608   0.0617   0.0626   0.0630   0.0632   0.0641
  0.0642   0.0652   0.0659   0.0667   0.0675   0.0681   0.0691   0.0699
  0.0703   0.0713   0.0722   0.0726   0.0728   0.0732   0.0736   0.0747
  0.0749   0.0766   0.0767   0.0775   0.0784   0.0785   0.0791   0.0805
  0.0805   0.0813   0.0823   0.0831   0.0837   0.0839   0.0848   0.0862
  0.0869   0.0874   0.0876   0.0886   0.0892   0.0902   0.0909   0.0922
  0.0927   0.0930   0.0935   0.0947   0.0959   0.0963   0.0973   0.0979
  0.0982   0.0991   0.0997   0.1001   0.1009   0.1015   0.1022   0.1031
  0.1037   0.1039   0.1043   0.1048   0.1059   0.1063   0.1065   0.1077
  0.1082   0.1084   0.1089   0.1096   0.1105   0.1111   0.1115   0.1122
  0.1131   0.1133   0.1142   0.1147   0.1155   0.1158   0.1165   0.1179
  0.1183   0.1190   0.1196   0.1203   0.1209   0.1214   0.1216   0.1219
  0.1225   0.1235   0.1240   0.1251   0.1255   0.1267   0.1269   0.1276
  0.1284   0.1287   0.1294   0.1300   0.1304   0.1313   0.1318   0.1326
  0.1330   0.1338   0.1342   0.1353   0.1360   0.1362   0.1367   0.1385
  0.1387   0.1390   0.1393   0.1407   0.1410   0.1418   0.1426   0.1433
  0.1436   0.1444   0.1448   0.1454   0.1461   0.1466   0.1474   0.1482
  0.1486   0.1496   0.1498   0.1503   0.1512   0.1526   0.1530   0.1538
  0.1545   0.1551   0.1553   0.1554   0.1571   0.1578   0.1583   0.1586
  0.1597   0.1605   0.1606   0.1618   0.1624   0.1627   0.1632   0.1637
  0.1651   0.1653   0.1655   0.1666   0.1673   0.1683   0.1686   0.1695
  0.1702   0.1706   0.1711   0.1713   0.1718   0.1726   0.1733   0.1737
  0.1745   0.1755   0.1764   0.1769   0.1771   0.1772   0.1781   0.1785
  0.1794   0.1797   0.1803   0.1813   0.1818   0.1827   0.1830   0.1831
  0.1846   0.1853   0.1855   0.1860   0.1866   0.1873   0.1878   0.1883
  0.1899   0.1904   0.1908   0.1915   0.1921   0.1927   0.1931   0.1947
  0.1948   0.1953   0.1962   0.1966   0.1970   0.1973   0.1980   0.1984
  0.1989   0.1997   0.2003   0.2005   0.2016   0.2021   0.2027   0.2037
  0.2042   0.2045   0.2046   0.2056   0.2066   0.2074   0.2078   0.2084
  0.2091   0.2098   0.2099   0.2110   0.2115   0.2123   0.2126   0.2132
  0.2134   0.2146   0.2152   0.2154   0.2161   0.2167   0.2174   0.2182
  0.2187   0.2196   0.2205   0.2212   0.2213   0.2216   0.2234   0.2238
  0.2240   0.2251   0.2254   0.2256   0.2264   0.2273   0.2286   0.2290
  0.2296   0.2305   0.2313   0.2317   0.2319   0.2329   0.2335   0.2347
  0.2350   0.2363   0.2367   0.2370   0.2383   0.2386   0.2393   0.2398
  0.2412   0.2415   0.2420   0.2423   0.2434   0.2444   0.2449   0.2452
  0.2458   0.2467   0.2479   0.2487   0.2492   0.2500   0.2506   0.2521
  0.2527   0.2537   0.2546   0.2549   0.2553   0.2563   0.2577   0.2579
  0.2589   0.2594   0.2600   0.2603   0.2607   0.2617   0.2626   0.2628
  0.2632   0.2642   0.2653   0.2661   0.2665   0.2670   0.2676   0.2683
  0.2686   0.2696   0.2699   0.2711   0.2719   0.2723   0.2734   0.2736
  0.2745   0.2754   0.2756   0.2767   0.2771   0.2777   0.2787   0.2792
  0.2802   0.2814   0.2824   0.2832   0.2838   0.2852   0.2856   0.2866
  0.2871   0.2884   0.2904   0.2905   0.2915   0.2922   0.2927   0.2934
  0.2937   0.2948   0.2958   0.2964   0.2971   0.2976   0.2986   0.2995
  0.3006   0.3016   0.3024   0.3030   0.3038   0.3047   0.3055   0.3062
  0.3081   0.3088   0.3091   0.3097   0.3106   0.3110   0.3129   0.3134
  0.3138   0.3154   0.3166   0.3184   0.3187   0.3200   0.3214   0.3223
  0.3230   0.3243   0.3247   0.3256   0.3262   0.3266   0.3278   0.3290
  0.3297   0.3303   0.3313   0.3322   0.3330   0.3333   0.3350   0.3357
  0.3361   0.3381   0.3390   0.3403   0.3410   0.3413   0.3424   0.3430
  0.3446   0.3448   0.3456   0.3472   0.3480   0.3494   0.3500   0.3506
  0.3517   0.3532   0.3535   0.3541   0.3544   0.3552   0.3554   0.3571
  0.3575   0.3594   0.3601   0.3611   0.3617   0.3624   0.3646   0.3654
  0.3659   0.3664   0.3670   0.3678   0.3693   0.3704   0.3718   0.3728
  0.3729   0.3742   0.3744   0.3750   0.3756   0.3762   0.3776   0.3782
  0.3801   0.3808   0.3814   0.3821   0.3824   0.3826   0.3839   0.3859
  0.3873   0.3876   0.3881   0.3888   0.3894   0.3902   0.3925   0.3935
  0.3944   0.3948   0.3960   0.3965   0.3970   0.3982   0.3983   0.3992
  0.3999   0.4017   0.4018   0.4033   0.4036   0.4041   0.4052   0.4062
  0.4073   0.4077   0.4092   0.4098   0.4108   0.4121   0.4122   0.4130
  0.4142   0.4149   0.4155   0.4158   0.4174   0.4184   0.4209   0.4219
  0.4225   0.4238   0.4252   0.4262   0.4270   0.4282   0.4286   0.4295
  0.4318   0.4328   0.4339   0.4345   0.4348   0.4360   0.4368   0.4373
  0.4394   0.4403   0.4413   0.4423   0.4448   0.4454   0.4461   0.4480
  0.4491   0.4508   0.4509   0.4531   0.4539   0.4540   0.4554   0.4575
  0.4584   0.4590   0.4599   0.4614   0.4620   0.4632   0.4653   0.4657
  0.4672   0.4682   0.4711   0.4734   0.4737   0.4743   0.4766   0.4768
  0.4774   0.4795   0.4800   0.4816   0.4840   0.4844   0.4854   0.4867
  0.4883   0.4892   0.4906   0.4923   0.4933   0.4965   0.4967   0.4972
  0.4980   0.5003   0.5008   0.5037   0.5045   0.5050   0.5061   0.5084
  0.5094   0.5100   0.5117   0.5128   0.5140   0.5144   0.5146   0.5184
  0.5198   0.5214   0.5239   0.5248   0.5259   0.5294   0.5301   0.5308
  0.5321   0.5356   0.5364   0.5379   0.5406   0.5420   0.5450   0.5459
  0.5469   0.5479   0.5499   0.5512   0.5530   0.5543   0.5553   0.5572
  0.5599   0.5606   0.5614   0.5630   0.5635   0.5642   0.5670   0.5680
  0.5699   0.5717   0.5729   0.5743   0.5757   0.5772   0.5803   0.5817
  0.5821   0.5836   0.5853   0.5876   0.5888   0.5894   0.5914   0.5925
  0.5934   0.5952   0.5953   0.5970   0.5982   0.5994   0.6009   0.6016
  0.6039   0.6043   0.6061   0.6092   0.6103   0.6115   0.6124   0.6133
  0.6137   0.6140   0.6169   0.6177   0.6205   0.6210   0.6239   0.6245
  0.6250   0.6259   0.6275   0.6279   0.6297   0.6311   0.6320   0.6351
  0.6356   0.6357   0.6380   0.6392   0.6406   0.6410   0.6418   0.6436
  0.6444   0.6448   0.6468   0.6478   0.6490   0.6508   0.6518   0.6528
  0.6542   0.6562   0.6563   0.6579   0.6585   0.6591   0.6614   0.6633
  0.6647   0.6648   0.6664   0.6672   0.6688   0.6700   0.6705   0.6721
  0.6729   0.6741   0.6747   0.6762   0.6771   0.6780   0.6795   0.6818
  0.6822   0.6826   0.6835   0.6857   0.6864   0.6873   0.6875   0.6903
  0.6905   0.6924   0.6927   0.6930   0.6935   0.6946   0.6972   0.6982
  0.7004   0.7010   0.7017   0.7037   0.7040   0.7045   0.7061   0.7075
  0.7093   0.7108   0.7116   0.7123   0.7135   0.7154   0.7175   0.7185
  0.7208   0.7220   0.7227   0.7236   0.7248   0.7263   0.7279   0.7284
  0.7308   0.7310   0.7316   0.7328   0.7331   0.7348   0.7364   0.7384
  0.7390   0.7403   0.7404   0.7424   0.7428   0.7435   0.7457   0.7471
  0.7504   0.7504   0.7535   0.7541   0.7577   0.7590   0.7593   0.7625
  0.7631   0.7645   0.7662   0.7692   0.7712   0.7720   0.7745   0.7754
  0.7761   0.7784   0.7790   0.7812   0.7837   0.7843   0.7858   0.7870
  0.7880   0.7912   0.7917   0.7929   0.7954   0.7970   0.8017   0.8022
  0.8037   0.8052   0.8082   0.8092   0.8110   0.8119   0.8143   0.8152
  0.8173   0.8198   0.8205   0.8220   0.8227   0.8243   0.8260   0.8264
  0.8286   0.8309   0.8319   0.8331   0.8351   0.8364   0.8374   0.8384
  0.8413   0.8415   0.8426   0.8442   0.8453   0.8480   0.8483   0.8492
  0.8502   0.8512   0.8535   0.8548   0.8550   0.8575   0.8597   0.8601
  0.8617   0.8629   0.8647   0.8649   0.8655   0.8674   0.8685   0.8687
  0.8708   0.8738   0.8743   0.8743   0.8760   0.8761   0.8787   0.8805
  0.8814   0.8820   0.8836   0.8869   0.8881   0.8885   0.8897   0.8910
  0.8926   0.8935   0.8943   0.8955   0.8970   0.8983   0.9001   0.9004
  0.9017   0.9028   0.9046   0.9053   0.9080   0.9087   0.9106   0.9111
  0.9124   0.9139   0.9148   0.9152   0.9172   0.9182   0.9196   0.9205
  0.9221   0.9225   0.9238   0.9255   0.9271   0.9282   0.9289   0.9297
  0.9300   0.9309   0.9320   0.9344   0.9350   0.9378   0.9381   0.9404
  0.9406   0.9421   0.9433   0.9439   0.9453   0.9476   0.9484   0.9487
  0.9489   0.9505   0.9518   0.9540   0.9547   0.9551   0.9578   0.9584
  0.9596   0.9606   0.9619   0.9639   0.9641   0.9652   0.9657   0.9679
  0.9682   0.9701   0.9707   0.9716   0.9736   0.9740   0.9757   0.9770
  0.9777   0.9786   0.9802   0.9819   0.9826   0.9830   0.9840   0.9857
  0.9868   0.9879   0.9890   0.9892   0.9911   0.9914   0.9935   0.9939
  0.9946   0.9951   0.9963   0.9971   0.9983   1.0008   1.0012   1.0034
  1.0042   1.0051   1.0063   1.0070   1.0090   1.0094   1.0101   1.0110
  1.0123   1.0142   1.0148   1.0166   1.0176   1.0187   1.0190   1.0216
  1.0225   1.0231   1.0245   1.0258   1.0272   1.0275   1.0296   1.0307
  1.0316   1.0326   1.0336   1.0356   1.0370   1.0375   1.0383   1.0408
  1.0413   1.0424   1.0435   1.0455   1.0465   1.0470   1.0477   1.0492
  1.0511   1.0529   1.0535   1.0551   1.0569   1.0586   1.0589   1.0602
  1.0632   1.0644   1.0657   1.0667   1.0689   1.0698   1.0705   1.0718
  1.0728   1.0743   1.0763   1.0787   1.0795   1.0801   1.0818   1.0827
  1.0854   1.0858   1.0867   1.0886   1.0900   1.0919   1.0928   1.0930
  1.0946   1.0966   1.0968   1.0999   1.1008   1.1031   1.1036   1.1062
  1.1068   1.1097   1.1108   1.1120   1.1140   1.1143   1.1164   1.1165
  1.1172   1.1187   1.1203   1.1228   1.1231   1.1255   1.1260   1.1265
  1.1275   1.1294   1.1310   1.1323   1.1326   1.1350   1.1364   1.1380
  1.1387   1.1397   1.1408   1.1429   1.1442   1.1458   1.1481   1.1494
  1.1501   1.1510   1.1531   1.1535   1.1561   1.1564   1.1585   1.1591
  1.1595   1.1612   1.1633   1.1648   1.1654   1.1664   1.1687   1.1697
  1.1705   1.1716   1.1725   1.1744   1.1769   1.1779   1.1783   1.1806
  1.1817   1.1828   1.1833   1.1866   1.1877   1.1893   1.1910   1.1930
  1.1953   1.1963   1.1983   1.1997   1.2003   1.2019   1.2042   1.2060
  1.2081   1.2091   1.2114   1.2154   1.2166   1.2179   1.2191   1.2222
  1.2255   1.2269   1.2270   1.2300   1.2316   1.2331   1.2350   1.2358
  1.2400   1.2422   1.2448   1.2464   1.2469   1.2493   1.2511   1.2539
  1.2565   1.2580   1.2622   1.2642   1.2657   1.2682   1.2705   1.2710
  1.2724   1.2736   1.2756   1.2797   1.2827   1.2852   1.2867   1.2873
  1.2901   1.2910   1.2924   1.2958   1.2982   1.2990   1.3012   1.3020
  1.3056   1.3102   1.3114   1.3120   1.3137   1.3158   1.3172   1.3192
  1.3204   1.3241   1.3259   1.3267   1.3290   1.3299   1.3324   1.3370
  1.3383   1.3404   1.3410   1.3449   1.3470   1.3488   1.3511   1.3534
  1.3548   1.3559   1.3582   1.3599   1.3619   1.3639   1.3657   1.3678
  1.3697   1.3698   1.3729   1.3736   1.3741   1.3758   1.3776   1.3792
  1.3794   1.3823   1.3830   1.3850   1.3866   1.3886   1.3905   1.3912
  1.3926   1.3937   1.3959   1.3977   1.3999   1.4008   1.4023   1.4032
  1.4047   1.4055   1.4081   1.4097   1.4117   1.4130   1.4141   1.4153
  1.4165   1.4177   1.4197   1.4212   1.4239   1.4252   1.4284   1.4294
  1.4309   1.4323   1.4326   1.4336   1.4348   1.4352   1.4385   1.4400
  1.4415   1.4426   1.4448   1.4464   1.4480   1.4488   1.4509   1.4522
  1.4538   1.4549   1.4569   1.4585   1.4615   1.4623   1.4632   1.4648
  1.4665   1.4678   1.4684   1.4704   1.4731   1.4739   1.4757   1.4766
  1.4793   1.4808   1.4822   1.4830   1.4848   1.4869   1.4888   1.4904
  1.4928   1.4956   1.4966   1.5001   1.5013   1.5028   1.5045   1.5084
  1.5111   1.5124   1.5147   1.5178   1.5211   1.5226   1.5237   1.5286
  1.5300   1.5321   1.5360   1.5372   1.5391   1.5407   1.5442   1.5476
  1.5519   1.5522   1.5540   1.5577   1.5580   1.5609   1.5631   1.5665
  1.5668   1.5721   1.5738   1.5787   1.5839   1.5862   1.5907   1.5920
  1.5964   1.5979   1.5997   1.6017   1.6069   1.6102   1.6128   1.6172
  1.6208   1.6245   1.6274   1.6387   1.6446   1.6456   1.6466   1.6502
  1.6563   1.6571   1.6605   1.6628   1.6637   1.6657   1.6673   1.6682
  1.6695   1.6702   1.6707   1.6718   1.6732   1.6749   1.6770   1.6784
  1.6792   1.6797   1.6818   1.6827   1.6837   1.6854   1.6856   1.6888
  1.6891   1.6903   1.6912   1.6918   1.6932   1.6945   1.6950   1.6969
  1.6986   1.6994   1.7006   1.7033   1.7044   1.7055   1.7064   1.7090
  1.7094   1.7109   1.7135   1.7141   1.7151   1.7170   1.7180   1.7186
  1.7195   1.7201   1.7229   1.7246   1.7269   1.7278   1.7292   1.7310
  1.7331   1.7337   1.7371   1.7376   1.7390   1.7415   1.7424   1.7439
  1.7454   1.7459   1.7499   1.7503   1.7515   1.7529   1.7545   1.7555
  1.7570   1.7577   1.7581   1.7613   1.7630   1.7634   1.7643   1.7659
  1.7697   1.7715   1.7730   1.7752   1.7758   1.7762   1.7779   1.7795
  1.7803   1.7842   1.7851   1.7865   1.7893   1.7896   1.7920   1.7947
  1.7957   1.7972   1.7994   1.8005   1.8035   1.8049   1.8061   1.8074
  1.8100   1.8117   1.8157   1.8187   1.8209   1.8253   1.8296   1.8332
  1.8371   1.8378   1.8430   1.8444   1.8488   1.8510   1.8523   1.8537
  1.8540   1.8572   1.8608   1.8621   1.8626   1.8666   1.8696   1.8706
  1.8727   1.8754   1.8759   1.8786   1.8813   1.8829   1.8837   1.8853
  1.8866   1.8880   1.8896   1.8907   1.8927   1.8946   1.8960   1.8981
  1.8997   1.9009   1.9015   1.9017   1.9043   1.9053   1.9058   1.9090
  1.9097   1.9110   1.9119   1.9129   1.9144   1.9150   1.9157   1.9186
  1.9204   1.9210   1.9230   1.9252   1.9261   1.9274   1.9278   1.9297
  1.9307   1.9322   1.9337   1.9362   1.9372   1.9385   1.9407   1.9439
  1.9466   1.9475   1.9489   1.9504   1.9534   1.9548   1.9571   1.9607
  1.9656   1.9689   1.9730   1.9768   1.9791   1.9817   1.9883   1.9909
  1.9932   1.9972   2.0018   2.0086   2.0120   2.0195   2.0291   2.0350
  2.0373   2.0409   2.0441   2.0466   2.0496   2.0510   2.0538   2.0590
  2.0615   2.0649   2.0677   2.0683   2.0686   2.0694   2.0709   2.0730
  2.0738   2.0746   2.0754   2.0769   2.0788   2.0799   2.0813   2.0835
  2.0847   2.0865   2.0874   2.0881   2.0889   2.0904   2.0914   2.0921
  2.0939   2.0947   2.0965   2.0979   2.0995   2.1015   2.1024   2.1035
  2.1066   2.1069   2.1086   2.1099   2.1110   2.1134   2.1154   2.1167
  2.1246   2.1257   2.1314   2.1339   2.1362   2.1387   2.1415   2.1428
  2.1482   2.1515   2.1527   2.1565   2.1581   2.1600   2.1627   2.1658
  2.1708   2.1731   2.1797   2.1810   2.1837   2.1868   2.1886   2.1924
  2.1966   2.1981   2.2004   2.2025   2.2037   2.2056   2.2080   2.2107
  2.2113   2.2134   2.2148   2.2172   2.2215   2.2246   2.2254   2.2267
  2.2275   2.2303   2.2318   2.2333   2.2354   2.2359   2.2365   2.2379
  2.2389   2.2407   2.2418   2.2425   2.2440   2.2464   2.2469   2.2494
  2.2498   2.2517   2.2520   2.2533   2.2542   2.2553   2.2560   2.2564
  2.2565   2.2593   2.2600   2.2614   2.2619   2.2622   2.2634   2.2644
  2.2654   2.2672   2.2680   2.2689   2.2700   2.2701   2.2728   2.2730
  2.2739   2.2753   2.2764   2.2776   2.2783   2.2794   2.2803   2.2804
  2.2813   2.2826   2.2830   2.2837   2.2848   2.2858   2.2870   2.2876
  2.2893   2.2906   2.2911   2.2920   2.2932   2.2939   2.2946   2.2961
  2.2967   2.2980   2.2988   2.3005   2.3017   2.3030   2.3047   2.3061
  2.3066   2.3073   2.3097   2.3105   2.3108   2.3121   2.3126   2.3137
  2.3148   2.3172   2.3189   2.3201   2.3204   2.3225   2.3240   2.3245
  2.3280   2.3289   2.3298   2.3308   2.3329   2.3343   2.3345   2.3375
  2.3393   2.3397   2.3417   2.3431   2.3434   2.3452   2.3465   2.3478
  2.3506   2.3511   2.3531   2.3547   2.3577   2.3586   2.3613   2.3621
  2.3629   2.3655   2.3665   2.3676   2.3681   2.3700   2.3718   2.3734
  2.3755   2.3805   2.3815   2.3864   2.3869   2.3898   2.3907   2.3982
  2.4011   2.4035   2.4072   2.4126   2.4144   2.4201   2.4260   2.4396
  2.4460   2.4749   2.4916   2.5035   2.5422   2.5735   2.5891   2.6748
  2.7488   2.7548   2.7964   2.8108   2.8154   2.8219   2.8268   2.8320
  2.8364   2.8426   2.8427   2.8443   2.8457   2.8488   2.8501   2.8518
  2.8550   2.8552   2.8554   2.8601   2.8608   2.8645   2.8664   2.8691
  2.8748   2.8759   2.8789   2.8843   2.8948   2.9034   2.9122   2.9147
  2.9260   2.9606   3.1134   3.2709   3.9489   3.9558   3.9629   3.9664
  3.9695   3.9707   3.9715   3.9724   3.9745   3.9757   3.9781   3.9785
  3.9848   3.9859   3.9903   3.9919   3.9981   4.0009   4.0043   4.0050
  4.0085   4.0168   4.0237   4.0370   4.0391   4.0667   4.2210   4.2288
  4.2305   4.2366   4.2423   4.2475   4.2490   4.2499   4.2521   4.2560
  4.2622   4.2647   4.2673   4.2700   4.2704   4.2726   4.2773   4.2796
  4.2834   4.2869   4.2903   4.2914   4.2953   4.2963   4.2996   4.3006
  4.3017   4.3048   4.3084   4.3098   4.3144   4.3177   4.3185   4.3219
  4.3227   4.3285   4.3302   4.3307   4.3324   4.3368   4.3393   4.3417
  4.3438   4.3468   4.3486   4.3495   4.3533   4.3567   4.3573   4.3586
  4.3654   4.3691   4.3737   4.3762   4.3790   4.3824   4.3861   4.3920
  4.3989   4.4033   4.4078   4.4106   4.4166   4.4198   4.4303   4.4355
  4.4407   4.4461   4.4515   4.4612   4.4843   4.4922   4.5041   4.5079
  4.5224   4.5293   4.5442   4.5548   4.5993   4.6025   4.6372   4.6838
  4.7267   4.7453   4.7701   4.8068   4.9331
 --------------------------------------------------------------
 
          Ground-State Mulliken Net Atomic Charges

     Atom                 Charge (a.u.)
  ----------------------------------------
      1 C                    -0.053644
      2 C                    -0.492286
      3 C                    -0.506378
      4 C                    -0.304738
      5 C                    -0.478171
      6 C                    -0.488136
      7 H                     0.246264
      8 H                     0.270846
      9 H                     0.196460
     10 H                     0.216820
     11 H                     0.221955
     12 H                     0.192194
     13 H                     0.184036
     14 H                     0.174280
     15 H                     0.221791
     16 H                     0.189823
     17 H                     0.203688
     18 N                    -0.453574
     19 H                     0.479381
     20 C                     0.334936
     21 H                     0.173353
     22 O                    -0.528899
     23 C                    -0.925292
     24 H                     0.237195
     25 H                     0.236203
     26 H                     0.313776
     27 S                     1.067484
     28 C                    -0.839596
     29 H                     0.289015
     30 H                     0.268507
     31 H                     0.257389
     32 O                    -0.831207
     33 C                    -0.754889
     34 H                     0.247760
     35 H                     0.259147
     36 H                     0.230425
     37 S                     0.891986
     38 C                    -0.855523
     39 H                     0.325920
     40 H                     0.250995
     41 H                     0.227589
     42 O                    -0.667160
     43 C                    -0.773673
     44 H                     0.207802
     45 H                     0.336919
     46 H                     0.233621
     47 S                     0.662791
     48 C                    -0.792189
     49 H                     0.262246
     50 H                     0.232711
     51 H                     0.237620
     52 O                    -0.608961
     53 C                    -0.984843
     54 H                     0.260760
     55 H                     0.270832
     56 H                     0.260350
     57 S                     0.934541
     58 C                    -0.745263
     59 H                     0.250810
     60 H                     0.246678
     61 H                     0.264828
     62 O                    -0.766609
     63 C                    -0.924078
     64 H                     0.228787
     65 H                     0.257323
     66 H                     0.316474
     67 S                     0.980412
     68 C                    -0.976790
     69 H                     0.241359
     70 H                     0.267097
     71 H                     0.220862
     72 O                    -0.682464
     73 C                    -0.945811
     74 H                     0.263925
     75 H                     0.242371
     76 H                     0.223180
     77 S                     0.870576
     78 C                    -0.895751
     79 H                     0.267248
     80 H                     0.214760
     81 H                     0.294484
     82 O                    -0.667380
     83 C                    -0.861590
     84 H                     0.281171
     85 H                     0.271242
     86 H                     0.255319
     87 S                     0.667417
     88 C                    -0.744185
     89 H                     0.256154
     90 H                     0.265358
     91 H                     0.259472
     92 O                    -0.663925
     93 C                    -1.207542
     94 H                     0.321460
     95 H                     0.276774
     96 H                     0.247914
     97 S                     1.153261
     98 C                    -1.032542
     99 H                     0.263169
    100 H                     0.284322
    101 H                     0.243437
    102 O                    -0.692075
    103 C                    -1.056173
    104 H                     0.260325
    105 H                     0.264790
    106 H                     0.283217
    107 S                     1.321569
    108 C                    -0.864790
    109 H                     0.234832
    110 H                     0.274067
    111 H                     0.235324
    112 O                    -0.723259
    113 C                    -1.076955
    114 H                     0.279787
    115 H                     0.259762
    116 H                     0.297000
    117 S                     0.750266
    118 C                    -0.797196
    119 H                     0.284162
    120 H                     0.257712
    121 H                     0.267485
    122 O                    -0.687855
    123 C                    -0.879393
    124 H                     0.252528
    125 H                     0.234929
    126 H                     0.262531
    127 S                     0.959556
    128 C                    -0.877950
    129 H                     0.255960
    130 H                     0.266160
    131 H                     0.258709
    132 O                    -0.741486
    133 C                    -0.838837
    134 H                     0.295744
    135 H                     0.268314
    136 H                     0.261252
    137 S                     0.891127
    138 C                    -0.931445
    139 H                     0.255549
    140 H                     0.282515
    141 H                     0.236070
    142 O                    -0.638917
    143 C                    -0.766209
    144 H                     0.251838
    145 H                     0.263736
    146 H                     0.246599
    147 S                     0.611657
    148 C                    -0.887399
    149 H                     0.299442
    150 H                     0.279430
    151 H                     0.238169
    152 O                    -0.618521
    153 C                    -0.832965
    154 H                     0.277642
    155 H                     0.294542
    156 H                     0.246862
    157 S                     0.758528
    158 C                    -0.775340
    159 H                     0.281058
    160 H                     0.237499
    161 H                     0.244871
    162 O                    -0.720406
    163 C                    -0.798413
    164 H                     0.245481
    165 H                     0.260311
    166 H                     0.223774
    167 S                     0.616636
    168 C                    -0.683358
    169 H                     0.243837
    170 H                     0.236362
    171 H                     0.311826
    172 O                    -0.640747
    173 C                    -0.768744
    174 H                     0.227092
    175 H                     0.299686
    176 H                     0.260533
    177 S                     0.778758
    178 C                    -0.976639
    179 H                     0.243016
    180 H                     0.261443
    181 H                     0.318189
    182 O                    -0.660628
    183 C                    -0.789816
    184 H                     0.250025
    185 H                     0.250928
    186 H                     0.254517
    187 S                     0.833000
    188 C                    -0.765425
    189 H                     0.248302
    190 H                     0.247128
    191 H                     0.272796
    192 O                    -0.740712
    193 C                    -0.939748
    194 H                     0.278098
    195 H                     0.240937
    196 H                     0.238169
    197 S                     1.125923
    198 C                    -1.042785
    199 H                     0.278272
    200 H                     0.228195
    201 H                     0.264207
    202 O                    -0.705908
    203 C                    -0.945843
    204 H                     0.267804
    205 H                     0.215984
    206 H                     0.290692
    207 S                     0.503250
    208 C                    -0.416598
    209 H                     0.270804
    210 H                     0.254678
    211 H                     0.274406
    212 O                    -0.601630
    213 C                    -0.593269
    214 H                     0.282793
    215 H                     0.240013
    216 H                     0.255444
    217 S                     0.613643
    218 C                    -0.894819
    219 H                     0.248180
    220 H                     0.262244
    221 H                     0.240387
    222 O                    -0.646880
    223 C                    -0.889288
    224 H                     0.261984
    225 H                     0.240375
    226 H                     0.256804
    227 S                     0.750629
    228 C                    -0.673111
    229 H                     0.220002
    230 H                     0.277111
    231 H                     0.259490
    232 O                    -0.713725
    233 C                    -0.776511
    234 H                     0.310481
    235 H                     0.249369
    236 H                     0.208091
    237 S                     0.773361
    238 C                    -0.790939
    239 H                     0.278934
    240 H                     0.241547
    241 H                     0.224149
    242 O                    -0.660112
    243 C                    -1.132007
    244 H                     0.206225
    245 H                     0.243417
    246 H                     0.309885
    247 S                     1.093808
    248 C                    -0.845998
    249 H                     0.255872
    250 H                     0.257994
    251 H                     0.231192
    252 O                    -0.647584
    253 C                    -0.965128
    254 H                     0.242877
    255 H                     0.259093
    256 H                     0.245928
    257 S                     0.842206
    258 C                    -0.842737
    259 H                     0.313490
    260 H                     0.289176
    261 H                     0.248211
    262 O                    -0.672654
    263 C                    -0.517428
    264 H                     0.229769
    265 H                     0.274731
    266 H                     0.247007
    267 S                     0.259628
    268 C                    -0.742629
    269 H                     0.275259
    270 H                     0.296594
    271 H                     0.286981
    272 O                    -0.692850
    273 C                    -0.878416
    274 H                     0.243037
    275 H                     0.251827
    276 H                     0.239312
    277 S                     0.950444
    278 C                    -0.848334
    279 H                     0.323536
    280 H                     0.226168
    281 H                     0.238441
    282 O                    -0.720695
  ----------------------------------------
  Sum of atomic charges =     0.000000

 -----------------------------------------------------------------
                    Cartesian Multipole Moments
 -----------------------------------------------------------------
    Charge (ESU x 10^10)
                 0.0000
    Dipole Moment (Debye)
         X      -2.7040      Y      14.7997      Z     -10.1910
       Tot      18.1714
    Quadrupole Moments (Debye-Ang)
        XX   -1082.4824     XY     392.9498     YY      26.3368
        XZ    -219.0055     YZ     267.6822     ZZ   -1505.2100
    Octopole Moments (Debye-Ang^2)
       XXX  -82530.9569    XXY  -14346.2967    XYY    1899.6784
       YYY  -30524.5634    XXZ  -27523.0742    XYZ   10202.9470
       YYZ    3770.2618    XZZ  -37243.8172    YZZ  -23042.8985
       ZZZ  -90751.2505
    Hexadecapole Moments (Debye-Ang^3)
      XXXX ************   XXXY ************   XXYY -600632.2286
      XYYY -767177.4254   YYYY ************   XXXZ ************
      XXYZ -254285.5872   XYYZ  211697.8123   YYYZ -477508.2226
      XXZZ ************   XYZZ -501942.7689   YYZZ -606976.5582
      XZZZ ************   YZZZ ************   ZZZZ ************
 -----------------------------------------------------------------
Archival summary:
[...]
    2   0.0003280   0.0349357   0.0276464  -0.0084376  -0.0142607  -0.0023171
    3  -0.0224946   0.0029080   0.0479589  -0.0016718  -0.0287823   0.0225311
          121         122         123         124         125         126
    1  -0.0027053  -0.0862302   0.0047602  -0.0207086   0.0071593   0.0296418
    2  -0.0194110  -0.0441463   0.0010012   0.0228292  -0.0188337   0.0086865
    3   0.0244618  -0.0467796   0.0039872  -0.0029443   0.0308275   0.0017549
          127         128         129         130         131         132
    1  -0.0432248   0.0061457  -0.0043332   0.0231495   0.0021835   0.0025056
    2  -0.0321216  -0.0051158  -0.0035167   0.0177877  -0.0276471   0.0630248
    3   0.0129799   0.0029157  -0.0275909   0.0045065   0.0254540  -0.0903182
          133         134         135         136         137         138
    1  -0.0011572   0.0152334   0.0319301  -0.0221837   0.0460312  -0.0019780
    2   0.0098944   0.0310295   0.0020649   0.0294562  -0.0357528   0.0004340
    3   0.0047223   0.0250006  -0.0163382   0.0024086   0.0076817  -0.0045867
          139         140         141         142         143         144
    1  -0.0215598   0.0254767  -0.0166476  -0.0931448  -0.0011229  -0.0246372
    2   0.0240489   0.0033491  -0.0271104  -0.0041976  -0.0018067   0.0115041
    3  -0.0017274  -0.0216279  -0.0126558   0.0591729  -0.0037582   0.0084260
          145         146         147         148         149         150
    1  -0.0079090  -0.0072459   0.0217209   0.0024294   0.0137838   0.0227615
    2   0.0030821  -0.0293718   0.0507286  -0.0075187  -0.0143029   0.0002899
    3  -0.0393348  -0.0020460  -0.0175559  -0.0045263  -0.0327035   0.0208048
          151         152         153         154         155         156
    1  -0.0031195  -0.0420852  -0.0066892  -0.0074913  -0.0279778   0.0265352
    2  -0.0286447  -0.0110723   0.0063638  -0.0185687   0.0187024   0.0139572
    3   0.0163195   0.1006562  -0.0081669  -0.0274284   0.0035561  -0.0139295
          157         158         159         160         161         162
    1   0.0274327  -0.0112692   0.0058881  -0.0121813  -0.0098157   0.0482991
    2  -0.0519587  -0.0009685  -0.0176027   0.0280387  -0.0189837   0.0717173
    3  -0.0161484   0.0031285   0.0261193   0.0029874  -0.0255773   0.0655473
          163         164         165         166         167         168
    1  -0.0000854  -0.0044102   0.0335720  -0.0271630   0.0017561  -0.0098893
    2   0.0015022  -0.0030737   0.0012415   0.0341177   0.0272978  -0.0066354
    3   0.0042455   0.0343630   0.0008074   0.0139749  -0.0531198   0.0045920
          169         170         171         172         173         174
    1  -0.0046985  -0.0221686  -0.0068850   0.0595555   0.0028620  -0.0296686
    2  -0.0236262   0.0258417  -0.0260023  -0.0922662   0.0106177   0.0082299
    3   0.0275201  -0.0001491  -0.0176248   0.0144624  -0.0010878  -0.0027047
          175         176         177         178         179         180
    1   0.0155145   0.0125626  -0.0453813   0.0031137  -0.0308556  -0.0024954
    2   0.0302286  -0.0093645  -0.0431289   0.0075564   0.0113758  -0.0235326
    3   0.0120854  -0.0270548  -0.0200921   0.0069302   0.0060798   0.0211344
          181         182         183         184         185         186
    1   0.0204417   0.1039535  -0.0008839   0.0113878  -0.0206646   0.0201871
    2   0.0264393  -0.0350472   0.0063136   0.0041048   0.0182587   0.0066575
    3   0.0092641   0.0072815  -0.0069281  -0.0355699   0.0084253   0.0225775
          187         188         189         190         191         192
    1   0.0375279  -0.0073645  -0.0199574  -0.0100217  -0.0028687  -0.0434477
    2  -0.0378659   0.0010780   0.0242181  -0.0088663  -0.0320982   0.0336444
    3  -0.0024489  -0.0070981   0.0006993  -0.0377223   0.0020144   0.0954822
          193         194         195         196         197         198
    1  -0.0084781  -0.0040154   0.0065424  -0.0223557   0.0201086  -0.0031180
    2   0.0042513   0.0247242   0.0020486  -0.0240737  -0.0401757  -0.0032113
    3  -0.0034051   0.0261856  -0.0349769   0.0099133  -0.0205383   0.0106935
          199         200         201         202         203         204
    1   0.0266078  -0.0181147  -0.0191152   0.0470386  -0.0024095  -0.0316018
    2  -0.0013779   0.0256156  -0.0267523   0.0994820   0.0071787  -0.0007079
    3   0.0147681   0.0005105   0.0065331   0.0125148  -0.0028481   0.0007101
          205         206         207         208         209         210
    1   0.0102681   0.0182452   0.0046983   0.0014584   0.0003600   0.0232599
    2   0.0193602   0.0154323  -0.0228654  -0.0021040   0.0050862   0.0114002
    3   0.0255832  -0.0244918   0.0501162  -0.0072112  -0.0386294   0.0141555
          211         212         213         214         215         216
    1   0.0175554  -0.0814785   0.0015206   0.0242250  -0.0275182   0.0041976
    2  -0.0258336  -0.0278508  -0.0026233   0.0084009   0.0091305  -0.0231271
    3  -0.0167621  -0.0698228   0.0090242   0.0257579   0.0074714   0.0308315
          217         218         219         220         221         222
    1   0.0072636  -0.0063576  -0.0231316   0.0081395  -0.0074023   0.0756842
    2   0.0604717  -0.0023526   0.0247271  -0.0156138  -0.0312351  -0.0757792
    3  -0.0203635  -0.0017223   0.0117037  -0.0290213   0.0067810  -0.0199694
          223         224         225         226         227         228
    1  -0.0087983  -0.0210018   0.0098667  -0.0064681   0.0239817  -0.0018835
    2   0.0058654  -0.0062994   0.0324438  -0.0154385   0.0163799  -0.0037834
    3  -0.0030623   0.0234568   0.0081616  -0.0326360   0.0466362  -0.0113497
          229         230         231         232         233         234
    1   0.0083279   0.0086000  -0.0085293  -0.0497713   0.0092012   0.0134565
    2   0.0307198  -0.0192420  -0.0024511  -0.1002085   0.0024413   0.0292570
    3   0.0013940  -0.0193313  -0.0345308  -0.0182394  -0.0017899   0.0048012
          235         236         237         238         239         240
    1   0.0116537   0.0103160  -0.0243342  -0.0023966  -0.0262247   0.0157972
    2  -0.0127798  -0.0159199  -0.0458432   0.0055276   0.0294283   0.0253309
    3   0.0257313  -0.0278275   0.0030903  -0.0051991   0.0167449   0.0018585
          241         242         243         244         245         246
    1   0.0122869  -0.0016437   0.0077015   0.0201275   0.0235802   0.0143729
    2  -0.0283464   0.0739527  -0.0010619  -0.0131115   0.0223220  -0.0186608
    3  -0.0263297   0.0835299   0.0030474  -0.0261176  -0.0017902   0.0132359
          247         248         249         250         251         252
    1  -0.0281141   0.0028263  -0.0270125   0.0123872   0.0031142   0.0024305
    2  -0.0431308   0.0069528   0.0133901   0.0296532  -0.0110532   0.0324775
    3  -0.0148651  -0.0023193   0.0076131   0.0202795  -0.0345337   0.1063483
          253         254         255         256         257         258
    1  -0.0062575   0.0060221   0.0026262  -0.0293432  -0.0086068   0.0008307
    2   0.0035681   0.0247946  -0.0276513   0.0064223  -0.0308082   0.0148173
    3  -0.0048621  -0.0173584  -0.0141155   0.0150146   0.0452909   0.0028957
          259         260         261         262         263         264
    1   0.0235533  -0.0051233  -0.0153613   0.0860991   0.0080432   0.0190117
    2  -0.0050943   0.0212482   0.0212142  -0.0121386  -0.0047300  -0.0249950
    3   0.0233091  -0.0255468   0.0264290  -0.0666521  -0.0046038   0.0090132
          265         266         267         268         269         270
    1  -0.0090006   0.0325811  -0.0243955   0.0079512   0.0202803   0.0201700
    2  -0.0048468   0.0141200   0.0437613  -0.0052210  -0.0261281   0.0243711
    3  -0.0307053  -0.0028908   0.0079487   0.0092467  -0.0022692   0.0156131
          271         272         273         274         275         276
    1  -0.0203783  -0.0511010  -0.0060497   0.0112436  -0.0151970  -0.0192753
    2  -0.0073283  -0.0963833   0.0024244   0.0201905   0.0141303  -0.0300553
    3   0.0246754  -0.0298456   0.0051641   0.0242687  -0.0239385  -0.0009630
          277         278         279         280         281         282
    1   0.0036409   0.0040902  -0.0015054  -0.0170102   0.0345656   0.0508434
    2  -0.0317112  -0.0032967   0.0273226  -0.0288108  -0.0084039   0.0983242
    3  -0.0380115   0.0099570   0.0208342   0.0117311   0.0021675   0.0075802
  --- DONE ESP SUMMARY ---
Archival summary:
1\1\n0096.mhg0\SP\ProcedureUnspecified\6-31+G*\262652h22\ymao\FriMar1211:49:292021FriMar1211:49:292021\0\\#,ProcedureUnspecified,6-31+G*,\\0,1\S\O,1,1.49726\C,1,1.80699,2,101.706\H,3,1.09267,1,106.378,2,61.6915,0\H,3,1.09276,1,110.471,2,-55.0693,0\H,3,1.09305,1,107.635,2,177.046,0\C,1,1.80744,2,103.266,3,-96.6531,0\H,7,1.09223,1,111.476,2,-61.5872,0\H,7,1.09303,1,105.481,2,59.8431,0\H,7,1.0934,1,109.042,2,174.695,0\H,6,2.13251,3,113.591,1,-31.3274,0\C,11,1.09254,6,126.371,3,150.85,0\H,12,1.0936,11,102.16,6,135.93,0\H,12,1.09363,11,110.264,6,-104.308,0\S,12,1.80709,11,103.394,6,15.52,0\O,15,1.4962,12,101.011,11,-90.3795,0\C,15,1.80719,12,92.1874,11,167.066,0\H,17,1.09292,15,108.141,12,-175.753,0\H,17,1.09303,15,106.211,12,61.1276,0\H,17,1.09348,15,114.188,12,-54.4467,0\H,5,2.21592,3,147.82,1,92.4849,0\C,21,1.09389,5,150.198,3,140.817,0\H,22,1.09285,21,103.888,5,149.215,0\H,22,1.09335,21,114.22,5,-86.576,0\S,22,1.80679,21,106.255,5,26.5082,0\O,25,1.49672,22,101.574,21,38.3503,0\C,25,1.80615,22,101.158,21,-60.5225,0\H,27,1.09293,25,107.204,22,51.6676,0\H,27,1.09323,25,113.805,22,176.487,0\H,27,1.09378,25,107.497,22,-64.3677,0\H,9,2.27432,7,128.989,1,-131.813,0\C,31,1.09376,9,117.22,7,103.12,0\H,32,1.09298,31,112.277,9,-6.62004,0\H,32,1.09315,31,111.445,9,120.248,0\S,32,1.80639,31,101.37,9,-124.483,0\O,35,1.4973,32,108.776,31,170.699,0\C,35,1.807,32,93.8687,31,61.8597,0\H,37,1.09296,35,106.538,32,-78.6757,0\H,37,1.09303,35,111.345,32,157.828,0\H,37,1.09333,35,112.696,32,39.1243,0\H,13,2.29395,12,129.231,11,-77.7521,0\C,41,1.09335,13,130.328,12,25.6645,0\H,42,1.09249,41,108.81,13,-84.0012,0\H,42,1.09283,41,108.151,13,31.9597,0\S,42,1.80729,41,106.419,13,149.931,0\O,45,1.49668,42,108.622,41,-53.3042,0\C,45,1.80719,42,94.9707,41,54.9197,0\H,47,1.09261,45,110.552,42,49.0223,0\H,47,1.09288,45,107.925,42,179.762,0\H,47,1.09292,45,106.996,42,-67.7823,0\H,50,2.05958,47,157.951,45,-16.308,0\C,51,1.09277,50,123.872,47,11.0168,0\H,52,1.09291,51,108.875,50,44.2906,0\H,52,1.09333,51,115.338,50,-80.8132,0\S,52,1.80774,51,112.887,50,157.659,0\O,55,1.49663,52,108.229,51,-174.696,0\C,55,1.80677,52,95.0043,51,80.6765,0\H,57,1.09308,55,111.462,52,172.212,0\H,57,1.09318,55,111.268,52,-66.9644,0\H,57,1.09379,55,117.715,52,51.2437,0\H,43,2.31663,42,146.149,41,121.294,0\C,61,1.09297,43,152.257,42,-47.3514,0\H,62,1.09245,61,115.254,43,174.241,0\H,62,1.093,61,116.69,43,-57.338,0\S,62,1.80696,61,109.887,43,56.1278,0\O,65,1.49761,62,101.695,61,-26.1705,0\C,65,1.80721,62,96.406,61,80.7532,0\H,67,1.09242,65,108.407,62,-175.855,0\H,67,1.09283,65,105.378,62,63.3707,0\H,67,1.09311,65,110.434,62,-60.0409,0\H,68,2.24278,67,115.933,65,108.896,0\C,71,1.09292,68,117.101,67,-76.3125,0\H,72,1.09249,71,103.158,68,43.2686,0\H,72,1.0927,71,110.427,68,-70.0219,0\S,72,1.80669,71,108.247,68,159.551,0\O,75,1.49758,72,100.773,71,88.3367,0\C,75,1.80684,72,97.6929,71,-173.675,0\H,77,1.09269,75,108.376,72,-48.5149,0\H,77,1.09319,75,116.284,72,67.3613,0\H,77,1.09332,75,105.658,72,-175.144,0\H,74,2.08444,72,130.631,71,-37.3566,0\C,81,1.09321,74,152.281,72,70.2556,0\H,82,1.09271,81,108.823,74,76.9278,0\H,82,1.09301,81,102.941,74,-169.09,0\S,82,1.80623,81,110.202,74,-49.4918,0\O,85,1.49721,82,105.816,81,57.0971,0\C,85,1.80752,82,99.5315,81,-51.4408,0\H,87,1.09264,85,104.426,82,155.067,0\H,87,1.09268,85,110.37,82,-79.8417,0\H,87,1.09276,85,112.734,82,39.5058,0\H,84,1.94513,82,145.517,81,-125.223,0\C,91,1.09322,84,153.791,82,6.20255,0\H,92,1.09294,91,114.489,84,156.645,0\H,92,1.09326,91,110.729,84,-75.4512,0\S,92,1.80678,91,98.3551,84,40.5665,0\O,95,1.49767,92,100.53,91,-79.2883,0\C,95,1.8067,92,92.0195,91,174.766,0\H,97,1.09272,95,109.345,92,57.7536,0\H,97,1.09289,95,106.543,92,-64.48,0\H,97,1.09317,95,105.156,92,-179.589,0\H,80,2.28738,77,123.847,75,67.0412,0\C,101,1.09289,80,142.004,77,146.253,0\H,102,1.09309,101,108.025,80,1.03457,0\H,102,1.0934,101,109.757,80,-113.927,0\S,102,1.80722,101,108.625,80,122.589,0\O,105,1.49782,102,99.0355,101,-56.3982,0\C,105,1.80716,102,91.1021,101,-158.785,0\H,107,1.0926,105,113.634,102,-61.7876,0\H,107,1.09273,105,112.837,102,68.2934,0\H,107,1.09327,105,110.625,102,179.025,0\H,104,2.13533,102,112.418,101,-79.5672,0\C,111,1.09256,104,128.157,102,50.2581,0\H,112,1.0926,111,113.279,104,-8.46333,0\H,112,1.09334,111,109.318,104,-129.472,0\S,112,1.80664,111,107.015,104,107.388,0\O,115,1.49654,112,111.319,111,179.837,0\C,115,1.80726,112,101.244,111,-70.5988,0\H,117,1.09234,115,105.973,112,-175.564,0\H,117,1.09327,115,105.466,112,-61.7711,0\H,117,1.09342,115,111.836,112,57.6148,0\H,103,2.16216,102,138.332,101,-10.0309,0\C,121,1.09399,103,158.496,102,-33.9325,0\H,122,1.09286,121,110.33,103,94.6837,0\H,122,1.09345,121,109.368,103,-25.8924,0\S,122,1.80709,121,109.387,103,-143.181,0\O,125,1.49724,122,98.9231,121,-49.3074,0\C,125,1.80731,122,99.4008,121,-153.937,0\H,127,1.0928,125,108.748,122,158.097,0\H,127,1.09334,125,105.181,122,41.8598,0\H,127,1.09343,125,106.28,122,-82.0706,0\Gh,78,2.37132,77,147.814,75,115.213,0\Gh,131,1.09718,78,112.549,77,143.52,0\Gh,132,1.09741,131,104.653,78,-28.8518,0\Gh,132,1.53754,131,110.818,78,101.344,0\Gh,134,1.09701,132,110.979,131,-66.8964,0\Gh,134,1.09742,132,109.257,131,56.6689,0\Gh,134,1.53716,132,110.86,131,172.48,0\Gh,137,1.09637,134,116.014,132,-175.082,0\Gh,137,1.09727,134,103.859,132,66.0008,0\Gh,137,1.53728,134,117.283,132,-43.0034,0\Gh,140,1.09693,137,105.417,134,170.517,0\Gh,140,1.097,137,113.606,134,-72.0813,0\Gh,132,1.5377,131,109.926,78,-132.752,0\Gh,143,1.09636,132,108.422,131,-65.5976,0\Gh,143,1.46133,132,109.684,131,59.3057,0\Gh,145,1.01355,143,115.234,132,98.1979,0\Gh,145,1.37866,143,127.045,132,-78.0152,0\Gh,147,1.10552,145,117.32,143,171.344,0\Gh,147,1.21878,145,120.517,143,5.66559,0\Gh,143,1.53721,132,109.624,131,176.244,0\Gh,150,1.09636,143,103.216,132,175.5,0\Gh,150,1.09756,143,107.071,132,-68.814,0\O,146,1.93613,145,142.096,143,-175.375,0\S,153,1.49751,146,129.407,145,-123.881,0\C,154,1.80717,153,102.794,146,112.582,0\H,155,1.09241,154,110.088,153,-41.3584,0\H,155,1.09284,154,103.481,153,72.7663,0\H,155,1.09297,154,105.973,153,-162.956,0\C,154,1.80717,153,102.293,146,15.6891,0\H,159,1.09242,154,107.881,153,-90.7417,0\H,159,1.09266,154,104.532,153,33.2422,0\H,159,1.093,154,111.055,153,153.821,0\H,139,2.11902,137,125.642,134,116.979,0\C,163,1.09345,139,130.574,137,130.573,0\H,164,1.09261,163,118.476,139,-94.2952,0\H,164,1.0928,163,108.711,139,141.368,0\S,164,1.80662,163,108.318,139,25.282,0\O,167,1.49757,164,102.715,163,-79.9803,0\C,167,1.80751,164,101.718,163,177.585,0\H,169,1.09284,167,99.6107,164,-86.8493,0\H,169,1.09312,167,105.721,164,152.501,0\H,169,1.09341,167,107.729,164,33.9427,0\H,138,2.20596,137,123.588,134,78.0041,0\C,173,1.09321,138,149.28,137,-38.7872,0\H,174,1.09243,173,110.239,138,-104.05,0\H,174,1.09303,173,109.633,138,20.4254,0\S,174,1.80718,173,111.82,138,139.53,0\O,177,1.4965,174,103.673,173,10.7669,0\C,177,1.80766,174,92.7938,173,108.554,0\H,179,1.09307,177,108.281,174,-53.1192,0\H,179,1.09309,177,110.971,174,61.4764,0\H,179,1.09324,177,107.525,174,-169.196,0\H,141,2.22344,140,141.78,137,21.414,0\C,183,1.09341,141,96.835,140,97.902,0\H,184,1.09252,183,106.036,141,-60.2422,0\H,184,1.09265,183,109.895,141,62.4363,0\S,184,1.80731,183,111.439,141,-179.486,0\O,187,1.49687,184,97.9983,183,58.6282,0\C,187,1.80724,184,103.693,183,-44.6966,0\H,189,1.09236,187,110.142,184,43.7604,0\H,189,1.09275,187,113.213,184,-78.8363,0\H,189,1.09277,187,107.875,184,161.961,0\H,171,2.29443,169,141.311,167,11.3831,0\C,193,1.09376,171,152.639,169,-49.3636,0\H,194,1.09325,193,118.79,171,112.41,0\H,194,1.09356,193,112.712,171,-16.4393,0\S,194,1.80698,193,101.055,171,-133.38,0\O,197,1.49661,194,101.493,193,170.404,0\C,197,1.80724,194,94.1726,193,-81.9095,0\H,199,1.09251,197,115.732,194,177.822,0\H,199,1.09293,197,108.653,194,57.491,0\H,199,1.09354,197,107.37,194,-51.4958,0\H,196,2.12354,194,139.19,193,-126.94,0\C,203,1.0936,196,108.893,194,-175.812,0\H,204,1.09277,203,112.351,196,139.367,0\H,204,1.09281,203,109.796,196,6.22762,0\S,204,1.80723,203,102.984,196,-113.938,0\O,207,1.49704,204,111.136,203,-51.0493,0\C,207,1.80735,204,92.8729,203,55.5292,0\H,209,1.09216,207,110.182,204,-60.9408,0\H,209,1.09313,207,100.719,204,-171.807,0\H,209,1.09326,207,113.813,204,64.7328,0\H,195,2.30687,194,115.789,193,9.68415,0\C,213,1.09288,195,96.0903,194,-84.0855,0\H,214,1.09283,213,116.778,195,47.0785,0\H,214,1.09294,213,106.877,195,-87.2912,0\S,214,1.80738,213,109.852,195,157.147,0\O,217,1.49691,214,108.618,213,-158.387,0\C,217,1.80631,214,96.799,213,-49.0816,0\H,219,1.0925,217,109.235,214,-51.1857,0\H,219,1.09336,217,111.628,214,68.929,0\H,219,1.09396,217,110.306,214,179.775,0\H,190,2.42527,189,118.306,187,110.589,0\C,223,1.09302,190,157.987,189,37.6198,0\H,224,1.09289,223,106.779,190,104.378,0\H,224,1.09301,223,102.364,190,-13.5924,0\S,224,1.80719,223,109.281,190,-133.311,0\O,227,1.49707,224,102.246,223,-48.9457,0\C,227,1.80759,224,95.2481,223,50.0584,0\H,229,1.09275,227,118.909,224,-65.2183,0\H,229,1.09296,227,111.901,224,61.9369,0\H,229,1.09301,227,101.208,224,172.859,0\H,161,2.42909,159,155.708,154,-141.515,0\C,233,1.09321,161,144.166,159,-57.6133,0\H,234,1.09268,233,107.957,161,-123.498,0\H,234,1.09319,233,117.243,161,104.871,0\S,234,1.80663,233,101.084,161,-8.62893,0\O,237,1.49703,234,106.958,233,44.8895,0\C,237,1.80731,234,98.0554,233,-56.3747,0\H,239,1.09234,237,108.357,234,-95.8938,0\H,239,1.09295,237,104.735,234,146.889,0\H,239,1.093,237,114.92,234,29.713,0\H,236,2.06646,234,157.646,233,-153.294,0\C,243,1.09299,236,136.087,234,21.4194,0\H,244,1.09333,243,109.686,236,-53.3365,0\H,244,1.0935,243,108.408,236,-179.42,0\S,244,1.80701,243,104.297,236,58.3274,0\O,247,1.49732,244,103.72,243,-141.181,0\C,247,1.80633,244,93.6609,243,109.589,0\H,249,1.09265,247,99.8527,244,43.5794,0\H,249,1.09306,247,111.803,244,-71.4089,0\H,249,1.09381,247,118.983,244,157.536,0\O,252,2.40597,249,148.915,247,-140.281,0\S,253,1.49659,252,117.44,249,-79.9981,0\C,254,1.80678,253,98.7193,252,56.1246,0\H,255,1.09271,254,111.052,253,-46.2163,0\H,255,1.09291,254,109.268,253,75.9401,0\H,255,1.09363,254,109.344,253,-165.5,0\C,254,1.80686,253,105.626,252,-42.3397,0\H,259,1.09274,254,108.931,253,-70.5931,0\H,259,1.09292,254,113.513,253,58.751,0\H,259,1.09367,254,112.158,253,-174.381,0\H,258,2.29917,255,141.513,254,178.945,0\C,263,1.09338,258,122.113,255,-6.86152,0\H,264,1.09312,263,103.696,258,-40.0555,0\H,264,1.09322,263,108.147,258,79.5703,0\S,264,1.80654,263,116.042,258,-159.963,0\O,267,1.4963,264,101.32,263,-166.373,0\C,267,1.80726,264,97.6084,263,-64.3312,0\H,269,1.09249,267,118.779,264,-67.9849,0\H,269,1.09302,267,108.948,264,53.1424,0\H,269,1.09302,267,103.684,264,171.666,0\O,8,2.86215,7,149.739,1,-71.0739,0\S,273,1.49679,8,113.332,7,21.6892,0\C,274,1.80773,273,103.024,8,136.815,0\H,275,1.09249,274,110.946,273,-65.5155,0\H,275,1.09294,274,103.436,273,55.3809,0\H,275,1.09308,274,115.481,273,172.407,0\C,274,1.80788,273,109.107,8,-115.854,0\H,279,1.09218,274,112.018,273,72.6181,0\H,279,1.09282,274,106.151,273,-55.5373,0\H,279,1.09313,274,95.9254,273,179.343,0\\\@

 Total job time:  68.92s(wall), 232.04s(cpu) 
 Fri Mar 12 11:49:29 2021

        *************************************************************
        *                                                           *
        *  Thank you very much for using Q-Chem.  Have a nice day.  *
        *                                                           *
        *************************************************************


