                  Welcome to Q-Chem
     A Quantum Leap Into The Future Of Chemistry


 Q-Chem 5.2 (devel), Q-Chem, Inc., Pleasanton, CA (2019)

 Yihan Shao,  Zhengting Gan,  E. Epifanovsky,  A. T. B. Gilbert,  M. Wormit,  
 J. Kussmann,  A. W. Lange,  A. Behn,  Jia Deng,  Xintian Feng,  D. Ghosh,  
 M. Goldey,  P. R. Horn,  L. D. Jacobson,  I. Kaliman,  T. Kus,  A. Landau,  
 Jie Liu,  E. I. Proynov,  R. M. Richard,  R. P. Steele,  E. J. Sundstrom,  
 H. L. Woodcock III,  P. M. Zimmerman,  D. Zuev,  B. Alam,  B. Albrecht,  
 E. Alguire,  S. A. Baeppler,  D. Barton,  Z. Benda,  Y. A. Bernard,  
 E. J. Berquist,  K. B. Bravaya,  H. Burton,  K. Carter-Fenk,  D. Casanova,  
 Chun-Min Chang,  Yunqing Chen,  A. Chien,  K. D. Closser,  M. P. Coons,  
 S. Coriani,  S. Dasgupta,  A. L. Dempwolff,  M. Diedenhofen,  Hainam Do,  
 R. G. Edgar,  Po-Tung Fang,  S. Faraji,  S. Fatehi,  Qingguo Feng,  
 J. Fosso-Tande,  J. Gayvert,  Qinghui Ge,  A. Ghysels,  G. Gidofalvi,  
 J. Gomes,  J. Gonthier,  A. Gunina,  D. Hait,  M. W. D. Hanson-Heine,  
 P. H. P. Harbach,  A. W. Hauser,  M. F. Herbst,  J. E. Herr,  
 E. G. Hohenstein,  Z. C. Holden,  Kerwin Hui,  B. C. Huynh,  T.-C. Jagau,  
 Hyunjun Ji,  B. Kaduk,  K. Khistyaev,  Jaehoon Kim,  P. Klunzinger,  K. Koh,  
 D. Kosenkov,  L. Koulias,  T. Kowalczyk,  C. M. Krauter,  A. Kunitsa,  
 Ka Un Lao,  A. Laurent,  K. V. Lawler,  Joonho Lee,  D. Lefrancois,  
 S. Lehtola,  D. S. Levine,  Yi-Pei Li,  You-Sheng Lin,  Fenglai Liu,  
 Kuan-Yu Liu,  E. Livshits,  M. Loipersberger,  A. Luenser,  P. Manohar,  
 E. Mansoor,  S. F. Manzer,  Shan-Ping Mao,  Yuezhi Mao,  N. Mardirossian,  
 A. V. Marenich,  T. Markovich,  L. A. Martinez-Martinez,  S. A. Maurer,  
 N. J. Mayhall,  S. C. McKenzie,  J.-M. Mewes,  P. Morgante,  A. F. Morrison,  
 J. W. Mullinax,  K. Nanda,  T. S. Nguyen-Beck,  R. Olivares-Amaya,  
 J. A. Parkhill,  S. K. Paul,  F. Pavosevic,  Zheng Pei,  T. M. Perrine,  
 F. Plasser,  P. Pokhilko,  S. Prager,  A. Prociuk,  E. Ramos,  B. Rana,  
 D. R. Rehn,  F. Rob,  M. Scheurer,  M. Schneider,  N. Sergueev,  
 S. M. Sharada,  S. Sharma,  D. W. Small,  T. Stauch,  C. J. Stein,  
 T. Stein,  Yu-Chuan Su,  S. P. Veccham,  Zhen Tao,  A. J. W. Thom,  
 A. Tkatchenko,  T. Tsuchimochi,  N. M. Tubman,  L. Vogt,  M. L. Vidal,  
 O. Vydrov,  M. A. Watson,  J. Wenzel,  M. de Wergifosse,  T. A. Wesolowski,  
 A. White,  J. Witte,  A. Yamada,  Jun Yang,  K. Yao,  S. Yeganeh,  
 S. R. Yost,  Zhi-Qiang You,  A. Zech,  Igor Ying Zhang,  Xing Zhang,  
 Yan Zhao,  Ying Zhu,  B. R. Brooks,  G. K. L. Chan,  C. J. Cramer,  
 M. S. Gordon,  W. J. Hehre,  A. Klamt,  M. W. Schmidt,  C. D. Sherrill,  
 D. G. Truhlar,  A. Aspuru-Guzik,  R. Baer,  A. T. Bell,  N. A. Besley,  
 Jeng-Da Chai,  A. E. DePrince, III,  R. A. DiStasio Jr.,  A. Dreuw,  
 B. D. Dunietz,  T. R. Furlani,  Chao-Ping Hsu,  Yousung Jung,  Jing Kong,  
 D. S. Lambrecht,  WanZhen Liang,  C. Ochsenfeld,  V. A. Rassolov,  
 L. V. Slipchenko,  J. E. Subotnik,  T. Van Voorhis,  J. M. Herbert,  
 A. I. Krylov,  P. M. W. Gill,  M. Head-Gordon

 Contributors to earlier versions of Q-Chem not listed above: 
 R. D. Adamson,  B. Austin,  J. Baker,  G. J. O. Beran,  K. Brandhorst,  
 S. T. Brown,  E. F. C. Byrd,  A. K. Chakraborty,  C.-L. Cheng,  
 Siu Hung Chien,  D. M. Chipman,  D. L. Crittenden,  H. Dachsel,  
 R. J. Doerksen,  A. D. Dutoi,  L. Fusti-Molnar,  W. A. Goddard III,  
 A. Golubeva-Zadorozhnaya,  S. R. Gwaltney,  G. Hawkins,  A. Heyden,  
 S. Hirata,  G. Kedziora,  F. J. Keil,  C. Kelley,  Jihan Kim,  R. A. King,  
 R. Z. Khaliullin,  P. P. Korambath,  W. Kurlancheek,  A. M. Lee,  M. S. Lee,  
 S. V. Levchenko,  Ching Yeh Lin,  D. Liotard,  R. C. Lochan,  I. Lotan,  
 P. E. Maslen,  N. Nair,  D. P. O'Neill,  D. Neuhauser,  E. Neuscamman,  
 C. M. Oana,  R. Olson,  B. Peters,  R. Peverati,  P. A. Pieniazek,  
 Y. M. Rhee,  J. Ritchie,  M. A. Rohrdanz,  E. Rosta,  N. J. Russ,  
 H. F. Schaefer III,  N. E. Schultz,  N. Shenvi,  A. C. Simmonett,  A. Sodt,  
 D. Stuck,  K. S. Thanthiriwatte,  V. Vanovschi,  Tao Wang,  A. Warshel,  
 C. F. Williams,  Q. Wu,  X. Xu,  W. Zhang

 Please cite Q-Chem as follows:
 Y. Shao et al., Mol. Phys. 113, 184-215 (2015)
 DOI: 10.1080/00268976.2014.952696

 Q-Chem 5.2.2 for Intel X86 EM64T Linux

 Parts of Q-Chem use Armadillo 9.800.1 (Horizon Scraper).
 http://arma.sourceforge.net/

 Q-Chem begins on Thu Mar 11 13:37:48 2021  

Host: n0097.mhg0
0

     Scratch files written to /local/scratch/users/ymao/r7.00_frame_0068_almo_B3LYP_dp.in20210311133744//

Checking the input file for inconsistencies... 	...done.

--------------------------------------------------------------
User input:
--------------------------------------------------------------
$molecule
0 1
--
0 1
C    26.92200   25.60400   26.07500  
C    26.52600   26.20600   27.43300  
C    25.23300   27.03700   27.39900  
C    24.11900   26.43000   26.52900  
C    24.66800   25.98200   25.16400  
C    25.81000   24.95500   25.23400  
H    24.89300   27.35100   28.39300  
H    26.25000   25.32600   28.02600  
H    27.35900   26.38200   25.43700  
H    27.80700   24.96000   26.15200  
H    23.77000   25.58000   27.12700  
H    23.35700   27.19800   26.34700  
H    23.84700   25.55700   24.57400  
H    24.93000   26.82800   24.51700  
H    25.44300   24.03500   25.70400  
H    26.13000   24.55800   24.26300  
H    25.47100   27.99300   26.91700  
N    27.64900   26.92800   28.03000  
H    28.21500   27.50900   27.42300  
C    28.17800   26.62700   29.26700  
H    29.18000   27.03200   29.49700  
O    27.64400   25.84900   30.03800  
--
0 1
C    22.86600   29.50900   25.06900  
H    21.83600   29.82500   25.25100  
H    22.98800   28.62600   24.43700  
H    23.49300   29.31300   25.94300  
S    23.60800   30.78400   24.02400  
C    22.39200   30.42500   22.73600  
H    22.68500   31.08300   21.91400  
H    22.49600   29.38000   22.43300  
H    21.37400   30.62700   23.08000  
O    24.81400   30.10700   23.45100  
C    24.38700   26.41300   30.81300  
H    25.17900   25.78200   30.40300  
H    23.41700   26.19800   30.35700  
H    24.64500   27.46200   30.64400  
S    24.37700   26.29700   32.61600  
C    23.77700   24.59500   32.52800  
H    22.96600   24.56900   31.79500  
H    24.56300   23.96600   32.10500  
H    23.38200   24.31600   33.50800  
O    23.18300   27.10700   33.01400  
C    28.65000   29.89200   31.42100  
H    27.60000   29.78100   31.13700  
H    28.82600   30.94500   31.65100  
H    29.43200   29.49300   30.76900  
S    28.82000   29.21300   33.08700  
C    28.50300   27.48300   32.67200  
H    27.47200   27.46400   32.31000  
H    29.28800   27.12700   32.00000  
H    28.66800   27.02700   33.65200  
O    27.59300   29.72700   33.77300  
C    33.86700   26.11700   31.21700  
H    33.64400   25.04800   31.17900  
H    33.93800   26.49200   30.19300  
H    34.68000   26.40400   31.88900  
S    32.36900   26.96900   31.76200  
C    32.03300   26.04200   33.27700  
H    32.90600   26.05400   33.93500  
H    31.11500   26.47600   33.68100  
H    31.83400   25.05600   32.85000  
O    31.37900   26.58100   30.70900  
C    27.26700   18.14800   19.92000  
H    26.25600   17.93800   19.56300  
H    27.87100   18.75600   19.24100  
H    27.68500   17.14200   20.00700  
S    27.21900   19.00600   21.51000  
C    28.87200   18.54000   22.07300  
H    28.95000   17.45500   21.96300  
H    29.65900   19.03200   21.49600  
H    28.94500   18.76800   23.13900  
O    26.35100   18.19500   22.42200  
C    31.61600   28.86300   28.39600  
H    31.18200   29.82000   28.09800  
H    31.44400   28.10600   27.62500  
H    31.24800   28.53900   29.37300  
S    33.34600   29.35800   28.55600  
C    33.17800   30.55200   29.90200  
H    32.17000   30.93200   29.71800  
H    33.24300   29.97200   30.82600  
H    33.98900   31.28400   29.93900  
O    33.53400   30.24000   27.36100  
C    28.73100   20.85400   29.99900  
H    27.79300   20.41300   30.34600  
H    29.20800   21.40300   30.81500  
H    28.67600   21.45700   29.08900  
S    29.86700   19.50400   29.61200  
C    29.85800   18.61000   31.18300  
H    28.88200   18.14000   31.32800  
H    30.63300   17.83900   31.19300  
H    30.09600   19.40900   31.88900  
O    31.19500   20.18900   29.52200  
C    27.55700   24.56600   19.89700  
H    28.17200   25.06500   19.14300  
H    26.50800   24.78700   19.68100  
H    27.77200   24.97300   20.88800  
S    27.98400   22.81100   19.96400  
C    27.52200   22.53700   18.23900  
H    27.43400   21.45400   18.11700  
H    26.59500   23.08100   18.03600  
H    28.28400   22.87300   17.53100  
O    26.88800   22.22100   20.79500  
C    30.34600   33.16600   27.58200  
H    30.88700   33.68200   26.78400  
H    30.88100   32.29500   27.96900  
H    29.37300   32.84100   27.20500  
S    30.08500   34.31800   28.94900  
C    31.79600   34.25300   29.52400  
H    32.10300   33.20900   29.42200  
H    32.42000   34.91900   28.92300  
H    31.74400   34.54800   30.57500  
O    29.38900   33.36700   29.87100  
C    28.02900   23.10600   35.06000  
H    28.72600   23.66100   35.69200  
H    27.17400   23.69100   34.71100  
H    27.66300   22.31000   35.71400  
S    28.74300   22.41500   33.55100  
C    28.84700   23.91600   32.55000  
H    29.33900   23.68000   31.60300  
H    27.83400   24.28200   32.36100  
H    29.33300   24.73800   33.08200  
O    27.71000   21.56900   32.87500  
C    20.47300   21.85000   27.20000  
H    19.61200   21.18000   27.12800  
H    21.46100   21.44100   26.97400  
H    20.49100   22.30100   28.19500  
S    19.95300   23.20900   26.12800  
C    21.55500   23.93400   26.54200  
H    22.32300   23.26500   26.14600  
H    21.77800   24.90000   26.08200  
H    21.71300   24.01100   27.62100  
O    18.96100   24.07800   26.83500  
C    30.81700   25.66700   20.76600  
H    29.73300   25.66900   20.62100  
H    31.23400   26.67700   20.73200  
H    31.29000   25.03500   20.01100  
S    31.08400   25.11300   22.46400  
C    30.04000   26.33600   23.28900  
H    29.11300   26.42000   22.71600  
H    29.93900   26.18200   24.36600  
H    30.46200   27.33900   23.18000  
O    32.47100   25.63600   22.67200  
C    18.73100   29.02600   24.70900  
H    19.41900   29.84200   24.94500  
H    17.68900   29.29100   24.51100  
H    18.70000   28.42100   25.61900  
S    19.56400   28.24600   23.30800  
C    18.27000   27.03500   22.95600  
H    18.16600   26.38100   23.82500  
H    17.38700   27.63300   22.71700  
H    18.60900   26.41200   22.12400  
O    20.62700   27.42200   23.96600  
C    20.39700   29.28300   31.73800  
H    19.99700   30.29900   31.79400  
H    21.27600   29.13400   32.37000  
H    20.68500   28.98700   30.72600  
S    19.05200   28.27000   32.39200  
C    20.00800   26.77500   32.73400  
H    20.58300   26.54300   31.83400  
H    20.69900   26.92200   33.56800  
H    19.12100   26.16000   32.90100  
O    18.29000   27.89100   31.16000  
C    21.89400   33.02300   26.73200  
H    22.36400   33.21600   25.76500  
H    22.37300   33.66000   27.48000  
H    22.05800   31.95400   26.89300  
S    20.18400   33.60400   26.65800  
C    19.84300   33.05000   28.34400  
H    18.76000   32.90700   28.39000  
H    20.30100   32.06800   28.48600  
H    20.23200   33.68000   29.14800  
O    19.68000   32.63300   25.63600  
C    27.69800   29.63100   24.51700  
H    27.45800   30.49700   23.89500  
H    28.33700   28.82700   24.14500  
H    26.73700   29.21500   24.83200  
S    28.55100   30.13800   26.02800  
C    30.02100   30.71300   25.15000  
H    30.91900   30.64300   25.76900  
H    30.09500   30.09800   24.24900  
H    29.86100   31.77100   24.92500  
O    29.06100   28.78400   26.41200  
C    18.93100   23.95100   30.56100  
H    18.06100   23.39100   30.91500  
H    19.03900   24.95900   30.97000  
H    18.95200   24.11200   29.48000  
S    20.41100   23.06400   31.09600  
C    19.93100   21.32200   31.09400  
H    19.02900   21.04800   31.64700  
H    19.72600   21.05600   30.05400  
H    20.77600   20.66500   31.31600  
O    20.41000   23.26000   32.58000  
C    29.23500   29.40100   20.32400  
H    29.54600   29.20700   21.35400  
H    30.08600   29.13600   19.69200  
H    29.12900   30.48900   20.30700  
S    27.71300   28.45800   20.07900  
C    26.61900   29.64300   20.89400  
H    26.95000   29.64800   21.93500  
H    26.76200   30.60600   20.39500  
H    25.60000   29.27600   20.75300  
O    27.82200   27.37400   21.10600  
C    25.27700   33.52700   26.10300  
H    25.02000   34.11600   25.21900  
H    25.09200   32.48100   25.84500  
H    24.63800   33.76800   26.95600  
S    26.96700   33.83300   26.66400  
C    26.86400   35.62900   26.83400  
H    27.77900   36.09100   27.21200  
H    26.60300   36.01800   25.84600  
H    26.02500   35.76000   27.52200  
O    27.80400   33.50200   25.46900  
C    24.91200   30.51700   28.68600  
H    25.40400   30.92600   27.80000  
H    25.64300   29.77800   29.02300  
H    23.91100   30.08500   28.60300  
S    24.74100   31.88400   29.85600  
C    23.45300   31.06100   30.82000  
H    22.44600   31.11300   30.39700  
H    23.72800   30.07100   31.19300  
H    23.33500   31.54600   31.79300  
O    24.12100   32.91600   28.96700  
C    19.27000   22.66600   20.04400  
H    18.54300   21.88900   20.29300  
H    19.22200   22.93000   18.98500  
H    20.26800   22.41100   20.41100  
S    18.69500   24.15900   20.88500  
C    18.82400   23.56600   22.58700  
H    19.90200   23.49600   22.75300  
H    18.25500   24.19100   23.28000  
H    18.29100   22.61300   22.55800  
O    17.20300   24.03400   20.90100  
C    19.58700   28.68100   28.03200  
H    18.75300   28.07800   27.66500  
H    19.64400   28.86200   29.10900  
H    19.55000   29.63100   27.49400  
S    21.08900   27.75600   27.63900  
C    20.49100   26.43000   28.71000  
H    19.70300   25.87600   28.19500  
H    21.37600   25.81500   28.89500  
H    20.10800   26.75000   29.68300  
O    22.14500   28.50400   28.39100  
C    24.35200   20.77600   22.62500  
H    24.65200   21.80400   22.40400  
H    25.19700   20.29300   23.12300  
H    24.02400   20.15700   21.78600  
S    22.90700   20.68200   23.70600  
C    22.19900   22.21100   23.05300  
H    22.93300   22.99000   23.27400  
H    21.97400   22.02100   22.00000  
H    21.26900   22.33500   23.61500  
O    23.44800   21.10100   25.03700  
C    25.70300   22.84100   28.83900  
H    26.28400   23.61500   29.34600  
H    26.32100   21.94100   28.90000  
H    25.52900   23.05500   27.78100  
S    24.19000   22.61100   29.79800  
C    23.40200   21.21700   28.96200  
H    23.25300   21.47200   27.90900  
H    24.07900   20.37000   29.09800  
H    22.45100   21.00700   29.45900  
O    23.27400   23.75200   29.48500  
C    21.54000   26.99900   20.85400  
H    20.44900   26.95300   20.79800  
H    21.75400   27.95500   21.33900  
H    21.94100   26.89700   19.84300  
S    22.23300   25.63700   21.81800  
C    23.99800   25.95800   21.60200  
H    24.71000   25.16700   21.85100  
H    24.15300   26.15000   20.53700  
H    24.23400   26.90300   22.09800  
O    21.94000   24.46000   20.94100  
C    30.37300   20.78300   24.94700  
H    30.40000   19.92400   24.27200  
H    31.38700   21.15300   25.12000  
H    29.80700   20.76900   25.88200  
S    29.74800   22.23500   24.07100  
C    27.98800   21.82900   24.00200  
H    27.94600   20.74600   23.85600  
H    27.61800   22.12400   24.98700  
H    27.52900   22.46200   23.23900  
O    30.22500   22.03300   22.66700  
C    26.26000   26.95400   36.15500  
H    25.67300   26.04600   36.31700  
H    25.77500   27.86200   36.52200  
H    26.66700   27.01000   35.14200  
S    27.65100   26.56200   37.23800  
C    28.05300   28.30600   37.48500  
H    27.32100   28.65200   38.21900  
H    29.00900   28.20400   38.00600  
H    28.01200   28.89900   36.56800  
O    28.62600   26.07700   36.21000  
C    28.12400   17.73100   26.87400  
H    28.21600   17.22400   25.91000  
H    28.82000   18.57300   26.85900  
H    28.60900   17.06300   27.59000  
S    26.43100   18.29700   27.15800  
C    26.57200   19.76200   26.11000  
H    26.62800   19.33900   25.10400  
H    25.76900   20.49000   26.25400  
H    27.46000   20.32000   26.41800  
O    26.40000   18.92500   28.51600  
C    31.66400   32.53900   32.90100  
H    31.81500   32.28800   31.84800  
H    30.67500   32.24000   33.25900  
H    31.95600   33.57400   33.10000  
S    32.86100   31.49900   33.76800  
C    34.31500   32.10800   32.88500  
H    34.42300   33.17600   33.08700  
H    35.13500   31.48100   33.24600  
H    34.21000   31.89100   31.81900  
O    32.79200   30.06300   33.35300  
C    24.56800   20.01300   19.12500  
H    25.20000   20.05900   18.23400  
H    25.09800   20.45900   19.97100  
H    24.31200   18.96800   19.31700  
S    23.01300   20.84100   18.72400  
C    23.52900   22.57300   18.72300  
H    23.97300   22.80200   19.69500  
H    24.28400   22.77000   17.95700  
H    22.60800   23.15500   18.63800  
O    22.11300   20.51400   19.87500  
C    30.97700   23.86000   29.20200  
H    31.17600   23.02900   29.88300  
H    31.74100   24.63100   29.33200  
H    29.96900   24.22400   29.41500  
S    31.02100   23.08900   27.56800  
C    31.57900   24.63900   26.82600  
H    31.54200   24.25000   25.80500  
H    30.96200   25.50800   27.06900  
H    32.62400   24.79500   27.10300  
O    29.57400   22.97000   27.20400  
$end

$rem
JOBTYPE  SP
METHOD  B3LYP
BASIS  6-31+G(D)
SYMMETRY  FALSE
SYM_IGNORE  TRUE
MEM_TOTAL  16000
MEM_STATIC  8000
MAX_SUB_FILE_NUM  16000
BASIS_LIN_DEP_THRESH  6
THRESH  14
SCF_CONVERGENCE  8
GEN_SCFMAN  TRUE
SCF_GUESS  FRAGMO
FD_MAT_VEC_PROD  FALSE
XC_GRID  000075000302
NL_GRID  1
MAX_SCF_CYCLES  200
FRGM_METHOD  STOLL
SCFMI_MODE  1
$end

$development
almo_efield  1
$end

$rem_frgm
SCF_CONVERGENCE  4
$end

--------------------------------------------------------------
 ----------------------------------------------------------------
             Standard Nuclear Orientation (Angstroms)
    I     Atom           X                Y                Z
 ----------------------------------------------------------------
    1      C      26.9220000000    25.6040000000    26.0750000000
    2      C      26.5260000000    26.2060000000    27.4330000000
    3      C      25.2330000000    27.0370000000    27.3990000000
    4      C      24.1190000000    26.4300000000    26.5290000000
    5      C      24.6680000000    25.9820000000    25.1640000000
    6      C      25.8100000000    24.9550000000    25.2340000000
    7      H      24.8930000000    27.3510000000    28.3930000000
    8      H      26.2500000000    25.3260000000    28.0260000000
    9      H      27.3590000000    26.3820000000    25.4370000000
   10      H      27.8070000000    24.9600000000    26.1520000000
   11      H      23.7700000000    25.5800000000    27.1270000000
   12      H      23.3570000000    27.1980000000    26.3470000000
   13      H      23.8470000000    25.5570000000    24.5740000000
   14      H      24.9300000000    26.8280000000    24.5170000000
   15      H      25.4430000000    24.0350000000    25.7040000000
   16      H      26.1300000000    24.5580000000    24.2630000000
   17      H      25.4710000000    27.9930000000    26.9170000000
   18      N      27.6490000000    26.9280000000    28.0300000000
   19      H      28.2150000000    27.5090000000    27.4230000000
   20      C      28.1780000000    26.6270000000    29.2670000000
   21      H      29.1800000000    27.0320000000    29.4970000000
   22      O      27.6440000000    25.8490000000    30.0380000000
   23      C      22.8660000000    29.5090000000    25.0690000000
   24      H      21.8360000000    29.8250000000    25.2510000000
   25      H      22.9880000000    28.6260000000    24.4370000000
   26      H      23.4930000000    29.3130000000    25.9430000000
   27      S      23.6080000000    30.7840000000    24.0240000000
   28      C      22.3920000000    30.4250000000    22.7360000000
   29      H      22.6850000000    31.0830000000    21.9140000000
   30      H      22.4960000000    29.3800000000    22.4330000000
   31      H      21.3740000000    30.6270000000    23.0800000000
   32      O      24.8140000000    30.1070000000    23.4510000000
   33      C      24.3870000000    26.4130000000    30.8130000000
   34      H      25.1790000000    25.7820000000    30.4030000000
   35      H      23.4170000000    26.1980000000    30.3570000000
   36      H      24.6450000000    27.4620000000    30.6440000000
   37      S      24.3770000000    26.2970000000    32.6160000000
   38      C      23.7770000000    24.5950000000    32.5280000000
   39      H      22.9660000000    24.5690000000    31.7950000000
   40      H      24.5630000000    23.9660000000    32.1050000000
   41      H      23.3820000000    24.3160000000    33.5080000000
   42      O      23.1830000000    27.1070000000    33.0140000000
   43      C      28.6500000000    29.8920000000    31.4210000000
   44      H      27.6000000000    29.7810000000    31.1370000000
   45      H      28.8260000000    30.9450000000    31.6510000000
   46      H      29.4320000000    29.4930000000    30.7690000000
   47      S      28.8200000000    29.2130000000    33.0870000000
   48      C      28.5030000000    27.4830000000    32.6720000000
   49      H      27.4720000000    27.4640000000    32.3100000000
   50      H      29.2880000000    27.1270000000    32.0000000000
   51      H      28.6680000000    27.0270000000    33.6520000000
   52      O      27.5930000000    29.7270000000    33.7730000000
   53      C      33.8670000000    26.1170000000    31.2170000000
   54      H      33.6440000000    25.0480000000    31.1790000000
   55      H      33.9380000000    26.4920000000    30.1930000000
   56      H      34.6800000000    26.4040000000    31.8890000000
   57      S      32.3690000000    26.9690000000    31.7620000000
   58      C      32.0330000000    26.0420000000    33.2770000000
   59      H      32.9060000000    26.0540000000    33.9350000000
   60      H      31.1150000000    26.4760000000    33.6810000000
   61      H      31.8340000000    25.0560000000    32.8500000000
   62      O      31.3790000000    26.5810000000    30.7090000000
   63      C      27.2670000000    18.1480000000    19.9200000000
   64      H      26.2560000000    17.9380000000    19.5630000000
   65      H      27.8710000000    18.7560000000    19.2410000000
   66      H      27.6850000000    17.1420000000    20.0070000000
   67      S      27.2190000000    19.0060000000    21.5100000000
   68      C      28.8720000000    18.5400000000    22.0730000000
   69      H      28.9500000000    17.4550000000    21.9630000000
   70      H      29.6590000000    19.0320000000    21.4960000000
   71      H      28.9450000000    18.7680000000    23.1390000000
   72      O      26.3510000000    18.1950000000    22.4220000000
   73      C      31.6160000000    28.8630000000    28.3960000000
   74      H      31.1820000000    29.8200000000    28.0980000000
   75      H      31.4440000000    28.1060000000    27.6250000000
   76      H      31.2480000000    28.5390000000    29.3730000000
   77      S      33.3460000000    29.3580000000    28.5560000000
   78      C      33.1780000000    30.5520000000    29.9020000000
   79      H      32.1700000000    30.9320000000    29.7180000000
   80      H      33.2430000000    29.9720000000    30.8260000000
   81      H      33.9890000000    31.2840000000    29.9390000000
   82      O      33.5340000000    30.2400000000    27.3610000000
   83      C      28.7310000000    20.8540000000    29.9990000000
   84      H      27.7930000000    20.4130000000    30.3460000000
   85      H      29.2080000000    21.4030000000    30.8150000000
   86      H      28.6760000000    21.4570000000    29.0890000000
   87      S      29.8670000000    19.5040000000    29.6120000000
   88      C      29.8580000000    18.6100000000    31.1830000000
   89      H      28.8820000000    18.1400000000    31.3280000000
   90      H      30.6330000000    17.8390000000    31.1930000000
   91      H      30.0960000000    19.4090000000    31.8890000000
   92      O      31.1950000000    20.1890000000    29.5220000000
   93      C      27.5570000000    24.5660000000    19.8970000000
   94      H      28.1720000000    25.0650000000    19.1430000000
   95      H      26.5080000000    24.7870000000    19.6810000000
   96      H      27.7720000000    24.9730000000    20.8880000000
   97      S      27.9840000000    22.8110000000    19.9640000000
   98      C      27.5220000000    22.5370000000    18.2390000000
   99      H      27.4340000000    21.4540000000    18.1170000000
  100      H      26.5950000000    23.0810000000    18.0360000000
  101      H      28.2840000000    22.8730000000    17.5310000000
  102      O      26.8880000000    22.2210000000    20.7950000000
  103      C      30.3460000000    33.1660000000    27.5820000000
  104      H      30.8870000000    33.6820000000    26.7840000000
  105      H      30.8810000000    32.2950000000    27.9690000000
  106      H      29.3730000000    32.8410000000    27.2050000000
  107      S      30.0850000000    34.3180000000    28.9490000000
  108      C      31.7960000000    34.2530000000    29.5240000000
  109      H      32.1030000000    33.2090000000    29.4220000000
  110      H      32.4200000000    34.9190000000    28.9230000000
  111      H      31.7440000000    34.5480000000    30.5750000000
  112      O      29.3890000000    33.3670000000    29.8710000000
  113      C      28.0290000000    23.1060000000    35.0600000000
  114      H      28.7260000000    23.6610000000    35.6920000000
  115      H      27.1740000000    23.6910000000    34.7110000000
  116      H      27.6630000000    22.3100000000    35.7140000000
  117      S      28.7430000000    22.4150000000    33.5510000000
  118      C      28.8470000000    23.9160000000    32.5500000000
  119      H      29.3390000000    23.6800000000    31.6030000000
  120      H      27.8340000000    24.2820000000    32.3610000000
  121      H      29.3330000000    24.7380000000    33.0820000000
  122      O      27.7100000000    21.5690000000    32.8750000000
  123      C      20.4730000000    21.8500000000    27.2000000000
  124      H      19.6120000000    21.1800000000    27.1280000000
  125      H      21.4610000000    21.4410000000    26.9740000000
  126      H      20.4910000000    22.3010000000    28.1950000000
  127      S      19.9530000000    23.2090000000    26.1280000000
  128      C      21.5550000000    23.9340000000    26.5420000000
  129      H      22.3230000000    23.2650000000    26.1460000000
  130      H      21.7780000000    24.9000000000    26.0820000000
  131      H      21.7130000000    24.0110000000    27.6210000000
  132      O      18.9610000000    24.0780000000    26.8350000000
  133      C      30.8170000000    25.6670000000    20.7660000000
  134      H      29.7330000000    25.6690000000    20.6210000000
  135      H      31.2340000000    26.6770000000    20.7320000000
  136      H      31.2900000000    25.0350000000    20.0110000000
  137      S      31.0840000000    25.1130000000    22.4640000000
  138      C      30.0400000000    26.3360000000    23.2890000000
  139      H      29.1130000000    26.4200000000    22.7160000000
  140      H      29.9390000000    26.1820000000    24.3660000000
  141      H      30.4620000000    27.3390000000    23.1800000000
  142      O      32.4710000000    25.6360000000    22.6720000000
  143      C      18.7310000000    29.0260000000    24.7090000000
  144      H      19.4190000000    29.8420000000    24.9450000000
  145      H      17.6890000000    29.2910000000    24.5110000000
  146      H      18.7000000000    28.4210000000    25.6190000000
  147      S      19.5640000000    28.2460000000    23.3080000000
  148      C      18.2700000000    27.0350000000    22.9560000000
  149      H      18.1660000000    26.3810000000    23.8250000000
  150      H      17.3870000000    27.6330000000    22.7170000000
  151      H      18.6090000000    26.4120000000    22.1240000000
  152      O      20.6270000000    27.4220000000    23.9660000000
  153      C      20.3970000000    29.2830000000    31.7380000000
  154      H      19.9970000000    30.2990000000    31.7940000000
  155      H      21.2760000000    29.1340000000    32.3700000000
  156      H      20.6850000000    28.9870000000    30.7260000000
  157      S      19.0520000000    28.2700000000    32.3920000000
  158      C      20.0080000000    26.7750000000    32.7340000000
  159      H      20.5830000000    26.5430000000    31.8340000000
  160      H      20.6990000000    26.9220000000    33.5680000000
  161      H      19.1210000000    26.1600000000    32.9010000000
  162      O      18.2900000000    27.8910000000    31.1600000000
  163      C      21.8940000000    33.0230000000    26.7320000000
  164      H      22.3640000000    33.2160000000    25.7650000000
  165      H      22.3730000000    33.6600000000    27.4800000000
  166      H      22.0580000000    31.9540000000    26.8930000000
  167      S      20.1840000000    33.6040000000    26.6580000000
  168      C      19.8430000000    33.0500000000    28.3440000000
  169      H      18.7600000000    32.9070000000    28.3900000000
  170      H      20.3010000000    32.0680000000    28.4860000000
  171      H      20.2320000000    33.6800000000    29.1480000000
  172      O      19.6800000000    32.6330000000    25.6360000000
  173      C      27.6980000000    29.6310000000    24.5170000000
  174      H      27.4580000000    30.4970000000    23.8950000000
  175      H      28.3370000000    28.8270000000    24.1450000000
  176      H      26.7370000000    29.2150000000    24.8320000000
  177      S      28.5510000000    30.1380000000    26.0280000000
  178      C      30.0210000000    30.7130000000    25.1500000000
  179      H      30.9190000000    30.6430000000    25.7690000000
  180      H      30.0950000000    30.0980000000    24.2490000000
  181      H      29.8610000000    31.7710000000    24.9250000000
  182      O      29.0610000000    28.7840000000    26.4120000000
  183      C      18.9310000000    23.9510000000    30.5610000000
  184      H      18.0610000000    23.3910000000    30.9150000000
  185      H      19.0390000000    24.9590000000    30.9700000000
  186      H      18.9520000000    24.1120000000    29.4800000000
  187      S      20.4110000000    23.0640000000    31.0960000000
  188      C      19.9310000000    21.3220000000    31.0940000000
  189      H      19.0290000000    21.0480000000    31.6470000000
  190      H      19.7260000000    21.0560000000    30.0540000000
  191      H      20.7760000000    20.6650000000    31.3160000000
  192      O      20.4100000000    23.2600000000    32.5800000000
  193      C      29.2350000000    29.4010000000    20.3240000000
  194      H      29.5460000000    29.2070000000    21.3540000000
  195      H      30.0860000000    29.1360000000    19.6920000000
  196      H      29.1290000000    30.4890000000    20.3070000000
  197      S      27.7130000000    28.4580000000    20.0790000000
  198      C      26.6190000000    29.6430000000    20.8940000000
  199      H      26.9500000000    29.6480000000    21.9350000000
  200      H      26.7620000000    30.6060000000    20.3950000000
  201      H      25.6000000000    29.2760000000    20.7530000000
  202      O      27.8220000000    27.3740000000    21.1060000000
  203      C      25.2770000000    33.5270000000    26.1030000000
  204      H      25.0200000000    34.1160000000    25.2190000000
  205      H      25.0920000000    32.4810000000    25.8450000000
  206      H      24.6380000000    33.7680000000    26.9560000000
  207      S      26.9670000000    33.8330000000    26.6640000000
  208      C      26.8640000000    35.6290000000    26.8340000000
  209      H      27.7790000000    36.0910000000    27.2120000000
  210      H      26.6030000000    36.0180000000    25.8460000000
  211      H      26.0250000000    35.7600000000    27.5220000000
  212      O      27.8040000000    33.5020000000    25.4690000000
  213      C      24.9120000000    30.5170000000    28.6860000000
  214      H      25.4040000000    30.9260000000    27.8000000000
  215      H      25.6430000000    29.7780000000    29.0230000000
  216      H      23.9110000000    30.0850000000    28.6030000000
  217      S      24.7410000000    31.8840000000    29.8560000000
  218      C      23.4530000000    31.0610000000    30.8200000000
  219      H      22.4460000000    31.1130000000    30.3970000000
  220      H      23.7280000000    30.0710000000    31.1930000000
  221      H      23.3350000000    31.5460000000    31.7930000000
  222      O      24.1210000000    32.9160000000    28.9670000000
  223      C      19.2700000000    22.6660000000    20.0440000000
  224      H      18.5430000000    21.8890000000    20.2930000000
  225      H      19.2220000000    22.9300000000    18.9850000000
  226      H      20.2680000000    22.4110000000    20.4110000000
  227      S      18.6950000000    24.1590000000    20.8850000000
  228      C      18.8240000000    23.5660000000    22.5870000000
  229      H      19.9020000000    23.4960000000    22.7530000000
  230      H      18.2550000000    24.1910000000    23.2800000000
  231      H      18.2910000000    22.6130000000    22.5580000000
  232      O      17.2030000000    24.0340000000    20.9010000000
  233      C      19.5870000000    28.6810000000    28.0320000000
  234      H      18.7530000000    28.0780000000    27.6650000000
  235      H      19.6440000000    28.8620000000    29.1090000000
  236      H      19.5500000000    29.6310000000    27.4940000000
  237      S      21.0890000000    27.7560000000    27.6390000000
  238      C      20.4910000000    26.4300000000    28.7100000000
  239      H      19.7030000000    25.8760000000    28.1950000000
  240      H      21.3760000000    25.8150000000    28.8950000000
  241      H      20.1080000000    26.7500000000    29.6830000000
  242      O      22.1450000000    28.5040000000    28.3910000000
  243      C      24.3520000000    20.7760000000    22.6250000000
  244      H      24.6520000000    21.8040000000    22.4040000000
  245      H      25.1970000000    20.2930000000    23.1230000000
  246      H      24.0240000000    20.1570000000    21.7860000000
  247      S      22.9070000000    20.6820000000    23.7060000000
  248      C      22.1990000000    22.2110000000    23.0530000000
  249      H      22.9330000000    22.9900000000    23.2740000000
  250      H      21.9740000000    22.0210000000    22.0000000000
  251      H      21.2690000000    22.3350000000    23.6150000000
  252      O      23.4480000000    21.1010000000    25.0370000000
  253      C      25.7030000000    22.8410000000    28.8390000000
  254      H      26.2840000000    23.6150000000    29.3460000000
  255      H      26.3210000000    21.9410000000    28.9000000000
  256      H      25.5290000000    23.0550000000    27.7810000000
  257      S      24.1900000000    22.6110000000    29.7980000000
  258      C      23.4020000000    21.2170000000    28.9620000000
  259      H      23.2530000000    21.4720000000    27.9090000000
  260      H      24.0790000000    20.3700000000    29.0980000000
  261      H      22.4510000000    21.0070000000    29.4590000000
  262      O      23.2740000000    23.7520000000    29.4850000000
  263      C      21.5400000000    26.9990000000    20.8540000000
  264      H      20.4490000000    26.9530000000    20.7980000000
  265      H      21.7540000000    27.9550000000    21.3390000000
  266      H      21.9410000000    26.8970000000    19.8430000000
  267      S      22.2330000000    25.6370000000    21.8180000000
  268      C      23.9980000000    25.9580000000    21.6020000000
  269      H      24.7100000000    25.1670000000    21.8510000000
  270      H      24.1530000000    26.1500000000    20.5370000000
  271      H      24.2340000000    26.9030000000    22.0980000000
  272      O      21.9400000000    24.4600000000    20.9410000000
  273      C      30.3730000000    20.7830000000    24.9470000000
  274      H      30.4000000000    19.9240000000    24.2720000000
  275      H      31.3870000000    21.1530000000    25.1200000000
  276      H      29.8070000000    20.7690000000    25.8820000000
  277      S      29.7480000000    22.2350000000    24.0710000000
  278      C      27.9880000000    21.8290000000    24.0020000000
  279      H      27.9460000000    20.7460000000    23.8560000000
  280      H      27.6180000000    22.1240000000    24.9870000000
  281      H      27.5290000000    22.4620000000    23.2390000000
  282      O      30.2250000000    22.0330000000    22.6670000000
  283      C      26.2600000000    26.9540000000    36.1550000000
  284      H      25.6730000000    26.0460000000    36.3170000000
  285      H      25.7750000000    27.8620000000    36.5220000000
  286      H      26.6670000000    27.0100000000    35.1420000000
  287      S      27.6510000000    26.5620000000    37.2380000000
  288      C      28.0530000000    28.3060000000    37.4850000000
  289      H      27.3210000000    28.6520000000    38.2190000000
  290      H      29.0090000000    28.2040000000    38.0060000000
  291      H      28.0120000000    28.8990000000    36.5680000000
  292      O      28.6260000000    26.0770000000    36.2100000000
  293      C      28.1240000000    17.7310000000    26.8740000000
  294      H      28.2160000000    17.2240000000    25.9100000000
  295      H      28.8200000000    18.5730000000    26.8590000000
  296      H      28.6090000000    17.0630000000    27.5900000000
  297      S      26.4310000000    18.2970000000    27.1580000000
  298      C      26.5720000000    19.7620000000    26.1100000000
  299      H      26.6280000000    19.3390000000    25.1040000000
  300      H      25.7690000000    20.4900000000    26.2540000000
  301      H      27.4600000000    20.3200000000    26.4180000000
  302      O      26.4000000000    18.9250000000    28.5160000000
  303      C      31.6640000000    32.5390000000    32.9010000000
  304      H      31.8150000000    32.2880000000    31.8480000000
  305      H      30.6750000000    32.2400000000    33.2590000000
  306      H      31.9560000000    33.5740000000    33.1000000000
  307      S      32.8610000000    31.4990000000    33.7680000000
  308      C      34.3150000000    32.1080000000    32.8850000000
  309      H      34.4230000000    33.1760000000    33.0870000000
  310      H      35.1350000000    31.4810000000    33.2460000000
  311      H      34.2100000000    31.8910000000    31.8190000000
  312      O      32.7920000000    30.0630000000    33.3530000000
  313      C      24.5680000000    20.0130000000    19.1250000000
  314      H      25.2000000000    20.0590000000    18.2340000000
  315      H      25.0980000000    20.4590000000    19.9710000000
  316      H      24.3120000000    18.9680000000    19.3170000000
  317      S      23.0130000000    20.8410000000    18.7240000000
  318      C      23.5290000000    22.5730000000    18.7230000000
  319      H      23.9730000000    22.8020000000    19.6950000000
  320      H      24.2840000000    22.7700000000    17.9570000000
  321      H      22.6080000000    23.1550000000    18.6380000000
  322      O      22.1130000000    20.5140000000    19.8750000000
  323      C      30.9770000000    23.8600000000    29.2020000000
  324      H      31.1760000000    23.0290000000    29.8830000000
  325      H      31.7410000000    24.6310000000    29.3320000000
  326      H      29.9690000000    24.2240000000    29.4150000000
  327      S      31.0210000000    23.0890000000    27.5680000000
  328      C      31.5790000000    24.6390000000    26.8260000000
  329      H      31.5420000000    24.2500000000    25.8050000000
  330      H      30.9620000000    25.5080000000    27.0690000000
  331      H      32.6240000000    24.7950000000    27.1030000000
  332      O      29.5740000000    22.9700000000    27.2040000000
 ----------------------------------------------------------------
 Nuclear Repulsion Energy =       60304.70311710 hartrees
 There are      686 alpha and      686 beta electrons
 Requested basis set is 6-31+G(d)
 There are 1094 shells and 3049 basis functions

 Total QAlloc Memory Limit  16000 MB
 Mega-Array Size      7821 MB
 MEM_STATIC part      8000 MB
 A cutoff of  1.0D-14 yielded 216829 shell pairs
 There are   1885955 function pairs
 Smallest overlap matrix eigenvalue = 3.49E-07
 Linear dependence detected in AO basis
 Tighter screening thresholds may be required for diffuse basis sets
 Use S2THRESH > 14 and THRESH = 14 in case of SCF convergence issues
 Number of orthogonalized atomic orbitals = 3046
 Maximum deviation from orthogonality = 2.201E-10

 Scale SEOQF with 1.000000e-03/1.000000e-03/1.000000e-03

 Standard Electronic Orientation quadrupole field applied
 Nucleus-field energy     =    -0.0000000833 hartrees
Attempting to make child job directory: /local/scratch/users/ymao/r7.00_frame_0068_almo_B3LYP_dp.in20210311133744//Frg1/
Attempting to make child job directory: /local/scratch/users/ymao/r7.00_frame_0068_almo_B3LYP_dp.in20210311133744//Frg2/
Creating input file /local/scratch/users/ymao/r7.00_frame_0068_almo_B3LYP_dp.in20210311133744/Frg1.input
using default PutDataFrgm: nothing
calling putenv with: QCSCRATCH=/local/scratch/users/ymao/r7.00_frame_0068_almo_B3LYP_dp.in20210311133744/ 
Spawning Job For Fragment 0
Done Job For Fragment 0
calling putenv with: QCSCRATCH=/local/scratch/users/ymao 
calling putenv with: QCTHREADS=8 
Creating input file /local/scratch/users/ymao/r7.00_frame_0068_almo_B3LYP_dp.in20210311133744/Frg2.input
using default PutDataFrgm: nothing
calling putenv with: QCSCRATCH=/local/scratch/users/ymao/r7.00_frame_0068_almo_B3LYP_dp.in20210311133744/ 
Spawning Job For Fragment 1
Done Job For Fragment 1
calling putenv with: QCSCRATCH=/local/scratch/users/ymao 
calling putenv with: QCTHREADS=8 
 Time for running child jobs:  CPU 1.12 s  wall 27244.28 s

 -----------------------------------------------------------------------
  General SCF calculation program by
  Eric Jon Sundstrom, Paul Horn, Yuezhi Mao, Dmitri Zuev, Alec White,
  David Stuck, Shaama M.S., Shane Yost, Joonho Lee, David Small,
  Daniel Levine, Susi Lehtola, Hugh Burton, Evgeny Epifanovsky,
  Bang C. Huynh
 -----------------------------------------------------------------------
Performing Restricted Closed Shell SCFMI
Doing General SCFMI
 Exchange:     0.2000 Hartree-Fock + 0.0800 Slater + 0.7200 B88
 Correlation:  0.1900 VWN1RPA + 0.8100 LYP
 Using Euler-Maclaurin-Lebedev (75,302) quadrature formula
performing fock build before subrot guess so that all methods have access
Printing subrot_rss_gen Method Specification:
Occupied Subspace Method is 0
Virtual Subspace Method is 0
Energy prior to optimization (guess energy) = -17553.464026394518
Begin Timing: Total SCF Calculation
begin iterations for algorithm: DIIS         
the SCF tolerance is set to 1.00e-08
    1  -17553.4640263945      5.31e-05     00000 
    2  -17553.4553445425      8.65e-05     00000 
    3  -17553.4796329075      1.73e-05     00000 
    4  -17553.4805879607      6.72e-06     00000 
    5  -17553.4807628388      3.40e-06     00000 
    6  -17553.4808013165      1.74e-06     00000 
    7  -17553.4808112912      1.11e-06     00000 
    8  -17553.4808161588      5.80e-07     00000 
    9  -17553.4808172869      3.88e-07     00000 
   10  -17553.4808176328      2.99e-07     00000 
   11  -17553.4808178862      1.84e-07     00000 
   12  -17553.4808179911      1.09e-07     00000 
   13  -17553.4808180291      6.08e-08     00000 
   14  -17553.4808180393      4.27e-08     00000 
   15  -17553.4808180447      2.88e-08     00000 
   16  -17553.4808180476      1.33e-08     00000 
   17  -17553.4808180484      7.57e-09     00000 Convergence criterion met
write pseudocanon occs and virts to disk
write pseudocanon orbital energies to disk
Timing for Total SCF: 73379.00s (wall), 581878.68s (cpu)
SCFMI Energy  -17553.4808180484
<S^2>            0.00000
 Total energy in the final basis set =   -17553.4808180484
    ==================================================
        The end of Object-Oriented SCFman: SCFMI      
    ==================================================
 
 --------------------------------------------------------------
 
                    Orbital Energies (a.u.)
 --------------------------------------------------------------
 
 Alpha MOs
 -- Occupied --
-89.0206 -89.0130 -89.0121 -89.0093 -89.0093 -89.0082 -89.0060 -89.0054
-89.0052 -89.0018 -89.0012 -89.0008 -88.9990 -88.9980 -88.9943 -88.9920
-88.9917 -88.9898 -88.9879 -88.9838 -88.9834 -88.9807 -88.9796 -88.9794
-88.9783 -88.9778 -88.9776 -88.9760 -88.9756 -88.9732 -88.9689 -19.1352
-19.1312 -19.1306 -19.1297 -19.1295 -19.1234 -19.1232 -19.1230 -19.1214
-19.1214 -19.1188 -19.1178 -19.1170 -19.1154 -19.1151 -19.1116 -19.1102
-19.1101 -19.1088 -19.1056 -19.1035 -19.1024 -19.1001 -19.0998 -19.0995
-19.0956 -19.0931 -19.0926 -19.0905 -19.0841 -19.0825 -19.0821 -14.3444
-10.2766 -10.2370 -10.2340 -10.2328 -10.2324 -10.2321 -10.2316 -10.2311
-10.2299 -10.2295 -10.2287 -10.2277 -10.2274 -10.2270 -10.2238 -10.2221
-10.2216 -10.2212 -10.2210 -10.2210 -10.2205 -10.2200 -10.2185 -10.2171
-10.2166 -10.2152 -10.2113 -10.2101 -10.2096 -10.2092 -10.2085 -10.2084
-10.2066 -10.2060 -10.2053 -10.2049 -10.2048 -10.2031 -10.2029 -10.2025
-10.2017 -10.2010 -10.2010 -10.2007 -10.2002 -10.1977 -10.1976 -10.1976
-10.1973 -10.1970 -10.1969 -10.1968 -10.1961 -10.1954 -10.1935 -10.1914
-10.1899 -10.1899 -10.1890 -10.1888 -10.1864 -10.1828 -10.1817 -10.1814
-10.1785 -10.1770 -10.1735 -10.1729 -10.1695  -8.0668  -8.0583  -8.0583
 -8.0558  -8.0556  -8.0532  -8.0527  -8.0516  -8.0510  -8.0486  -8.0473
 -8.0467  -8.0452  -8.0433  -8.0406  -8.0395  -8.0371  -8.0354  -8.0337
 -8.0301  -8.0290  -8.0268  -8.0258  -8.0257  -8.0248  -8.0242  -8.0238
 -8.0233  -8.0215  -8.0191  -8.0155  -6.0312  -6.0298  -6.0243  -6.0227
 -6.0227  -6.0215  -6.0211  -6.0199  -6.0199  -6.0188  -6.0187  -6.0178
 -6.0170  -6.0165  -6.0161  -6.0159  -6.0158  -6.0157  -6.0157  -6.0146
 -6.0141  -6.0135  -6.0132  -6.0131  -6.0117  -6.0117  -6.0111  -6.0102
 -6.0100  -6.0099  -6.0098  -6.0096  -6.0091  -6.0085  -6.0081  -6.0078
 -6.0063  -6.0055  -6.0051  -6.0050  -6.0038  -6.0037  -6.0036  -6.0023
 -6.0021  -6.0017  -6.0007  -6.0002  -5.9998  -5.9983  -5.9982  -5.9980
 -5.9971  -5.9965  -5.9945  -5.9944  -5.9936  -5.9932  -5.9930  -5.9923
 -5.9913  -5.9913  -5.9901  -5.9901  -5.9896  -5.9889  -5.9889  -5.9889
 -5.9885  -5.9881  -5.9878  -5.9876  -5.9875  -5.9875  -5.9870  -5.9863
 -5.9861  -5.9858  -5.9847  -5.9843  -5.9835  -5.9832  -5.9829  -5.9825
 -5.9819  -5.9813  -5.9810  -5.9806  -5.9800  -5.9787  -5.9786  -5.9768
 -5.9727  -1.0468  -1.0412  -1.0394  -1.0392  -1.0352  -1.0348  -1.0331
 -1.0322  -1.0319  -1.0312  -1.0303  -1.0300  -1.0266  -1.0264  -1.0256
 -1.0213  -1.0199  -1.0192  -1.0173  -1.0167  -1.0124  -1.0110  -1.0104
 -1.0102  -1.0063  -1.0055  -1.0041  -1.0011  -1.0009  -0.9981  -0.9976
 -0.9968  -0.9079  -0.8194  -0.8191  -0.8172  -0.8167  -0.8155  -0.8131
 -0.8099  -0.8094  -0.8086  -0.8075  -0.8063  -0.8058  -0.8040  -0.7997
 -0.7994  -0.7981  -0.7967  -0.7951  -0.7940  -0.7908  -0.7896  -0.7864
 -0.7856  -0.7847  -0.7828  -0.7813  -0.7791  -0.7774  -0.7745  -0.7740
 -0.7739  -0.7736  -0.7445  -0.7433  -0.7432  -0.7418  -0.7404  -0.7392
 -0.7388  -0.7364  -0.7349  -0.7348  -0.7334  -0.7328  -0.7306  -0.7285
 -0.7259  -0.7207  -0.7204  -0.7203  -0.7193  -0.7181  -0.7160  -0.7156
 -0.7137  -0.7110  -0.7099  -0.7097  -0.7092  -0.7069  -0.7059  -0.7052
 -0.7027  -0.6996  -0.6900  -0.6340  -0.6287  -0.6266  -0.6255  -0.6240
 -0.6235  -0.6209  -0.6193  -0.6187  -0.6185  -0.6157  -0.6140  -0.6136
 -0.6127  -0.6117  -0.6093  -0.6085  -0.6062  -0.6057  -0.6013  -0.6010
 -0.5949  -0.5933  -0.5933  -0.5929  -0.5922  -0.5916  -0.5888  -0.5866
 -0.5864  -0.5859  -0.5814  -0.5793  -0.5747  -0.5579  -0.5199  -0.5006
 -0.4994  -0.4982  -0.4976  -0.4964  -0.4947  -0.4921  -0.4914  -0.4893
 -0.4882  -0.4880  -0.4867  -0.4859  -0.4848  -0.4843  -0.4841  -0.4828
 -0.4824  -0.4818  -0.4811  -0.4808  -0.4803  -0.4796  -0.4792  -0.4790
 -0.4787  -0.4780  -0.4773  -0.4771  -0.4762  -0.4756  -0.4754  -0.4746
 -0.4737  -0.4736  -0.4722  -0.4720  -0.4717  -0.4706  -0.4697  -0.4695
 -0.4682  -0.4678  -0.4675  -0.4671  -0.4667  -0.4654  -0.4653  -0.4648
 -0.4628  -0.4622  -0.4619  -0.4615  -0.4613  -0.4610  -0.4605  -0.4603
 -0.4601  -0.4595  -0.4586  -0.4578  -0.4573  -0.4569  -0.4567  -0.4562
 -0.4554  -0.4547  -0.4543  -0.4539  -0.4534  -0.4527  -0.4526  -0.4525
 -0.4512  -0.4508  -0.4503  -0.4493  -0.4488  -0.4483  -0.4481  -0.4470
 -0.4467  -0.4462  -0.4449  -0.4437  -0.4427  -0.4425  -0.4421  -0.4417
 -0.4415  -0.4403  -0.4398  -0.4397  -0.4395  -0.4392  -0.4382  -0.4373
 -0.4368  -0.4362  -0.4357  -0.4354  -0.4338  -0.4333  -0.4331  -0.4328
 -0.4317  -0.4306  -0.4301  -0.4294  -0.4292  -0.4287  -0.4281  -0.4279
 -0.4274  -0.4256  -0.4253  -0.4246  -0.4238  -0.4228  -0.4221  -0.4218
 -0.4214  -0.4210  -0.4201  -0.4195  -0.4183  -0.4173  -0.4169  -0.4163
 -0.4161  -0.4154  -0.4150  -0.4145  -0.4144  -0.4136  -0.4132  -0.4120
 -0.4110  -0.4105  -0.4101  -0.4097  -0.4093  -0.4082  -0.4075  -0.4073
 -0.4067  -0.4066  -0.4057  -0.4046  -0.4038  -0.4036  -0.4020  -0.4010
 -0.4005  -0.3998  -0.3994  -0.3991  -0.3980  -0.3977  -0.3972  -0.3961
 -0.3955  -0.3948  -0.3941  -0.3935  -0.3931  -0.3921  -0.3907  -0.3899
 -0.3893  -0.3888  -0.3887  -0.3877  -0.3874  -0.3858  -0.3847  -0.3846
 -0.3838  -0.3830  -0.3825  -0.3820  -0.3808  -0.3801  -0.3789  -0.3786
 -0.3783  -0.3777  -0.3774  -0.3768  -0.3765  -0.3755  -0.3738  -0.3735
 -0.3720  -0.3714  -0.3704  -0.3696  -0.3687  -0.3681  -0.3674  -0.3671
 -0.3661  -0.3656  -0.3642  -0.3628  -0.3612  -0.3599  -0.3597  -0.3581
 -0.3557  -0.3550  -0.3539  -0.3539  -0.3526  -0.3523  -0.3513  -0.3501
 -0.3498  -0.3487  -0.3434  -0.3432  -0.3409  -0.3389  -0.3384  -0.3361
 -0.3334  -0.3288  -0.3281  -0.3110  -0.3041  -0.2978  -0.2956  -0.2936
 -0.2935  -0.2903  -0.2881  -0.2876  -0.2862  -0.2844  -0.2823  -0.2809
 -0.2808  -0.2789  -0.2764  -0.2716  -0.2703  -0.2685  -0.2678  -0.2667
 -0.2658  -0.2649  -0.2640  -0.2639  -0.2634  -0.2608  -0.2604  -0.2588
 -0.2575  -0.2563  -0.2545  -0.2543  -0.2539  -0.2518  -0.2506  -0.2493
 -0.2492  -0.2485  -0.2477  -0.2450  -0.2448  -0.2447  -0.2441  -0.2432
 -0.2419  -0.2416  -0.2412  -0.2394  -0.2393  -0.2389  -0.2381  -0.2353
 -0.2350  -0.2307  -0.2297  -0.2277  -0.2256  -0.2227  -0.2220  -0.2190
 -0.2190  -0.2167  -0.2146  -0.2089  -0.2086  -0.2079
 -- Virtual --
 -0.0304  -0.0261  -0.0234  -0.0211  -0.0193  -0.0185  -0.0152  -0.0127
 -0.0113  -0.0102  -0.0096  -0.0086  -0.0076  -0.0062  -0.0052  -0.0039
 -0.0025  -0.0020  -0.0018  -0.0015  -0.0008  -0.0005   0.0005   0.0015
  0.0021   0.0031   0.0035   0.0046   0.0054   0.0060   0.0062   0.0070
  0.0077   0.0081   0.0087   0.0093   0.0097   0.0103   0.0114   0.0119
  0.0122   0.0136   0.0139   0.0145   0.0152   0.0155   0.0162   0.0170
  0.0175   0.0176   0.0185   0.0198   0.0199   0.0208   0.0211   0.0214
  0.0220   0.0224   0.0234   0.0239   0.0245   0.0254   0.0259   0.0264
  0.0267   0.0270   0.0277   0.0284   0.0287   0.0293   0.0302   0.0302
  0.0308   0.0314   0.0319   0.0325   0.0331   0.0339   0.0344   0.0348
  0.0357   0.0362   0.0368   0.0377   0.0386   0.0390   0.0393   0.0395
  0.0404   0.0410   0.0417   0.0421   0.0427   0.0429   0.0438   0.0441
  0.0447   0.0452   0.0456   0.0465   0.0466   0.0475   0.0478   0.0483
  0.0486   0.0492   0.0502   0.0504   0.0508   0.0512   0.0522   0.0528
  0.0532   0.0534   0.0542   0.0551   0.0560   0.0565   0.0570   0.0575
  0.0585   0.0590   0.0592   0.0595   0.0605   0.0610   0.0614   0.0618
  0.0627   0.0629   0.0636   0.0642   0.0648   0.0656   0.0661   0.0671
  0.0674   0.0676   0.0680   0.0686   0.0695   0.0702   0.0710   0.0713
  0.0720   0.0732   0.0742   0.0745   0.0748   0.0752   0.0758   0.0762
  0.0771   0.0776   0.0778   0.0780   0.0785   0.0788   0.0795   0.0804
  0.0812   0.0819   0.0822   0.0828   0.0835   0.0841   0.0848   0.0852
  0.0856   0.0861   0.0867   0.0870   0.0875   0.0885   0.0893   0.0897
  0.0899   0.0904   0.0911   0.0922   0.0931   0.0936   0.0943   0.0948
  0.0953   0.0958   0.0963   0.0964   0.0971   0.0978   0.0980   0.0984
  0.0996   0.1002   0.1010   0.1014   0.1022   0.1025   0.1028   0.1033
  0.1046   0.1049   0.1056   0.1060   0.1065   0.1069   0.1074   0.1078
  0.1087   0.1091   0.1096   0.1103   0.1108   0.1113   0.1119   0.1123
  0.1128   0.1143   0.1146   0.1149   0.1155   0.1159   0.1165   0.1166
  0.1180   0.1182   0.1188   0.1191   0.1198   0.1200   0.1208   0.1211
  0.1219   0.1222   0.1225   0.1233   0.1241   0.1248   0.1253   0.1260
  0.1263   0.1268   0.1273   0.1278   0.1281   0.1291   0.1296   0.1304
  0.1305   0.1306   0.1316   0.1324   0.1329   0.1336   0.1339   0.1343
  0.1348   0.1350   0.1358   0.1365   0.1369   0.1374   0.1379   0.1386
  0.1395   0.1395   0.1399   0.1406   0.1410   0.1421   0.1423   0.1432
  0.1434   0.1442   0.1450   0.1454   0.1459   0.1461   0.1465   0.1471
  0.1478   0.1487   0.1489   0.1493   0.1494   0.1498   0.1503   0.1514
  0.1518   0.1526   0.1529   0.1532   0.1537   0.1543   0.1546   0.1558
  0.1568   0.1569   0.1574   0.1580   0.1583   0.1592   0.1596   0.1598
  0.1606   0.1611   0.1615   0.1620   0.1630   0.1633   0.1637   0.1645
  0.1647   0.1650   0.1655   0.1663   0.1668   0.1677   0.1683   0.1690
  0.1695   0.1699   0.1700   0.1712   0.1719   0.1723   0.1728   0.1731
  0.1740   0.1742   0.1747   0.1750   0.1757   0.1763   0.1773   0.1776
  0.1785   0.1790   0.1795   0.1801   0.1803   0.1804   0.1818   0.1818
  0.1819   0.1827   0.1833   0.1837   0.1847   0.1849   0.1852   0.1861
  0.1867   0.1877   0.1882   0.1885   0.1889   0.1898   0.1900   0.1902
  0.1911   0.1919   0.1925   0.1928   0.1936   0.1942   0.1945   0.1950
  0.1953   0.1957   0.1962   0.1973   0.1975   0.1983   0.1987   0.1993
  0.1999   0.2001   0.2011   0.2019   0.2028   0.2031   0.2035   0.2037
  0.2045   0.2047   0.2055   0.2057   0.2064   0.2069   0.2076   0.2089
  0.2090   0.2095   0.2100   0.2104   0.2110   0.2112   0.2119   0.2126
  0.2132   0.2135   0.2142   0.2146   0.2148   0.2151   0.2154   0.2163
  0.2168   0.2175   0.2182   0.2185   0.2191   0.2198   0.2201   0.2206
  0.2217   0.2220   0.2224   0.2230   0.2241   0.2243   0.2251   0.2254
  0.2264   0.2269   0.2274   0.2286   0.2291   0.2296   0.2302   0.2305
  0.2314   0.2319   0.2324   0.2325   0.2333   0.2340   0.2341   0.2348
  0.2352   0.2363   0.2372   0.2376   0.2381   0.2387   0.2395   0.2401
  0.2403   0.2408   0.2413   0.2418   0.2424   0.2430   0.2431   0.2433
  0.2441   0.2450   0.2455   0.2465   0.2468   0.2481   0.2489   0.2493
  0.2500   0.2508   0.2516   0.2518   0.2521   0.2524   0.2527   0.2528
  0.2551   0.2556   0.2562   0.2567   0.2572   0.2576   0.2586   0.2589
  0.2591   0.2600   0.2603   0.2616   0.2622   0.2633   0.2637   0.2641
  0.2644   0.2649   0.2657   0.2661   0.2663   0.2669   0.2674   0.2676
  0.2690   0.2695   0.2699   0.2708   0.2711   0.2720   0.2720   0.2727
  0.2733   0.2741   0.2747   0.2754   0.2758   0.2768   0.2769   0.2771
  0.2784   0.2789   0.2790   0.2795   0.2804   0.2811   0.2821   0.2825
  0.2828   0.2835   0.2842   0.2848   0.2850   0.2862   0.2864   0.2868
  0.2876   0.2887   0.2893   0.2904   0.2907   0.2907   0.2921   0.2925
  0.2941   0.2945   0.2954   0.2959   0.2970   0.2977   0.2982   0.2989
  0.2990   0.3000   0.3008   0.3017   0.3021   0.3024   0.3028   0.3041
  0.3046   0.3052   0.3063   0.3076   0.3083   0.3084   0.3090   0.3092
  0.3100   0.3105   0.3115   0.3120   0.3129   0.3140   0.3147   0.3151
  0.3155   0.3161   0.3169   0.3178   0.3184   0.3190   0.3195   0.3202
  0.3209   0.3215   0.3220   0.3237   0.3242   0.3245   0.3256   0.3266
  0.3268   0.3275   0.3290   0.3292   0.3298   0.3310   0.3319   0.3322
  0.3325   0.3332   0.3343   0.3349   0.3353   0.3363   0.3368   0.3376
  0.3376   0.3387   0.3395   0.3405   0.3409   0.3417   0.3429   0.3440
  0.3444   0.3460   0.3463   0.3469   0.3474   0.3486   0.3488   0.3499
  0.3513   0.3517   0.3522   0.3527   0.3533   0.3542   0.3551   0.3558
  0.3565   0.3571   0.3586   0.3590   0.3595   0.3607   0.3610   0.3614
  0.3627   0.3635   0.3639   0.3645   0.3653   0.3664   0.3669   0.3675
  0.3684   0.3693   0.3698   0.3706   0.3711   0.3714   0.3726   0.3731
  0.3737   0.3744   0.3750   0.3771   0.3778   0.3790   0.3799   0.3805
  0.3809   0.3814   0.3823   0.3830   0.3846   0.3849   0.3850   0.3861
  0.3873   0.3875   0.3884   0.3888   0.3896   0.3907   0.3915   0.3926
  0.3934   0.3938   0.3950   0.3958   0.3960   0.3970   0.3979   0.3987
  0.3991   0.4001   0.4004   0.4010   0.4024   0.4025   0.4035   0.4047
  0.4049   0.4058   0.4073   0.4080   0.4088   0.4103   0.4108   0.4113
  0.4120   0.4125   0.4133   0.4138   0.4146   0.4147   0.4166   0.4168
  0.4175   0.4186   0.4191   0.4199   0.4202   0.4219   0.4225   0.4250
  0.4254   0.4264   0.4265   0.4277   0.4284   0.4287   0.4292   0.4300
  0.4314   0.4316   0.4325   0.4338   0.4347   0.4352   0.4368   0.4370
  0.4378   0.4385   0.4390   0.4410   0.4421   0.4421   0.4430   0.4439
  0.4442   0.4463   0.4472   0.4489   0.4497   0.4513   0.4520   0.4534
  0.4537   0.4545   0.4551   0.4571   0.4584   0.4586   0.4601   0.4607
  0.4614   0.4622   0.4626   0.4638   0.4666   0.4674   0.4684   0.4694
  0.4710   0.4718   0.4726   0.4735   0.4750   0.4759   0.4760   0.4771
  0.4779   0.4791   0.4798   0.4814   0.4826   0.4851   0.4854   0.4858
  0.4874   0.4889   0.4900   0.4922   0.4926   0.4931   0.4936   0.4954
  0.4967   0.4975   0.4983   0.4991   0.5009   0.5018   0.5031   0.5042
  0.5052   0.5063   0.5079   0.5087   0.5112   0.5119   0.5123   0.5140
  0.5146   0.5153   0.5175   0.5192   0.5201   0.5209   0.5236   0.5243
  0.5260   0.5268   0.5270   0.5296   0.5311   0.5321   0.5332   0.5347
  0.5357   0.5383   0.5398   0.5418   0.5425   0.5430   0.5447   0.5461
  0.5485   0.5495   0.5509   0.5520   0.5537   0.5540   0.5553   0.5562
  0.5573   0.5586   0.5598   0.5615   0.5621   0.5641   0.5646   0.5650
  0.5668   0.5679   0.5699   0.5714   0.5722   0.5742   0.5752   0.5758
  0.5771   0.5804   0.5813   0.5824   0.5827   0.5849   0.5866   0.5870
  0.5890   0.5899   0.5913   0.5928   0.5944   0.5966   0.5974   0.5986
  0.5991   0.6000   0.6021   0.6033   0.6034   0.6051   0.6060   0.6063
  0.6070   0.6078   0.6090   0.6105   0.6120   0.6137   0.6146   0.6154
  0.6159   0.6164   0.6180   0.6199   0.6206   0.6221   0.6234   0.6252
  0.6261   0.6264   0.6281   0.6290   0.6303   0.6320   0.6329   0.6340
  0.6354   0.6362   0.6376   0.6382   0.6400   0.6405   0.6409   0.6416
  0.6428   0.6433   0.6438   0.6460   0.6463   0.6477   0.6501   0.6506
  0.6515   0.6521   0.6530   0.6549   0.6555   0.6561   0.6566   0.6582
  0.6605   0.6612   0.6628   0.6632   0.6640   0.6643   0.6668   0.6672
  0.6679   0.6690   0.6700   0.6705   0.6712   0.6719   0.6725   0.6741
  0.6760   0.6764   0.6771   0.6778   0.6783   0.6796   0.6799   0.6814
  0.6826   0.6836   0.6847   0.6855   0.6866   0.6878   0.6888   0.6898
  0.6912   0.6914   0.6928   0.6931   0.6942   0.6951   0.6973   0.6984
  0.6988   0.6993   0.7003   0.7022   0.7034   0.7042   0.7046   0.7061
  0.7066   0.7074   0.7092   0.7099   0.7104   0.7112   0.7121   0.7130
  0.7153   0.7155   0.7165   0.7171   0.7181   0.7196   0.7211   0.7218
  0.7232   0.7237   0.7253   0.7257   0.7259   0.7280   0.7287   0.7308
  0.7313   0.7328   0.7345   0.7356   0.7360   0.7382   0.7394   0.7404
  0.7407   0.7423   0.7437   0.7446   0.7458   0.7465   0.7477   0.7493
  0.7507   0.7515   0.7526   0.7534   0.7543   0.7552   0.7569   0.7582
  0.7591   0.7610   0.7614   0.7628   0.7659   0.7663   0.7673   0.7685
  0.7693   0.7708   0.7714   0.7724   0.7731   0.7743   0.7755   0.7773
  0.7787   0.7801   0.7823   0.7845   0.7853   0.7868   0.7883   0.7891
  0.7895   0.7901   0.7911   0.7929   0.7935   0.7949   0.7976   0.7983
  0.7994   0.8002   0.8035   0.8047   0.8056   0.8074   0.8094   0.8105
  0.8112   0.8132   0.8139   0.8153   0.8165   0.8169   0.8192   0.8201
  0.8218   0.8226   0.8245   0.8250   0.8265   0.8279   0.8295   0.8307
  0.8316   0.8321   0.8336   0.8345   0.8362   0.8366   0.8396   0.8405
  0.8415   0.8418   0.8426   0.8433   0.8465   0.8472   0.8494   0.8511
  0.8519   0.8526   0.8539   0.8542   0.8550   0.8564   0.8574   0.8580
  0.8594   0.8605   0.8613   0.8629   0.8635   0.8652   0.8656   0.8661
  0.8676   0.8686   0.8698   0.8707   0.8720   0.8725   0.8732   0.8745
  0.8754   0.8763   0.8785   0.8796   0.8806   0.8824   0.8836   0.8844
  0.8848   0.8858   0.8873   0.8888   0.8893   0.8910   0.8914   0.8933
  0.8944   0.8953   0.8958   0.8967   0.8979   0.8986   0.8991   0.9008
  0.9021   0.9032   0.9048   0.9053   0.9066   0.9075   0.9090   0.9099
  0.9104   0.9121   0.9128   0.9143   0.9154   0.9160   0.9170   0.9182
  0.9202   0.9207   0.9222   0.9230   0.9243   0.9260   0.9270   0.9287
  0.9296   0.9298   0.9307   0.9319   0.9332   0.9345   0.9352   0.9362
  0.9377   0.9397   0.9402   0.9409   0.9424   0.9436   0.9449   0.9457
  0.9469   0.9480   0.9492   0.9504   0.9518   0.9521   0.9526   0.9536
  0.9556   0.9561   0.9565   0.9589   0.9594   0.9596   0.9613   0.9621
  0.9636   0.9645   0.9656   0.9671   0.9686   0.9690   0.9707   0.9713
  0.9725   0.9734   0.9739   0.9753   0.9765   0.9780   0.9788   0.9792
  0.9800   0.9807   0.9825   0.9837   0.9847   0.9853   0.9867   0.9869
  0.9881   0.9894   0.9898   0.9907   0.9922   0.9928   0.9943   0.9947
  0.9958   0.9962   0.9972   0.9986   0.9996   1.0003   1.0011   1.0020
  1.0037   1.0048   1.0052   1.0062   1.0074   1.0089   1.0101   1.0107
  1.0116   1.0125   1.0137   1.0140   1.0143   1.0157   1.0160   1.0169
  1.0176   1.0182   1.0192   1.0204   1.0218   1.0225   1.0239   1.0247
  1.0261   1.0269   1.0282   1.0292   1.0299   1.0308   1.0322   1.0322
  1.0345   1.0354   1.0356   1.0362   1.0374   1.0386   1.0391   1.0406
  1.0410   1.0414   1.0428   1.0434   1.0449   1.0458   1.0465   1.0473
  1.0488   1.0501   1.0515   1.0518   1.0541   1.0546   1.0560   1.0569
  1.0576   1.0579   1.0588   1.0602   1.0604   1.0625   1.0637   1.0642
  1.0650   1.0667   1.0671   1.0688   1.0699   1.0716   1.0727   1.0736
  1.0738   1.0751   1.0766   1.0775   1.0780   1.0797   1.0801   1.0817
  1.0827   1.0835   1.0849   1.0855   1.0870   1.0884   1.0886   1.0913
  1.0920   1.0931   1.0943   1.0953   1.0967   1.0973   1.0988   1.0990
  1.0998   1.1010   1.1030   1.1042   1.1048   1.1063   1.1068   1.1098
  1.1105   1.1120   1.1126   1.1145   1.1161   1.1173   1.1191   1.1198
  1.1206   1.1220   1.1227   1.1242   1.1254   1.1271   1.1280   1.1292
  1.1300   1.1313   1.1321   1.1331   1.1333   1.1358   1.1360   1.1383
  1.1397   1.1401   1.1409   1.1419   1.1451   1.1466   1.1469   1.1475
  1.1484   1.1496   1.1507   1.1520   1.1524   1.1539   1.1551   1.1568
  1.1577   1.1585   1.1590   1.1594   1.1622   1.1632   1.1638   1.1651
  1.1659   1.1677   1.1688   1.1695   1.1704   1.1714   1.1736   1.1752
  1.1759   1.1781   1.1787   1.1799   1.1809   1.1823   1.1831   1.1836
  1.1851   1.1861   1.1887   1.1894   1.1899   1.1911   1.1925   1.1936
  1.1941   1.1964   1.1969   1.1980   1.1993   1.2001   1.2027   1.2034
  1.2046   1.2069   1.2079   1.2085   1.2101   1.2118   1.2131   1.2145
  1.2147   1.2178   1.2184   1.2204   1.2213   1.2235   1.2243   1.2261
  1.2292   1.2308   1.2322   1.2329   1.2359   1.2376   1.2382   1.2404
  1.2430   1.2455   1.2460   1.2482   1.2502   1.2510   1.2537   1.2548
  1.2577   1.2587   1.2602   1.2615   1.2632   1.2646   1.2668   1.2672
  1.2687   1.2705   1.2730   1.2744   1.2753   1.2779   1.2808   1.2843
  1.2848   1.2863   1.2874   1.2919   1.2923   1.2943   1.2952   1.2958
  1.2968   1.3010   1.3042   1.3069   1.3088   1.3103   1.3122   1.3144
  1.3149   1.3172   1.3191   1.3193   1.3229   1.3232   1.3254   1.3274
  1.3287   1.3333   1.3340   1.3343   1.3350   1.3376   1.3386   1.3419
  1.3439   1.3460   1.3480   1.3483   1.3497   1.3517   1.3537   1.3556
  1.3581   1.3611   1.3624   1.3630   1.3648   1.3668   1.3692   1.3696
  1.3713   1.3717   1.3735   1.3743   1.3759   1.3772   1.3800   1.3812
  1.3824   1.3829   1.3846   1.3862   1.3881   1.3884   1.3901   1.3920
  1.3935   1.3958   1.3958   1.3973   1.3983   1.3998   1.4014   1.4037
  1.4043   1.4053   1.4060   1.4091   1.4098   1.4105   1.4116   1.4139
  1.4150   1.4158   1.4176   1.4188   1.4191   1.4212   1.4223   1.4234
  1.4242   1.4250   1.4253   1.4273   1.4294   1.4299   1.4306   1.4321
  1.4330   1.4337   1.4345   1.4385   1.4398   1.4404   1.4409   1.4427
  1.4437   1.4443   1.4460   1.4469   1.4477   1.4489   1.4502   1.4509
  1.4515   1.4525   1.4531   1.4557   1.4583   1.4598   1.4611   1.4626
  1.4644   1.4646   1.4660   1.4663   1.4675   1.4709   1.4732   1.4739
  1.4746   1.4752   1.4767   1.4794   1.4804   1.4825   1.4842   1.4856
  1.4877   1.4886   1.4906   1.4916   1.4927   1.4950   1.4972   1.4984
  1.4992   1.5019   1.5033   1.5066   1.5073   1.5091   1.5100   1.5135
  1.5137   1.5154   1.5174   1.5191   1.5210   1.5220   1.5236   1.5257
  1.5282   1.5286   1.5318   1.5360   1.5371   1.5379   1.5382   1.5420
  1.5436   1.5467   1.5471   1.5481   1.5515   1.5525   1.5585   1.5587
  1.5599   1.5629   1.5634   1.5661   1.5677   1.5687   1.5708   1.5732
  1.5760   1.5783   1.5807   1.5823   1.5838   1.5873   1.5904   1.5943
  1.5948   1.5980   1.6006   1.6038   1.6076   1.6088   1.6114   1.6157
  1.6183   1.6202   1.6229   1.6259   1.6334   1.6364   1.6388   1.6392
  1.6413   1.6444   1.6482   1.6529   1.6560   1.6584   1.6587   1.6614
  1.6642   1.6645   1.6653   1.6680   1.6690   1.6705   1.6712   1.6734
  1.6761   1.6767   1.6776   1.6800   1.6809   1.6816   1.6845   1.6854
  1.6868   1.6873   1.6893   1.6903   1.6914   1.6933   1.6938   1.6953
  1.6971   1.6977   1.6989   1.6995   1.7007   1.7010   1.7025   1.7040
  1.7057   1.7063   1.7078   1.7085   1.7086   1.7091   1.7115   1.7121
  1.7132   1.7141   1.7158   1.7173   1.7188   1.7199   1.7217   1.7221
  1.7239   1.7241   1.7248   1.7251   1.7274   1.7277   1.7293   1.7316
  1.7329   1.7339   1.7345   1.7356   1.7367   1.7380   1.7395   1.7404
  1.7408   1.7420   1.7436   1.7448   1.7466   1.7481   1.7488   1.7497
  1.7510   1.7529   1.7542   1.7551   1.7560   1.7564   1.7577   1.7606
  1.7616   1.7628   1.7633   1.7641   1.7658   1.7678   1.7682   1.7701
  1.7709   1.7740   1.7743   1.7765   1.7779   1.7792   1.7797   1.7813
  1.7819   1.7832   1.7857   1.7872   1.7883   1.7897   1.7906   1.7932
  1.7942   1.7964   1.7977   1.7986   1.8008   1.8025   1.8042   1.8062
  1.8071   1.8092   1.8108   1.8134   1.8158   1.8159   1.8170   1.8186
  1.8201   1.8228   1.8237   1.8279   1.8288   1.8308   1.8328   1.8371
  1.8388   1.8413   1.8421   1.8452   1.8466   1.8495   1.8517   1.8552
  1.8589   1.8601   1.8619   1.8639   1.8663   1.8664   1.8699   1.8717
  1.8729   1.8751   1.8783   1.8803   1.8816   1.8829   1.8838   1.8845
  1.8862   1.8878   1.8896   1.8907   1.8921   1.8933   1.8939   1.8952
  1.8971   1.8980   1.9001   1.9009   1.9012   1.9020   1.9030   1.9051
  1.9064   1.9072   1.9076   1.9099   1.9108   1.9116   1.9132   1.9143
  1.9152   1.9156   1.9161   1.9173   1.9179   1.9194   1.9209   1.9216
  1.9222   1.9233   1.9246   1.9253   1.9271   1.9288   1.9294   1.9314
  1.9315   1.9338   1.9356   1.9359   1.9381   1.9399   1.9403   1.9425
  1.9438   1.9450   1.9480   1.9495   1.9515   1.9541   1.9557   1.9565
  1.9593   1.9607   1.9629   1.9643   1.9654   1.9676   1.9699   1.9718
  1.9727   1.9792   1.9810   1.9832   1.9851   1.9906   1.9915   1.9979
  1.9988   2.0052   2.0081   2.0120   2.0124   2.0148   2.0231   2.0272
  2.0320   2.0443   2.0469   2.0496   2.0506   2.0534   2.0555   2.0591
  2.0604   2.0618   2.0632   2.0639   2.0661   2.0673   2.0711   2.0734
  2.0743   2.0760   2.0771   2.0784   2.0787   2.0796   2.0802   2.0814
  2.0825   2.0827   2.0840   2.0856   2.0864   2.0882   2.0884   2.0909
  2.0924   2.0926   2.0933   2.0941   2.0959   2.0974   2.0978   2.0985
  2.1001   2.1007   2.1028   2.1035   2.1046   2.1053   2.1068   2.1071
  2.1084   2.1100   2.1134   2.1145   2.1151   2.1166   2.1210   2.1219
  2.1241   2.1262   2.1282   2.1287   2.1307   2.1341   2.1367   2.1398
  2.1424   2.1448   2.1484   2.1508   2.1531   2.1611   2.1629   2.1667
  2.1719   2.1756   2.1770   2.1806   2.1826   2.1852   2.1883   2.1888
  2.1941   2.1956   2.1961   2.1971   2.1990   2.2025   2.2034   2.2044
  2.2075   2.2104   2.2141   2.2156   2.2162   2.2184   2.2225   2.2244
  2.2250   2.2256   2.2265   2.2282   2.2294   2.2320   2.2328   2.2338
  2.2343   2.2347   2.2360   2.2365   2.2379   2.2381   2.2391   2.2399
  2.2412   2.2423   2.2429   2.2437   2.2454   2.2468   2.2475   2.2485
  2.2499   2.2507   2.2515   2.2526   2.2530   2.2544   2.2552   2.2558
  2.2567   2.2571   2.2577   2.2584   2.2593   2.2601   2.2620   2.2626
  2.2633   2.2639   2.2657   2.2661   2.2667   2.2674   2.2687   2.2702
  2.2703   2.2712   2.2720   2.2735   2.2739   2.2745   2.2770   2.2772
  2.2778   2.2785   2.2794   2.2808   2.2815   2.2821   2.2827   2.2834
  2.2840   2.2850   2.2867   2.2869   2.2880   2.2893   2.2899   2.2907
  2.2909   2.2921   2.2930   2.2936   2.2947   2.2953   2.2965   2.2970
  2.2981   2.2996   2.3001   2.3004   2.3019   2.3033   2.3038   2.3045
  2.3059   2.3066   2.3069   2.3076   2.3092   2.3095   2.3106   2.3121
  2.3130   2.3145   2.3156   2.3168   2.3173   2.3184   2.3194   2.3198
  2.3216   2.3220   2.3230   2.3239   2.3249   2.3259   2.3262   2.3284
  2.3294   2.3298   2.3314   2.3323   2.3328   2.3338   2.3366   2.3383
  2.3390   2.3402   2.3413   2.3424   2.3450   2.3473   2.3500   2.3503
  2.3512   2.3521   2.3533   2.3535   2.3549   2.3580   2.3582   2.3591
  2.3596   2.3621   2.3630   2.3651   2.3668   2.3684   2.3720   2.3730
  2.3735   2.3748   2.3781   2.3802   2.3806   2.3824   2.3853   2.3904
  2.3916   2.3929   2.3945   2.3973   2.3986   2.4007   2.4023   2.4063
  2.4103   2.4116   2.4186   2.4188   2.4215   2.4312   2.4325   2.4366
  2.4412   2.4455   2.4563   2.4565   2.4683   2.5034   2.5291   2.5498
  2.6068   2.6791   2.7718   2.7859   2.8055   2.8273   2.8280   2.8291
  2.8301   2.8339   2.8384   2.8416   2.8470   2.8486   2.8493   2.8527
  2.8554   2.8560   2.8568   2.8573   2.8580   2.8586   2.8617   2.8648
  2.8659   2.8673   2.8690   2.8730   2.8773   2.8806   2.8812   2.8827
  2.8859   2.8876   2.8890   2.8928   2.8957   2.8991   2.9014   2.9282
  2.9504   3.1011   3.2663   3.9571   3.9648   3.9684   3.9708   3.9714
  3.9791   3.9821   3.9837   3.9844   3.9849   3.9881   3.9903   3.9914
  3.9947   3.9973   3.9977   3.9992   4.0020   4.0024   4.0040   4.0072
  4.0166   4.0183   4.0202   4.0223   4.0240   4.0262   4.0317   4.0367
  4.0490   4.0570   4.2359   4.2381   4.2426   4.2471   4.2505   4.2520
  4.2534   4.2557   4.2566   4.2576   4.2634   4.2658   4.2704   4.2717
  4.2750   4.2766   4.2772   4.2804   4.2828   4.2854   4.2877   4.2889
  4.2895   4.2913   4.2939   4.2968   4.2988   4.3003   4.3010   4.3040
  4.3053   4.3083   4.3117   4.3132   4.3201   4.3220   4.3230   4.3237
  4.3249   4.3263   4.3291   4.3327   4.3355   4.3369   4.3377   4.3425
  4.3432   4.3462   4.3470   4.3486   4.3529   4.3552   4.3588   4.3597
  4.3632   4.3642   4.3693   4.3697   4.3764   4.3776   4.3804   4.3843
  4.3864   4.3908   4.3963   4.3999   4.4028   4.4036   4.4068   4.4099
  4.4140   4.4146   4.4209   4.4219   4.4247   4.4311   4.4359   4.4441
  4.4495   4.4548   4.4600   4.4640   4.4717   4.4970   4.5056   4.5110
  4.5203   4.5332   4.5383   4.5449   4.5532   4.5687   4.5825   4.5990
  4.6172   4.6657   4.6796   4.7147   4.7426   4.7770   4.8094   4.9655
 --------------------------------------------------------------
 
          Ground-State Mulliken Net Atomic Charges

     Atom                 Charge (a.u.)
  ----------------------------------------
      1 C                    -0.440004
      2 C                    -0.410437
      3 C                     0.002414
      4 C                    -0.698278
      5 C                    -0.498431
      6 C                    -0.375530
      7 H                     0.220960
      8 H                     0.209211
      9 H                     0.217914
     10 H                     0.251709
     11 H                     0.232278
     12 H                     0.193253
     13 H                     0.196818
     14 H                     0.208238
     15 H                     0.206205
     16 H                     0.187518
     17 H                     0.182188
     18 N                    -0.362076
     19 H                     0.507733
     20 C                     0.338032
     21 H                     0.186755
     22 O                    -0.556471
     23 C                    -1.138996
     24 H                     0.251720
     25 H                     0.292537
     26 H                     0.292507
     27 S                     1.018880
     28 C                    -0.868895
     29 H                     0.247308
     30 H                     0.243430
     31 H                     0.257987
     32 O                    -0.662964
     33 C                    -1.021948
     34 H                     0.302165
     35 H                     0.300074
     36 H                     0.228678
     37 S                     0.919107
     38 C                    -0.880520
     39 H                     0.288441
     40 H                     0.243665
     41 H                     0.254747
     42 O                    -0.622135
     43 C                    -0.709750
     44 H                     0.250836
     45 H                     0.268419
     46 H                     0.230572
     47 S                     0.466463
     48 C                    -0.827574
     49 H                     0.268409
     50 H                     0.286687
     51 H                     0.276419
     52 O                    -0.611062
     53 C                    -0.736885
     54 H                     0.260697
     55 H                     0.264255
     56 H                     0.241989
     57 S                     0.492806
     58 C                    -0.689808
     59 H                     0.248042
     60 H                     0.289770
     61 H                     0.254950
     62 O                    -0.575095
     63 C                    -0.947454
     64 H                     0.249219
     65 H                     0.231744
     66 H                     0.249310
     67 S                     1.147038
     68 C                    -0.887998
     69 H                     0.245921
     70 H                     0.265517
     71 H                     0.233175
     72 O                    -0.687950
     73 C                    -0.697545
     74 H                     0.222071
     75 H                     0.288753
     76 H                     0.273415
     77 S                     0.497584
     78 C                    -0.749265
     79 H                     0.222005
     80 H                     0.290273
     81 H                     0.247309
     82 O                    -0.716927
     83 C                    -0.927766
     84 H                     0.290692
     85 H                     0.231438
     86 H                     0.287568
     87 S                     0.940986
     88 C                    -0.919626
     89 H                     0.246276
     90 H                     0.245748
     91 H                     0.252583
     92 O                    -0.693197
     93 C                    -0.842514
     94 H                     0.245925
     95 H                     0.258264
     96 H                     0.290308
     97 S                     0.761826
     98 C                    -0.819894
     99 H                     0.238505
    100 H                     0.236976
    101 H                     0.249575
    102 O                    -0.634700
    103 C                    -0.780152
    104 H                     0.244112
    105 H                     0.235668
    106 H                     0.273952
    107 S                     0.740649
    108 C                    -0.791496
    109 H                     0.237456
    110 H                     0.238428
    111 H                     0.245431
    112 O                    -0.697737
    113 C                    -0.826607
    114 H                     0.286591
    115 H                     0.238884
    116 H                     0.248723
    117 S                     0.751643
    118 C                    -0.762387
    119 H                     0.247487
    120 H                     0.281512
    121 H                     0.236623
    122 O                    -0.649484
    123 C                    -0.881866
    124 H                     0.234488
    125 H                     0.280824
    126 H                     0.254487
    127 S                     0.965184
    128 C                    -1.163327
    129 H                     0.298132
    130 H                     0.289513
    131 H                     0.319168
    132 O                    -0.634304
    133 C                    -0.952407
    134 H                     0.221527
    135 H                     0.248619
    136 H                     0.246689
    137 S                     1.085925
    138 C                    -0.892071
    139 H                     0.281890
    140 H                     0.267783
    141 H                     0.253393
    142 O                    -0.726356
    143 C                    -0.713297
    144 H                     0.268384
    145 H                     0.239440
    146 H                     0.263852
    147 S                     0.606218
    148 C                    -0.718465
    149 H                     0.280881
    150 H                     0.235695
    151 H                     0.237182
    152 O                    -0.563576
    153 C                    -0.790962
    154 H                     0.231110
    155 H                     0.282615
    156 H                     0.273292
    157 S                     0.762448
    158 C                    -0.796970
    159 H                     0.260602
    160 H                     0.282438
    161 H                     0.241578
    162 O                    -0.717436
    163 C                    -0.893563
    164 H                     0.247324
    165 H                     0.264642
    166 H                     0.283895
    167 S                     0.788288
    168 C                    -0.780511
    169 H                     0.252682
    170 H                     0.259470
    171 H                     0.257775
    172 O                    -0.679958
    173 C                    -0.900686
    174 H                     0.261017
    175 H                     0.269237
    176 H                     0.291216
    177 S                     0.917522
    178 C                    -0.857532
    179 H                     0.295708
    180 H                     0.230664
    181 H                     0.275732
    182 O                    -0.783853
    183 C                    -0.779263
    184 H                     0.239535
    185 H                     0.273423
    186 H                     0.274590
    187 S                     0.818991
    188 C                    -0.901434
    189 H                     0.257106
    190 H                     0.228066
    191 H                     0.258624
    192 O                    -0.652780
    193 C                    -0.933974
    194 H                     0.279493
    195 H                     0.257461
    196 H                     0.246109
    197 S                     1.011580
    198 C                    -0.807436
    199 H                     0.280150
    200 H                     0.226229
[...]
    2  -0.0298757   0.0012747  -0.0281951   0.0069749   0.0093807   0.0165545
    3  -0.0046363   0.0242067   0.0538651  -0.0023281   0.0113516  -0.0282070
          211         212         213         214         215         216
    1  -0.0225642   0.0613765  -0.0020205   0.0037086   0.0167263  -0.0251431
    2   0.0152780  -0.0259227  -0.0078387   0.0131420  -0.0271083  -0.0203215
    3   0.0230556  -0.0875392  -0.0063486  -0.0308858   0.0138148  -0.0187988
          217         218         219         220         221         222
    1   0.0517574  -0.0086980  -0.0232827   0.0068445  -0.0002974  -0.0422773
    2   0.0064167  -0.0034210  -0.0053415  -0.0355720   0.0264996   0.0756002
    3   0.0322756   0.0062879  -0.0241502  -0.0042793   0.0267047  -0.0646184
          223         224         225         226         227         228
    1   0.0029241  -0.0215509   0.0033141   0.0312242   0.0253573   0.0040448
    2  -0.0078251  -0.0233487  -0.0024483  -0.0112175   0.0418348  -0.0045558
    3  -0.0000320   0.0027075  -0.0330879  -0.0004313  -0.0086423   0.0050450
          229         230         231         232         233         234
    1   0.0271811  -0.0107317  -0.0115372  -0.1103752  -0.0051639  -0.0326722
    2  -0.0057071   0.0206050  -0.0294654  -0.0088514   0.0055057  -0.0153169
    3   0.0223363   0.0153493   0.0018881   0.0030465   0.0039663   0.0051360
          235         236         237         238         239         240
    1  -0.0154899   0.0013141   0.0007164  -0.0023397  -0.0190121   0.0209222
    2   0.0016632   0.0297651  -0.0182852  -0.0094073  -0.0230761  -0.0263004
    3   0.0257584  -0.0139518  -0.0555526   0.0064309  -0.0181905   0.0049203
          241         242         243         244         245         246
    1  -0.0138816   0.0791042   0.0083252   0.0076077   0.0185179   0.0007644
    2   0.0178051   0.0532499  -0.0024744   0.0273354  -0.0194431  -0.0111886
    3   0.0220716   0.0509352  -0.0037911  -0.0118417   0.0126025  -0.0307696
          247         248         249         250         251         252
    1  -0.0289817  -0.0033217   0.0159004  -0.0033388  -0.0246229   0.0407467
    2  -0.0418177   0.0040267   0.0247369   0.0061367   0.0119551   0.0281215
    3  -0.0136891  -0.0048515   0.0032251  -0.0330037   0.0129790   0.0958343
          253         254         255         256         257         258
    1   0.0062617   0.0118994   0.0154703  -0.0095373   0.0122201  -0.0006538
    2  -0.0015022   0.0220039  -0.0323968   0.0140072  -0.0177817  -0.0080740
    3  -0.0100121   0.0004048  -0.0013025  -0.0351708   0.0546275  -0.0074754
          259         260         261         262         263         264
    1  -0.0010288   0.0175119  -0.0254296  -0.0689832  -0.0012784  -0.0282683
    2   0.0026622  -0.0326663  -0.0045562   0.0828102   0.0070872  -0.0121404
    3  -0.0312682  -0.0048080   0.0122525  -0.0220466  -0.0052916  -0.0023992
          265         266         267         268         269         270
    1   0.0100731   0.0104761  -0.0181107   0.0082730   0.0122272   0.0064893
    2   0.0281207   0.0012944   0.0003824   0.0049258  -0.0255854   0.0041910
    3   0.0073034  -0.0310456   0.0629972  -0.0033702   0.0176537  -0.0340337
          271         272         273         274         275         276
    1   0.0160446  -0.0216920   0.0021305  -0.0004818   0.0343524  -0.0082060
    2   0.0253104  -0.0866289  -0.0014918  -0.0236475  -0.0060217  -0.0101211
    3   0.0217933  -0.0619294   0.0030362  -0.0158611   0.0138022   0.0307902
          277         278         279         280         281         282
    1   0.0087969  -0.0058607  -0.0137983  -0.0188060  -0.0152838   0.0365522
    2   0.0495539   0.0011774  -0.0234832   0.0070679   0.0082931  -0.0104088
    3   0.0301810   0.0005924  -0.0105965   0.0277244  -0.0281439  -0.1023278
          283         284         285         286         287         288
    1  -0.0044057  -0.0358346  -0.0234681   0.0079609  -0.0160888   0.0026981
    2   0.0004211  -0.0179622   0.0248401   0.0069526  -0.0196982   0.0057443
    3  -0.0045175  -0.0107285   0.0003313  -0.0243684   0.0431593   0.0012000
          289         290         291         292         293         294
    1  -0.0194734   0.0340545   0.0059651   0.0710786   0.0123583  -0.0015213
    2   0.0208626   0.0170666   0.0163649  -0.0367081   0.0000287  -0.0148993
    3   0.0229806   0.0092432  -0.0278115  -0.0729115  -0.0024376  -0.0317304
          295         296         297         298         299         300
    1   0.0178730  -0.0018799  -0.0411645   0.0010189  -0.0017330  -0.0354953
    2   0.0271132  -0.0213050  -0.0346260   0.0076895   0.0017630   0.0079733
    3   0.0007211   0.0298755  -0.0196766  -0.0057208  -0.0373419  -0.0032122
          301         302         303         304         305         306
    1   0.0288356  -0.0047291  -0.0050544  -0.0105177  -0.0308601  -0.0025933
    2   0.0111584   0.0445359  -0.0004291  -0.0023944   0.0008559   0.0325284
    3   0.0066526   0.0990946  -0.0071571  -0.0332872   0.0047909   0.0056798
          307         308         309         310         311         312
    1   0.0033082   0.0044461   0.0140905   0.0279732  -0.0028020  -0.0044381
    2   0.0176639  -0.0003951   0.0310401  -0.0103524  -0.0023466  -0.1070375
    3   0.0584473  -0.0045676   0.0038813   0.0112877  -0.0278787  -0.0262596
          313         314         315         316         317         318
    1   0.0076692   0.0213041   0.0144358  -0.0099800  -0.0152849   0.0010950
    2  -0.0013881  -0.0012101   0.0153908  -0.0276059  -0.0165397   0.0095218
    3   0.0049557  -0.0253864   0.0236008   0.0080786  -0.0592587   0.0078382
          319         320         321         322         323         324
    1   0.0096845   0.0154661  -0.0217047  -0.0688667   0.0019739   0.0088861
    2   0.0108988   0.0063693   0.0233113  -0.0283126   0.0033170  -0.0228602
    3   0.0300091  -0.0270612  -0.0025228   0.0808013   0.0071886   0.0246473
          325         326         327         328         329         330
    1   0.0145415  -0.0217395   0.0429789   0.0003486   0.0021136  -0.0249982
    2   0.0275352   0.0170717  -0.0349445   0.0042205   0.0212109   0.0243680
    3   0.0047368  -0.0067956  -0.0036506  -0.0068976  -0.0432214   0.0013047
          331         332
    1   0.0311262  -0.1042488
    2   0.0093137  -0.0070091
    3   0.0027964  -0.0284229
  --- DONE ESP SUMMARY ---
Archival summary:
1\1\n0097.mhg0\SP\ProcedureUnspecified\6-31+G*\313162h22\ymao\FriMar1220:33:272021FriMar1220:33:272021\0\\#,ProcedureUnspecified,6-31+G*,\\0,1\S\O,1,1.49671\C,1,1.80636,2,107.61\H,3,1.09228,1,109.366,2,178.909,0\H,3,1.09347,1,104.196,2,-60.9167,0\H,3,1.09353,1,115.384,2,56.4518,0\C,1,1.80723,2,102.787,3,92.3807,0\H,7,1.09239,1,111.48,2,74.3815,0\H,7,1.09264,1,106.193,2,-169.687,0\H,7,1.09359,1,104.807,2,-44.6385,0\H,10,1.92717,7,149.907,1,20.3865,0\C,11,1.09303,10,130.699,7,175.048,0\H,12,1.09282,11,106.654,10,175.392,0\H,12,1.09334,11,113.295,10,-59.6108,0\S,12,1.80635,11,112.305,10,56.9731,0\O,15,1.49737,12,102.884,11,-30.0235,0\C,15,1.80719,12,97.9639,11,74.7644,0\H,17,1.09219,15,93.7347,12,-168.046,0\H,17,1.09291,15,107.342,12,-49.643,0\H,17,1.093,15,111.566,12,69.6145,0\H,9,2.07523,7,105.036,1,-78.751,0\C,21,1.0932,9,155.705,7,-44.3929,0\H,22,1.09311,21,104.552,9,32.8497,0\H,22,1.09325,21,104.944,9,-91.1422,0\S,22,1.80696,21,114.808,9,143.156,0\O,25,1.4973,22,102.951,21,-32.7179,0\C,25,1.80689,22,96.3274,21,72.2332,0\H,27,1.09256,25,108.325,22,-62.4203,0\H,27,1.09289,25,104.743,22,60.9211,0\H,27,1.09329,25,107.945,22,-178.045,0\H,5,2.23407,3,118.67,1,-95.8743,0\C,31,1.09322,5,126.721,3,40.9468,0\H,32,1.0928,31,107.41,5,145.207,0\H,32,1.09292,31,108.885,5,32.9453,0\S,32,1.8065,31,112.496,5,-97.1528,0\O,35,1.49635,32,104.273,31,55.6077,0\C,35,1.80734,32,84.8764,31,-54.078,0\H,37,1.09259,35,103.563,32,67.6596,0\H,37,1.09293,35,114.761,32,-51.2035,0\H,37,1.09335,35,101.254,32,-179.397,0\H,39,2.0215,37,134.425,35,110.272,0\C,41,1.09363,39,124.232,37,49.6293,0\H,42,1.09281,41,112.641,39,119.72,0\H,42,1.09339,41,111.342,39,-3.70179,0\S,42,1.8064,41,108.972,39,-123.34,0\O,45,1.4963,42,102.979,41,54.4612,0\C,45,1.80603,42,102.59,41,-57.3676,0\H,47,1.09256,45,106.816,42,-174.797,0\H,47,1.09336,45,113.918,42,59.3665,0\H,47,1.09346,45,109.818,42,-61.599,0\Gh,48,2.16127,47,105.608,45,-111.248,0\Gh,51,1.09646,48,164.098,47,-136.906,0\Gh,52,1.46247,51,111.638,48,-27.8487,0\Gh,53,1.0131,52,117.875,51,156.328,0\Gh,53,1.37863,52,123.582,51,-7.43431,0\Gh,55,1.10496,53,117.046,52,163.312,0\Gh,55,1.21856,53,122.613,52,-9.78182,0\Gh,52,1.53733,51,103.197,48,91.264,0\Gh,58,1.09695,52,109.795,51,-171.82,0\Gh,58,1.09722,52,112.062,51,-64.2682,0\Gh,52,1.53739,51,103.537,48,-149.506,0\Gh,61,1.09646,52,113.3,51,61.1328,0\Gh,61,1.09677,52,107.359,51,173.535,0\Gh,58,1.53786,52,117.521,51,67.498,0\Gh,64,1.09635,58,111.207,52,-68.4667,0\Gh,64,1.09675,58,115.211,52,178.683,0\Gh,64,1.53746,58,106.266,52,50.4488,0\Gh,67,1.09671,64,108.765,58,-179.747,0\Gh,67,1.0968,64,111.387,58,71.8944,0\Gh,67,1.53796,64,114.792,58,-57.5494,0\Gh,70,1.09631,67,111.833,64,-56.7359,0\Gh,70,1.09708,67,107.735,64,176.803,0\O,54,1.83397,53,170.646,52,94.4213,0\S,73,1.49695,54,127.812,53,-16.9322,0\C,74,1.80621,73,97.7797,54,177.059,0\H,75,1.09292,74,111.901,73,-54.5147,0\H,75,1.09339,74,106.057,73,67.9227,0\H,75,1.09343,74,106.796,73,-171.752,0\C,74,1.8077,73,96.9785,54,-88.0738,0\H,79,1.0923,74,102.419,73,-33.9786,0\H,79,1.0929,74,110.922,73,-164.665,0\H,79,1.09353,74,106.296,73,80.7785,0\H,72,2.15753,70,132.339,67,-81.1507,0\C,83,1.09335,72,106.814,70,130.72,0\H,84,1.09265,83,117.341,72,94.0489,0\H,84,1.0927,83,104.682,72,-35.8954,0\S,84,1.80782,83,110.679,72,-143.869,0\O,87,1.49703,84,103.471,83,69.4518,0\C,87,1.80734,84,89.7538,83,170.023,0\H,89,1.09293,87,103.652,84,-177.001,0\H,89,1.093,87,108.872,84,-59.9657,0\H,89,1.09337,87,111.439,84,62.3369,0\H,91,1.94371,89,145.149,87,174.392,0\C,93,1.09314,91,164.93,89,-175.343,0\H,94,1.09239,93,114.861,91,-100.569,0\H,94,1.0934,93,104.765,91,140.675,0\S,94,1.80682,93,110.331,91,19.6851,0\O,97,1.49677,94,101.834,93,-175.343,0\C,97,1.80691,94,100.193,93,-67.3754,0\H,99,1.09299,97,118.719,94,-164.538,0\H,99,1.09304,97,108.074,94,65.9241,0\H,99,1.09321,97,106.628,94,-46.5627,0\H,81,2.19556,79,104.624,74,165.162,0\C,103,1.09237,81,157.311,79,176.055,0\H,104,1.09221,103,114.033,81,-104.012,0\H,104,1.09399,103,113.019,81,24.0387,0\S,104,1.80701,103,104.44,81,139.981,0\O,107,1.49722,104,102.093,103,40.0672,0\C,107,1.80714,104,96.1164,103,-64.5778,0\H,109,1.09263,107,116.807,104,-161.873,0\H,109,1.09328,107,105.945,104,80.0254,0\H,109,1.09328,107,115.819,104,-32.9941,0\H,28,2.25855,27,112.628,25,-128.687,0\C,113,1.09299,28,136.717,27,39.0209,0\H,114,1.09231,113,105.171,28,-166.215,0\H,114,1.09295,113,116.987,28,64.1864,0\S,114,1.80696,113,111.863,28,-55.0144,0\O,117,1.49731,114,91.9298,113,-58.0879,0\C,117,1.80747,114,98.3069,113,-163.203,0\H,119,1.09247,117,103.736,114,179.732,0\H,119,1.09282,117,105.644,114,62.5382,0\H,119,1.09349,117,109.075,114,-57.3138,0\H,116,1.98989,114,141.328,113,96.425,0\C,123,1.09367,116,115.323,114,140.209,0\H,124,1.0929,123,112.729,116,87.7896,0\H,124,1.0934,123,109.852,116,-44.8825,0\S,124,1.80707,123,104.088,116,-158.416,0\O,127,1.4966,124,103.068,123,-75.5102,0\C,127,1.80705,124,93.0446,123,-179.819,0\H,129,1.09301,127,100.939,124,-94.3372,0\H,129,1.09331,127,108.818,124,150.674,0\H,129,1.09345,127,112.905,124,31.81,0\H,130,2.13047,129,114.985,127,160.706,0\C,133,1.0934,130,110.915,129,-165.467,0\H,134,1.0929,133,111.57,130,-52.0245,0\H,134,1.09335,133,109.462,130,-172.241,0\S,134,1.80677,133,113.702,130,67.7893,0\O,137,1.49724,134,104.279,133,-69.312,0\C,137,1.80723,134,101.162,133,47.5168,0\H,139,1.09279,137,105.654,134,-171.556,0\H,139,1.09287,137,108.441,134,-56.6052,0\H,139,1.09343,137,111.728,134,61.9983,0\H,135,2.21372,134,104.994,133,-62.3433,0\C,143,1.09255,135,139.419,134,30.8213,0\H,144,1.09285,143,101.713,135,166.299,0\H,144,1.0934,143,114.528,135,-74.523,0\S,144,1.80736,143,110.74,135,46.9357,0\O,147,1.49763,144,107.1,143,52.3859,0\C,147,1.80736,144,97.3165,143,156.939,0\H,149,1.09255,147,108.134,144,-166.36,0\H,149,1.09287,147,112.215,144,69.7359,0\H,149,1.09335,147,106.844,144,-50.923,0\H,150,2.17648,149,131.561,147,-127.223,0\C,153,1.09281,150,136.263,149,123.526,0\H,154,1.09306,153,122.079,150,60.1699,0\H,154,1.09317,153,109.931,150,-168.091,0\S,154,1.80729,153,109.918,150,-62.2218,0\O,157,1.49651,154,103.655,153,-32.1059,0\C,157,1.80754,154,100.065,153,75.2544,0\H,159,1.09249,157,107.795,154,-162.868,0\H,159,1.09277,157,103.57,154,81.3511,0\H,159,1.0936,157,105.363,154,-36.426,0\H,62,2.26734,61,161.434,52,-17.7887,0\C,163,1.0934,62,97.602,61,-53.6953,0\H,164,1.09249,163,108.969,62,56.0749,0\H,164,1.09319,163,109.486,62,-66.6188,0\S,164,1.80676,163,102.541,62,172.584,0\O,167,1.49671,164,103.594,163,68.9424,0\C,167,1.80681,164,90.7858,163,174.524,0\H,169,1.09196,167,108.811,164,67.7757,0\H,169,1.09282,167,108.472,164,-163.417,0\H,169,1.09347,167,107.538,164,-45.5689,0\H,108,2.27352,107,146.191,104,-103.336,0\C,173,1.09303,108,152.26,107,-3.80429,0\H,174,1.09263,173,116.69,108,137.607,0\H,174,1.09361,173,101.802,108,23.6548,0\S,174,1.80729,173,107.615,108,-92.6972,0\O,177,1.49685,174,103.615,173,145.196,0\C,177,1.80594,174,97.8284,173,43.6619,0\H,179,1.09233,177,114.102,174,-175.53,0\H,179,1.09323,177,104.848,174,63.6154,0\H,179,1.09366,177,105.769,174,-54.7468,0\H,182,2.09791,179,155.368,177,-34.572,0\C,183,1.09268,182,101.074,179,-110.015,0\H,184,1.0935,183,110.165,182,-25.5597,0\H,184,1.09357,183,107.014,182,-142.878,0\S,184,1.80744,183,106.354,182,93.162,0\O,187,1.49662,184,103.318,183,72.7102,0\C,187,1.80669,184,92.9494,183,-179.622,0\H,189,1.09307,187,113.175,184,78.818,0\H,189,1.0934,187,106.101,184,-164.439,0\H,189,1.09383,187,108.571,184,-41.74,0\H,18,2.2755,17,101.344,15,104.451,0\C,193,1.09316,18,143.876,17,131.546,0\H,194,1.09313,193,103.432,18,178.218,0\H,194,1.09353,193,115.448,18,52.6678,0\S,194,1.80649,193,105.13,18,-65.8851,0\O,197,1.49689,194,103.224,193,54.0798,0\C,197,1.80692,194,104.798,193,155.452,0\H,199,1.09288,197,106.591,194,65.1821,0\H,199,1.09293,197,117.411,194,-52.6434,0\H,199,1.09314,197,111.954,194,174.819,0\H,162,2.29658,159,123.794,157,131.245,0\C,203,1.09275,162,107.01,159,-32.9335,0\H,204,1.09306,203,114.544,162,-30.7727,0\H,204,1.0934,203,114.621,162,87.5776,0\S,204,1.80677,203,102.951,162,-148.101,0\O,207,1.4965,204,100.819,203,178.364,0\C,207,1.80756,204,95.1446,203,69.8759,0\H,209,1.09252,207,110.948,204,39.797,0\H,209,1.09275,207,120.277,204,157.715,0\H,209,1.09307,207,111.262,204,-79.1611,0\H,2,2.37976,1,154.205,3,169.754,0\C,213,1.0934,2,161.555,1,-101.486,0\H,214,1.09273,213,111.632,2,-20.7125,0\H,214,1.09286,213,119.899,2,97.8851,0\S,214,1.80744,213,105.15,2,-142.413,0\O,217,1.49658,214,100.149,213,-77.9742,0\C,217,1.80709,214,93.9164,213,32.7609,0\H,219,1.09309,217,114.532,214,55.3325,0\H,219,1.09347,217,115.364,214,-79.9979,0\H,219,1.09356,217,110.461,214,163.825,0\H,218,2.2444,217,134.314,214,-51.5688,0\C,223,1.09271,218,138.628,217,15.8749,0\H,224,1.0929,223,112.027,218,165.7,0\H,224,1.09312,223,107.237,218,49.1224,0\S,224,1.80678,223,105.501,218,-71.7924,0\O,227,1.49605,224,103.758,223,-179.601,0\C,227,1.80697,224,98.2926,223,-67.5242,0\H,229,1.0925,227,113.899,224,177.771,0\H,229,1.0929,227,102.834,224,56.3707,0\H,229,1.09343,227,106.392,224,-59.3276,0\H,223,2.32733,218,63.6703,217,148.585,0\C,233,1.09303,223,107.425,218,-119.71,0\H,234,1.09235,233,108.317,223,-37.315,0\H,234,1.09342,233,113.783,223,77.5508,0\S,234,1.80752,233,104.79,223,-152.752,0\O,237,1.49711,234,97.9296,233,-178.934,0\C,237,1.80715,234,92.3945,233,-66.3335,0\H,239,1.09282,237,108.519,234,-42.0119,0\H,239,1.09299,237,116.259,234,77.1007,0\H,239,1.09337,237,105.441,234,-156.352,0\H,50,2.41164,47,136.176,45,-141.005,0\C,243,1.09304,50,103.009,47,122.908,0\H,244,1.09304,243,116.34,50,17.6595,0\H,244,1.09306,243,111.493,50,-109.416,0\S,244,1.80631,243,105.402,50,137.05,0\O,247,1.49697,244,103.227,243,70.1537,0\C,247,1.80758,244,100.387,243,179.947,0\H,249,1.09247,247,101.47,244,-52.718,0\H,249,1.09293,247,109.417,244,69.2553,0\H,249,1.09324,247,110.685,244,-170.382,0\H,246,2.41305,244,137.852,243,34.0045,0\C,253,1.09296,246,117.533,244,111.296,0\H,254,1.09312,253,112.577,246,150.862,0\H,254,1.09355,253,109.847,246,-93.5845,0\S,254,1.80716,253,109.056,246,25.4331,0\O,257,1.49659,254,105.013,253,-71.6576,0\C,257,1.80675,254,99.6545,253,175.86,0\H,259,1.09236,257,115.174,254,-76.4137,0\H,259,1.09318,257,104.306,254,49.7089,0\H,259,1.09329,257,110.699,254,166.326,0\H,253,2.34098,246,85.9097,244,-52.1501,0\C,263,1.09267,253,110.674,246,-71.0706,0\H,264,1.09267,263,107.45,253,23.8859,0\H,264,1.09318,263,112.743,253,-96.9455,0\S,264,1.8073,263,109.927,253,135.944,0\O,267,1.49682,264,103.311,263,-11.5366,0\C,267,1.80677,264,90.7357,263,94.5638,0\H,269,1.09229,267,108.291,264,73.418,0\H,269,1.09311,267,114.606,264,-52.0396,0\H,269,1.09322,267,93.8896,264,-175.462,0\O,266,2.41447,264,122.184,263,21.8531,0\S,273,1.49648,266,120.765,264,128.875,0\C,274,1.80747,273,102.351,266,20.4801,0\H,275,1.09267,274,107.608,273,-59.1217,0\H,275,1.09281,274,100.057,273,54.0452,0\H,275,1.09312,274,107.895,273,175.668,0\C,274,1.80761,273,109.5,266,-84.3981,0\H,279,1.09276,274,99.7343,273,42.424,0\H,279,1.09284,274,105.208,273,-72.0599,0\H,279,1.09327,274,110.51,273,161.581,0\H,273,2.37399,266,110.697,264,-111.328,0\C,283,1.09313,273,136.791,266,-25.4285,0\H,284,1.09225,283,111.702,273,171.171,0\H,284,1.09411,283,111.828,273,46.6347,0\S,284,1.80652,283,108.932,273,-79.9361,0\O,287,1.49709,284,102.18,283,-158.769,0\C,287,1.80709,284,99.09,283,-53.7399,0\H,289,1.09285,287,100.958,284,-30.7714,0\H,289,1.09289,287,105.876,284,86.5716,0\H,289,1.09312,287,113.496,284,-157.065,0\H,292,1.98789,289,108.6,287,-152.173,0\C,293,1.09292,292,173.588,289,41.1365,0\H,294,1.09229,293,112.583,292,-175.747,0\H,294,1.09355,293,106.271,292,57.2848,0\S,294,1.80684,293,109.416,292,-54.9084,0\O,297,1.49636,294,103.005,293,53.9886,0\C,297,1.80723,294,96.0034,293,-61.1861,0\H,299,1.09298,297,103.8,294,56.7505,0\H,299,1.09347,297,106.537,294,175.339,0\H,299,1.09366,297,106.288,294,-60.2119,0\H,290,2.29714,289,113.158,287,-122.644,0\C,303,1.09297,290,160.559,289,-131.974,0\H,304,1.09276,303,111.742,290,178.328,0\H,304,1.09285,303,111.159,290,50.9987,0\S,304,1.8062,303,105.709,290,-61.8845,0\O,307,1.4963,304,102.803,303,59.3231,0\C,307,1.80663,304,94.6506,303,-39.3246,0\H,309,1.09292,307,108.784,304,166.192,0\H,309,1.09299,307,108.116,304,48.2906,0\H,309,1.0935,307,108.83,304,-74.9137,0\H,255,2.45085,254,134.017,253,112.915,0\C,313,1.09342,255,102.826,254,-60.6253,0\H,314,1.09287,313,115.594,255,94.3565,0\H,314,1.09295,313,107.869,255,-40.0656,0\S,314,1.8071,313,99.6104,255,-153.837,0\O,317,1.49677,314,106.87,313,-78.2397,0\C,317,1.80707,314,97.5557,313,176.196,0\H,319,1.0921,317,98.7991,314,179.309,0\H,319,1.09338,317,106.958,314,67.4487,0\H,319,1.09354,317,110.201,314,-64.1127,0\O,260,2.47293,259,126.282,257,115.394,0\S,323,1.49754,260,119.113,259,78.3988,0\C,324,1.80594,323,99.2134,260,-92.6383,0\H,325,1.09288,324,108.71,323,-142.043,0\H,325,1.09314,324,106.264,323,-16.8754,0\H,325,1.09329,324,98.3034,323,99.3795,0\C,324,1.8067,323,105.165,260,172.199,0\H,329,1.0928,324,113.625,323,57.0712,0\H,329,1.09284,324,104.383,323,178.761,0\H,329,1.09352,324,99.7657,323,-70.551,0\\\@

 Total job time:  82.84s(wall), 294.10s(cpu) 
 Fri Mar 12 20:33:27 2021

        *************************************************************
        *                                                           *
        *  Thank you very much for using Q-Chem.  Have a nice day.  *
        *                                                           *
        *************************************************************


