                  Welcome to Q-Chem
     A Quantum Leap Into The Future Of Chemistry


 Q-Chem 5.2 (devel), Q-Chem, Inc., Pleasanton, CA (2019)

 Yihan Shao,  Zhengting Gan,  E. Epifanovsky,  A. T. B. Gilbert,  M. Wormit,  
 J. Kussmann,  A. W. Lange,  A. Behn,  Jia Deng,  Xintian Feng,  D. Ghosh,  
 M. Goldey,  P. R. Horn,  L. D. Jacobson,  I. Kaliman,  T. Kus,  A. Landau,  
 Jie Liu,  E. I. Proynov,  R. M. Richard,  R. P. Steele,  E. J. Sundstrom,  
 H. L. Woodcock III,  P. M. Zimmerman,  D. Zuev,  B. Alam,  B. Albrecht,  
 E. Alguire,  S. A. Baeppler,  D. Barton,  Z. Benda,  Y. A. Bernard,  
 E. J. Berquist,  K. B. Bravaya,  H. Burton,  K. Carter-Fenk,  D. Casanova,  
 Chun-Min Chang,  Yunqing Chen,  A. Chien,  K. D. Closser,  M. P. Coons,  
 S. Coriani,  S. Dasgupta,  A. L. Dempwolff,  M. Diedenhofen,  Hainam Do,  
 R. G. Edgar,  Po-Tung Fang,  S. Faraji,  S. Fatehi,  Qingguo Feng,  
 J. Fosso-Tande,  J. Gayvert,  Qinghui Ge,  A. Ghysels,  G. Gidofalvi,  
 J. Gomes,  J. Gonthier,  A. Gunina,  D. Hait,  M. W. D. Hanson-Heine,  
 P. H. P. Harbach,  A. W. Hauser,  M. F. Herbst,  J. E. Herr,  
 E. G. Hohenstein,  Z. C. Holden,  Kerwin Hui,  B. C. Huynh,  T.-C. Jagau,  
 Hyunjun Ji,  B. Kaduk,  K. Khistyaev,  Jaehoon Kim,  P. Klunzinger,  K. Koh,  
 D. Kosenkov,  L. Koulias,  T. Kowalczyk,  C. M. Krauter,  A. Kunitsa,  
 Ka Un Lao,  A. Laurent,  K. V. Lawler,  Joonho Lee,  D. Lefrancois,  
 S. Lehtola,  D. S. Levine,  Yi-Pei Li,  You-Sheng Lin,  Fenglai Liu,  
 Kuan-Yu Liu,  E. Livshits,  M. Loipersberger,  A. Luenser,  P. Manohar,  
 E. Mansoor,  S. F. Manzer,  Shan-Ping Mao,  Yuezhi Mao,  N. Mardirossian,  
 A. V. Marenich,  T. Markovich,  L. A. Martinez-Martinez,  S. A. Maurer,  
 N. J. Mayhall,  S. C. McKenzie,  J.-M. Mewes,  P. Morgante,  A. F. Morrison,  
 J. W. Mullinax,  K. Nanda,  T. S. Nguyen-Beck,  R. Olivares-Amaya,  
 J. A. Parkhill,  S. K. Paul,  F. Pavosevic,  Zheng Pei,  T. M. Perrine,  
 F. Plasser,  P. Pokhilko,  S. Prager,  A. Prociuk,  E. Ramos,  B. Rana,  
 D. R. Rehn,  F. Rob,  M. Scheurer,  M. Schneider,  N. Sergueev,  
 S. M. Sharada,  S. Sharma,  D. W. Small,  T. Stauch,  C. J. Stein,  
 T. Stein,  Yu-Chuan Su,  S. P. Veccham,  Zhen Tao,  A. J. W. Thom,  
 A. Tkatchenko,  T. Tsuchimochi,  N. M. Tubman,  L. Vogt,  M. L. Vidal,  
 O. Vydrov,  M. A. Watson,  J. Wenzel,  M. de Wergifosse,  T. A. Wesolowski,  
 A. White,  J. Witte,  A. Yamada,  Jun Yang,  K. Yao,  S. Yeganeh,  
 S. R. Yost,  Zhi-Qiang You,  A. Zech,  Igor Ying Zhang,  Xing Zhang,  
 Yan Zhao,  Ying Zhu,  B. R. Brooks,  G. K. L. Chan,  C. J. Cramer,  
 M. S. Gordon,  W. J. Hehre,  A. Klamt,  M. W. Schmidt,  C. D. Sherrill,  
 D. G. Truhlar,  A. Aspuru-Guzik,  R. Baer,  A. T. Bell,  N. A. Besley,  
 Jeng-Da Chai,  A. E. DePrince, III,  R. A. DiStasio Jr.,  A. Dreuw,  
 B. D. Dunietz,  T. R. Furlani,  Chao-Ping Hsu,  Yousung Jung,  Jing Kong,  
 D. S. Lambrecht,  WanZhen Liang,  C. Ochsenfeld,  V. A. Rassolov,  
 L. V. Slipchenko,  J. E. Subotnik,  T. Van Voorhis,  J. M. Herbert,  
 A. I. Krylov,  P. M. W. Gill,  M. Head-Gordon

 Contributors to earlier versions of Q-Chem not listed above: 
 R. D. Adamson,  B. Austin,  J. Baker,  G. J. O. Beran,  K. Brandhorst,  
 S. T. Brown,  E. F. C. Byrd,  A. K. Chakraborty,  C.-L. Cheng,  
 Siu Hung Chien,  D. M. Chipman,  D. L. Crittenden,  H. Dachsel,  
 R. J. Doerksen,  A. D. Dutoi,  L. Fusti-Molnar,  W. A. Goddard III,  
 A. Golubeva-Zadorozhnaya,  S. R. Gwaltney,  G. Hawkins,  A. Heyden,  
 S. Hirata,  G. Kedziora,  F. J. Keil,  C. Kelley,  Jihan Kim,  R. A. King,  
 R. Z. Khaliullin,  P. P. Korambath,  W. Kurlancheek,  A. M. Lee,  M. S. Lee,  
 S. V. Levchenko,  Ching Yeh Lin,  D. Liotard,  R. C. Lochan,  I. Lotan,  
 P. E. Maslen,  N. Nair,  D. P. O'Neill,  D. Neuhauser,  E. Neuscamman,  
 C. M. Oana,  R. Olson,  B. Peters,  R. Peverati,  P. A. Pieniazek,  
 Y. M. Rhee,  J. Ritchie,  M. A. Rohrdanz,  E. Rosta,  N. J. Russ,  
 H. F. Schaefer III,  N. E. Schultz,  N. Shenvi,  A. C. Simmonett,  A. Sodt,  
 D. Stuck,  K. S. Thanthiriwatte,  V. Vanovschi,  Tao Wang,  A. Warshel,  
 C. F. Williams,  Q. Wu,  X. Xu,  W. Zhang

 Please cite Q-Chem as follows:
 Y. Shao et al., Mol. Phys. 113, 184-215 (2015)
 DOI: 10.1080/00268976.2014.952696

 Q-Chem 5.2.2 for Intel X86 EM64T Linux

 Parts of Q-Chem use Armadillo 9.800.1 (Horizon Scraper).
 http://arma.sourceforge.net/

 Q-Chem begins on Thu Mar 11 13:37:37 2021  

Host: n0077.mhg0
0

     Scratch files written to /local/scratch/users/ymao/r7.00_frame_0025_almo_B3LYP_dp.in20210311133733//

Checking the input file for inconsistencies... 	...done.

--------------------------------------------------------------
User input:
--------------------------------------------------------------
$molecule
0 1
--
0 1
C    24.78200   18.02900   26.00800  
C    25.25800   16.63600   25.56200  
C    26.65400   16.32100   26.12600  
C    26.67300   16.46500   27.65700  
C    26.22000   17.89300   28.00400  
C    24.81100   18.27600   27.52500  
H    26.94700   15.27400   25.98300  
H    24.51400   15.91500   25.92100  
H    25.42500   18.78300   25.53800  
H    23.77300   18.20800   25.61800  
H    25.96400   15.80200   28.16700  
H    27.66500   16.18300   28.03000  
H    26.31200   17.90500   29.09700  
H    26.93400   18.67500   27.71900  
H    24.12500   17.54200   27.96600  
H    24.61700   19.30600   27.84800  
H    27.49100   16.88700   25.70000  
N    25.29300   16.72000   24.10300  
H    25.66900   17.57800   23.71900  
C    25.48200   15.57800   23.35300  
H    26.05000   15.75200   22.42100  
O    25.12700   14.46700   23.70500  
--
0 1
C    19.83100   23.03500   31.84600  
H    19.03500   23.56100   32.38000  
H    20.73800   23.00200   32.45500  
H    20.02600   23.60000   30.93100  
S    19.08100   21.48500   31.29800  
C    20.48700   20.97500   30.28400  
H    20.72300   21.81400   29.62500  
H    21.31000   20.64500   30.92300  
H    20.10500   20.17100   29.65000  
O    18.16900   21.91800   30.19300  
C    19.28800   20.13500   21.25900  
H    20.26700   19.65500   21.32700  
H    18.51300   19.49800   21.69300  
H    18.98700   20.58400   20.30900  
S    19.61100   21.50000   22.39900  
C    20.18000   22.60400   21.08700  
H    21.07300   22.20100   20.60200  
H    19.42100   22.73900   20.31300  
H    20.39700   23.55200   21.58700  
O    20.82000   21.26800   23.25100  
C    29.03400   19.10100   29.65000  
H    29.31500   19.81200   30.43100  
H    29.15100   19.55800   28.66400  
H    28.00100   18.76400   29.77100  
S    30.18600   17.70900   29.60800  
C    30.22100   17.36300   31.38100  
H    31.25500   17.08600   31.60100  
H    30.09900   18.26800   31.98200  
H    29.61100   16.49100   31.63100  
O    31.53100   18.28700   29.29500  
C    23.29300   10.70900   17.49700  
H    23.49500   10.00600   18.30900  
H    22.32500   11.16600   17.72100  
H    23.28900   10.10000   16.59000  
S    24.59900   11.94500   17.32000  
C    24.02800   12.35700   15.65600  
H    24.22200   11.63200   14.86100  
H    22.96300   12.49400   15.86000  
H    24.37200   13.34200   15.32900  
O    25.90200   11.24000   17.10400  
C    29.03700   10.79100   27.01000  
H    29.70100   10.40600   26.23200  
H    29.45800   11.37300   27.83400  
H    28.61400   9.85100    27.37400  
S    27.88700   11.73000   25.98000  
C    27.08300   10.29300   25.23700  
H    26.94200   9.62400    26.09100  
H    26.18000   10.71000   24.78500  
H    27.69000   9.89700    24.41900  
O    28.78300   12.39200   24.97900  
C    27.25600   22.77200   28.73700  
H    26.78900   23.69400   28.38200  
H    27.68700   22.21700   27.90000  
H    26.45700   22.18900   29.20100  
S    28.32500   23.34200   30.07800  
C    29.24500   24.53500   29.07900  
H    30.12600   24.87700   29.62800  
H    29.55500   24.07300   28.13800  
H    28.59800   25.38200   28.83600  
O    29.33500   22.25500   30.27400  
C    21.32800   17.52200   32.17000  
H    20.31400   17.13900   32.31200  
H    21.34600   18.60300   32.32600  
H    21.68300   17.31700   31.15700  
S    22.56400   16.78300   33.26100  
C    22.61100   15.10000   32.60400  
H    23.06000   15.11300   31.60800  
H    23.15800   14.42300   33.26600  
H    21.61800   14.64300   32.61900  
O    21.76700   16.71600   34.52600  
C    29.07600   14.17700   20.45500  
H    28.01500   14.38000   20.62100  
H    29.67700   15.01700   20.09700  
H    29.14400   13.30000   19.80600  
S    29.77100   13.69200   22.05100  
C    29.04800   14.93300   23.14800  
H    29.21600   14.58300   24.16900  
H    29.52700   15.91200   23.06500  
H    27.98300   14.87400   22.90800  
O    31.20800   14.07600   21.88800  
C    27.94300   22.30200   33.73700  
H    28.67100   22.06700   34.51800  
H    28.34400   23.21400   33.28700  
H    26.95400   22.48000   34.16800  
S    27.89400   20.85100   32.66100  
C    26.14300   20.98200   32.23300  
H    25.82100   21.91700   31.76700  
H    25.85800   20.09200   31.66600  
H    25.71900   21.02700   33.23900  
O    27.74200   19.76600   33.68200  
C    33.48100   21.44700   26.80400  
H    32.64400   21.04100   26.23000  
H    33.21200   22.50600   26.83300  
H    34.45100   21.20700   26.36100  
S    33.43700   20.99000   28.55200  
C    31.70800   21.44600   28.81300  
H    30.99000   20.96200   28.14600  
H    31.39900   21.12900   29.81200  
H    31.59700   22.53300   28.85100  
O    34.12800   22.21700   29.05800  
C    31.26000   14.20600   29.89700  
H    31.40500   15.27900   29.74300  
H    31.33000   13.88500   30.93900  
H    31.97400   13.62000   29.31200  
S    29.59100   13.88800   29.28100  
C    29.92000   14.45900   27.59900  
H    29.06900   14.28000   26.93800  
H    30.09600   15.53000   27.73300  
H    30.77500   13.86900   27.25900  
O    28.71900   14.95700   29.86200  
C    23.80300   16.06600   19.42000  
H    24.21300   16.48100   20.34500  
H    24.36100   16.57600   18.63100  
H    22.71800   16.18400   19.35600  
S    24.27300   14.32700   19.56500  
C    23.15400   13.84400   20.90000  
H    22.94300   12.77400   20.96400  
H    23.63200   14.13200   21.84000  
H    22.23000   14.40200   20.72800  
O    25.58000   14.33700   20.29400  
C    23.30900   26.97000   29.33100  
H    23.84000   27.63900   30.01300  
H    23.57200   26.97600   28.27000  
H    22.25900   27.17800   29.55100  
S    23.59900   25.30700   29.97600  
C    23.12000   25.70700   31.67200  
H    23.49900   24.89700   32.30100  
H    23.66200   26.60700   31.97500  
H    22.04800   25.90700   31.60600  
O    25.09600   25.27500   30.01200  
C    24.58100   21.31500   21.96300  
H    24.31000   21.33500   23.02100  
H    25.41500   21.96800   21.69200  
H    23.66900   21.56900   21.41600  
S    24.98400   19.60100   21.55700  
C    23.48900   18.88900   22.28000  
H    22.72600   19.58400   21.92100  
H    23.36900   17.84800   21.96900  
H    23.50100   18.89600   23.37300  
O    26.13500   19.26600   22.45300  
C    21.98400   23.19200   26.10900  
H    21.14000   23.62100   26.65600  
H    22.38300   23.98600   25.47200  
H    21.70600   22.29800   25.54500  
S    23.39200   22.66600   27.11300  
C    24.35500   21.90200   25.78900  
H    25.12000   21.22300   26.17400  
H    23.69300   21.22600   25.24200  
H    24.82900   22.65000   25.14800  
O    23.02100   21.44200   27.89200  
C    20.22100   16.05300   28.94800  
H    20.79800   16.30500   29.84100  
H    19.47100   16.81900   28.73300  
H    19.63800   15.14200   29.11100  
S    21.40000   15.80400   27.60100  
C    20.20100   14.92800   26.57100  
H    19.30100   15.54500   26.50300  
H    20.52900   14.85100   25.53100  
H    20.00100   13.98400   27.08400  
O    22.36700   14.81400   28.16900  
C    22.48700   9.20700    21.14000  
H    22.75000   9.04100    20.09200  
H    23.32400   9.66200    21.67700  
H    22.20200   8.26800    21.62000  
S    21.01100   10.24800   21.17300  
C    19.99200   8.91300    20.50500  
H    19.84600   8.17300    21.29600  
H    19.05300   9.39700    20.22800  
H    20.48600   8.49900    19.62200  
O    21.15800   11.03100   19.90500  
C    27.19200   17.56200   18.88000  
H    26.56100   17.52200   17.98800  
H    27.75400   16.65300   19.11100  
H    26.56800   17.76800   19.75300  
S    28.29200   18.95300   18.53800  
C    28.97700   18.94900   20.21000  
H    29.67400   18.11200   20.30200  
H    29.55200   19.85000   20.44100  
H    28.14800   18.86300   20.91600  
O    27.43300   20.17600   18.62300  
C    26.47700   16.54900   32.08300  
H    26.72300   15.89800   31.23900  
H    25.50300   17.01900   31.92900  
H    27.27700   17.25300   32.32600  
S    26.37200   15.69500   33.67200  
C    28.13600   15.38600   33.91100  
H    28.54300   14.96200   32.99000  
H    28.73200   16.29200   34.05000  
H    28.15900   14.76700   34.81200  
O    25.86800   14.30500   33.43700  
C    29.03400   18.49400   24.14300  
H    29.34100   19.12900   23.30900  
H    29.86800   17.86200   24.46100  
H    28.22900   17.85300   23.77300  
S    28.46700   19.51200   25.52400  
C    28.15500   20.97400   24.50800  
H    27.93400   21.86800   25.09700  
H    29.02900   21.20600   23.89400  
H    27.28300   20.70400   23.90800  
O    29.74800   19.85800   26.21700  
C    25.25700   13.46300   30.27500  
H    26.09600   14.06000   29.90800  
H    24.32100   13.59200   29.72700  
H    24.96200   13.65000   31.31100  
S    25.80700   11.75400   30.07400  
C    26.87200   11.79600   31.53400  
H    27.45100   10.89200   31.74300  
H    27.57300   12.58600   31.25600  
H    26.30500   12.23300   32.36000  
O    26.62100   11.69600   28.81900  
C    24.45100   20.01200   17.71800  
H    24.40400   20.89500   18.36100  
H    25.11200   19.20400   18.04300  
H    24.52300   20.16100   16.63800  
S    22.74100   19.45800   17.89900  
C    22.07100   21.02000   17.28600  
H    22.65300   21.80300   17.78000  
H    22.11300   21.09200   16.19600  
H    21.04600   21.21500   17.61200  
O    22.63100   19.43100   19.39200  
C    23.46200   11.78500   26.89600  
H    23.29300   12.78500   27.30300  
H    22.53500   11.20700   26.93400  
H    24.32500   11.32800   27.38700  
S    23.92200   11.76000   25.14900  
C    22.60600   12.87000   24.60200  
H    21.63900   12.41500   24.83000  
H    22.75100   13.81100   25.13900  
H    22.54600   12.94000   23.51200  
O    23.57800   10.39000   24.65400  
C    26.37900   10.98500   22.10100  
H    26.88900   11.83800   22.55500  
H    25.31200   10.95000   22.33500  
H    26.91100   10.09200   22.43900  
S    26.61500   11.16700   20.31800  
C    26.11400   9.48400    19.89000  
H    25.04700   9.26000    19.81400  
H    26.52100   9.21100    18.91300  
H    26.53000   8.78000    20.61600  
O    28.10100   11.21900   20.14200  
C    20.85400   18.95500   26.08000  
H    20.46900   19.96800   25.93900  
H    20.21300   18.29300   26.66800  
H    21.86800   19.09400   26.46300  
S    20.90000   18.28600   24.40200  
C    19.15700   17.80600   24.40400  
H    18.59300   18.73500   24.52300  
H    18.98600   17.25800   23.47400  
H    18.97300   17.10600   25.22300  
O    21.60100   16.96800   24.50500  
$end

$rem
JOBTYPE  SP
METHOD  B3LYP
BASIS  6-31+G(D)
SYMMETRY  FALSE
SYM_IGNORE  TRUE
MEM_TOTAL  16000
MEM_STATIC  8000
MAX_SUB_FILE_NUM  16000
BASIS_LIN_DEP_THRESH  6
THRESH  14
SCF_CONVERGENCE  8
GEN_SCFMAN  TRUE
SCF_GUESS  FRAGMO
FD_MAT_VEC_PROD  FALSE
XC_GRID  000075000302
NL_GRID  1
MAX_SCF_CYCLES  200
FRGM_METHOD  STOLL
SCFMI_MODE  1
$end

$development
almo_efield  1
$end

$rem_frgm
SCF_CONVERGENCE  4
$end

--------------------------------------------------------------
 ----------------------------------------------------------------
             Standard Nuclear Orientation (Angstroms)
    I     Atom           X                Y                Z
 ----------------------------------------------------------------
    1      C      24.7820000000    18.0290000000    26.0080000000
    2      C      25.2580000000    16.6360000000    25.5620000000
    3      C      26.6540000000    16.3210000000    26.1260000000
    4      C      26.6730000000    16.4650000000    27.6570000000
    5      C      26.2200000000    17.8930000000    28.0040000000
    6      C      24.8110000000    18.2760000000    27.5250000000
    7      H      26.9470000000    15.2740000000    25.9830000000
    8      H      24.5140000000    15.9150000000    25.9210000000
    9      H      25.4250000000    18.7830000000    25.5380000000
   10      H      23.7730000000    18.2080000000    25.6180000000
   11      H      25.9640000000    15.8020000000    28.1670000000
   12      H      27.6650000000    16.1830000000    28.0300000000
   13      H      26.3120000000    17.9050000000    29.0970000000
   14      H      26.9340000000    18.6750000000    27.7190000000
   15      H      24.1250000000    17.5420000000    27.9660000000
   16      H      24.6170000000    19.3060000000    27.8480000000
   17      H      27.4910000000    16.8870000000    25.7000000000
   18      N      25.2930000000    16.7200000000    24.1030000000
   19      H      25.6690000000    17.5780000000    23.7190000000
   20      C      25.4820000000    15.5780000000    23.3530000000
   21      H      26.0500000000    15.7520000000    22.4210000000
   22      O      25.1270000000    14.4670000000    23.7050000000
   23      C      19.8310000000    23.0350000000    31.8460000000
   24      H      19.0350000000    23.5610000000    32.3800000000
   25      H      20.7380000000    23.0020000000    32.4550000000
   26      H      20.0260000000    23.6000000000    30.9310000000
   27      S      19.0810000000    21.4850000000    31.2980000000
   28      C      20.4870000000    20.9750000000    30.2840000000
   29      H      20.7230000000    21.8140000000    29.6250000000
   30      H      21.3100000000    20.6450000000    30.9230000000
   31      H      20.1050000000    20.1710000000    29.6500000000
   32      O      18.1690000000    21.9180000000    30.1930000000
   33      C      19.2880000000    20.1350000000    21.2590000000
   34      H      20.2670000000    19.6550000000    21.3270000000
   35      H      18.5130000000    19.4980000000    21.6930000000
   36      H      18.9870000000    20.5840000000    20.3090000000
   37      S      19.6110000000    21.5000000000    22.3990000000
   38      C      20.1800000000    22.6040000000    21.0870000000
   39      H      21.0730000000    22.2010000000    20.6020000000
   40      H      19.4210000000    22.7390000000    20.3130000000
   41      H      20.3970000000    23.5520000000    21.5870000000
   42      O      20.8200000000    21.2680000000    23.2510000000
   43      C      29.0340000000    19.1010000000    29.6500000000
   44      H      29.3150000000    19.8120000000    30.4310000000
   45      H      29.1510000000    19.5580000000    28.6640000000
   46      H      28.0010000000    18.7640000000    29.7710000000
   47      S      30.1860000000    17.7090000000    29.6080000000
   48      C      30.2210000000    17.3630000000    31.3810000000
   49      H      31.2550000000    17.0860000000    31.6010000000
   50      H      30.0990000000    18.2680000000    31.9820000000
   51      H      29.6110000000    16.4910000000    31.6310000000
   52      O      31.5310000000    18.2870000000    29.2950000000
   53      C      23.2930000000    10.7090000000    17.4970000000
   54      H      23.4950000000    10.0060000000    18.3090000000
   55      H      22.3250000000    11.1660000000    17.7210000000
   56      H      23.2890000000    10.1000000000    16.5900000000
   57      S      24.5990000000    11.9450000000    17.3200000000
   58      C      24.0280000000    12.3570000000    15.6560000000
   59      H      24.2220000000    11.6320000000    14.8610000000
   60      H      22.9630000000    12.4940000000    15.8600000000
   61      H      24.3720000000    13.3420000000    15.3290000000
   62      O      25.9020000000    11.2400000000    17.1040000000
   63      C      29.0370000000    10.7910000000    27.0100000000
   64      H      29.7010000000    10.4060000000    26.2320000000
   65      H      29.4580000000    11.3730000000    27.8340000000
   66      H      28.6140000000     9.8510000000    27.3740000000
   67      S      27.8870000000    11.7300000000    25.9800000000
   68      C      27.0830000000    10.2930000000    25.2370000000
   69      H      26.9420000000     9.6240000000    26.0910000000
   70      H      26.1800000000    10.7100000000    24.7850000000
   71      H      27.6900000000     9.8970000000    24.4190000000
   72      O      28.7830000000    12.3920000000    24.9790000000
   73      C      27.2560000000    22.7720000000    28.7370000000
   74      H      26.7890000000    23.6940000000    28.3820000000
   75      H      27.6870000000    22.2170000000    27.9000000000
   76      H      26.4570000000    22.1890000000    29.2010000000
   77      S      28.3250000000    23.3420000000    30.0780000000
   78      C      29.2450000000    24.5350000000    29.0790000000
   79      H      30.1260000000    24.8770000000    29.6280000000
   80      H      29.5550000000    24.0730000000    28.1380000000
   81      H      28.5980000000    25.3820000000    28.8360000000
   82      O      29.3350000000    22.2550000000    30.2740000000
   83      C      21.3280000000    17.5220000000    32.1700000000
   84      H      20.3140000000    17.1390000000    32.3120000000
   85      H      21.3460000000    18.6030000000    32.3260000000
   86      H      21.6830000000    17.3170000000    31.1570000000
   87      S      22.5640000000    16.7830000000    33.2610000000
   88      C      22.6110000000    15.1000000000    32.6040000000
   89      H      23.0600000000    15.1130000000    31.6080000000
   90      H      23.1580000000    14.4230000000    33.2660000000
   91      H      21.6180000000    14.6430000000    32.6190000000
   92      O      21.7670000000    16.7160000000    34.5260000000
   93      C      29.0760000000    14.1770000000    20.4550000000
   94      H      28.0150000000    14.3800000000    20.6210000000
   95      H      29.6770000000    15.0170000000    20.0970000000
   96      H      29.1440000000    13.3000000000    19.8060000000
   97      S      29.7710000000    13.6920000000    22.0510000000
   98      C      29.0480000000    14.9330000000    23.1480000000
   99      H      29.2160000000    14.5830000000    24.1690000000
  100      H      29.5270000000    15.9120000000    23.0650000000
  101      H      27.9830000000    14.8740000000    22.9080000000
  102      O      31.2080000000    14.0760000000    21.8880000000
  103      C      27.9430000000    22.3020000000    33.7370000000
  104      H      28.6710000000    22.0670000000    34.5180000000
  105      H      28.3440000000    23.2140000000    33.2870000000
  106      H      26.9540000000    22.4800000000    34.1680000000
  107      S      27.8940000000    20.8510000000    32.6610000000
  108      C      26.1430000000    20.9820000000    32.2330000000
  109      H      25.8210000000    21.9170000000    31.7670000000
  110      H      25.8580000000    20.0920000000    31.6660000000
  111      H      25.7190000000    21.0270000000    33.2390000000
  112      O      27.7420000000    19.7660000000    33.6820000000
  113      C      33.4810000000    21.4470000000    26.8040000000
  114      H      32.6440000000    21.0410000000    26.2300000000
  115      H      33.2120000000    22.5060000000    26.8330000000
  116      H      34.4510000000    21.2070000000    26.3610000000
  117      S      33.4370000000    20.9900000000    28.5520000000
  118      C      31.7080000000    21.4460000000    28.8130000000
  119      H      30.9900000000    20.9620000000    28.1460000000
  120      H      31.3990000000    21.1290000000    29.8120000000
  121      H      31.5970000000    22.5330000000    28.8510000000
  122      O      34.1280000000    22.2170000000    29.0580000000
  123      C      31.2600000000    14.2060000000    29.8970000000
  124      H      31.4050000000    15.2790000000    29.7430000000
  125      H      31.3300000000    13.8850000000    30.9390000000
  126      H      31.9740000000    13.6200000000    29.3120000000
  127      S      29.5910000000    13.8880000000    29.2810000000
  128      C      29.9200000000    14.4590000000    27.5990000000
  129      H      29.0690000000    14.2800000000    26.9380000000
  130      H      30.0960000000    15.5300000000    27.7330000000
  131      H      30.7750000000    13.8690000000    27.2590000000
  132      O      28.7190000000    14.9570000000    29.8620000000
  133      C      23.8030000000    16.0660000000    19.4200000000
  134      H      24.2130000000    16.4810000000    20.3450000000
  135      H      24.3610000000    16.5760000000    18.6310000000
  136      H      22.7180000000    16.1840000000    19.3560000000
  137      S      24.2730000000    14.3270000000    19.5650000000
  138      C      23.1540000000    13.8440000000    20.9000000000
  139      H      22.9430000000    12.7740000000    20.9640000000
  140      H      23.6320000000    14.1320000000    21.8400000000
  141      H      22.2300000000    14.4020000000    20.7280000000
  142      O      25.5800000000    14.3370000000    20.2940000000
  143      C      23.3090000000    26.9700000000    29.3310000000
  144      H      23.8400000000    27.6390000000    30.0130000000
  145      H      23.5720000000    26.9760000000    28.2700000000
  146      H      22.2590000000    27.1780000000    29.5510000000
  147      S      23.5990000000    25.3070000000    29.9760000000
  148      C      23.1200000000    25.7070000000    31.6720000000
  149      H      23.4990000000    24.8970000000    32.3010000000
  150      H      23.6620000000    26.6070000000    31.9750000000
  151      H      22.0480000000    25.9070000000    31.6060000000
  152      O      25.0960000000    25.2750000000    30.0120000000
  153      C      24.5810000000    21.3150000000    21.9630000000
  154      H      24.3100000000    21.3350000000    23.0210000000
  155      H      25.4150000000    21.9680000000    21.6920000000
  156      H      23.6690000000    21.5690000000    21.4160000000
  157      S      24.9840000000    19.6010000000    21.5570000000
  158      C      23.4890000000    18.8890000000    22.2800000000
  159      H      22.7260000000    19.5840000000    21.9210000000
  160      H      23.3690000000    17.8480000000    21.9690000000
  161      H      23.5010000000    18.8960000000    23.3730000000
  162      O      26.1350000000    19.2660000000    22.4530000000
  163      C      21.9840000000    23.1920000000    26.1090000000
  164      H      21.1400000000    23.6210000000    26.6560000000
  165      H      22.3830000000    23.9860000000    25.4720000000
  166      H      21.7060000000    22.2980000000    25.5450000000
  167      S      23.3920000000    22.6660000000    27.1130000000
  168      C      24.3550000000    21.9020000000    25.7890000000
  169      H      25.1200000000    21.2230000000    26.1740000000
  170      H      23.6930000000    21.2260000000    25.2420000000
  171      H      24.8290000000    22.6500000000    25.1480000000
  172      O      23.0210000000    21.4420000000    27.8920000000
  173      C      20.2210000000    16.0530000000    28.9480000000
  174      H      20.7980000000    16.3050000000    29.8410000000
  175      H      19.4710000000    16.8190000000    28.7330000000
  176      H      19.6380000000    15.1420000000    29.1110000000
  177      S      21.4000000000    15.8040000000    27.6010000000
  178      C      20.2010000000    14.9280000000    26.5710000000
  179      H      19.3010000000    15.5450000000    26.5030000000
  180      H      20.5290000000    14.8510000000    25.5310000000
  181      H      20.0010000000    13.9840000000    27.0840000000
  182      O      22.3670000000    14.8140000000    28.1690000000
  183      C      22.4870000000     9.2070000000    21.1400000000
  184      H      22.7500000000     9.0410000000    20.0920000000
  185      H      23.3240000000     9.6620000000    21.6770000000
  186      H      22.2020000000     8.2680000000    21.6200000000
  187      S      21.0110000000    10.2480000000    21.1730000000
  188      C      19.9920000000     8.9130000000    20.5050000000
  189      H      19.8460000000     8.1730000000    21.2960000000
  190      H      19.0530000000     9.3970000000    20.2280000000
  191      H      20.4860000000     8.4990000000    19.6220000000
  192      O      21.1580000000    11.0310000000    19.9050000000
  193      C      27.1920000000    17.5620000000    18.8800000000
  194      H      26.5610000000    17.5220000000    17.9880000000
  195      H      27.7540000000    16.6530000000    19.1110000000
  196      H      26.5680000000    17.7680000000    19.7530000000
  197      S      28.2920000000    18.9530000000    18.5380000000
  198      C      28.9770000000    18.9490000000    20.2100000000
  199      H      29.6740000000    18.1120000000    20.3020000000
  200      H      29.5520000000    19.8500000000    20.4410000000
  201      H      28.1480000000    18.8630000000    20.9160000000
  202      O      27.4330000000    20.1760000000    18.6230000000
  203      C      26.4770000000    16.5490000000    32.0830000000
  204      H      26.7230000000    15.8980000000    31.2390000000
  205      H      25.5030000000    17.0190000000    31.9290000000
  206      H      27.2770000000    17.2530000000    32.3260000000
  207      S      26.3720000000    15.6950000000    33.6720000000
  208      C      28.1360000000    15.3860000000    33.9110000000
  209      H      28.5430000000    14.9620000000    32.9900000000
  210      H      28.7320000000    16.2920000000    34.0500000000
  211      H      28.1590000000    14.7670000000    34.8120000000
  212      O      25.8680000000    14.3050000000    33.4370000000
  213      C      29.0340000000    18.4940000000    24.1430000000
  214      H      29.3410000000    19.1290000000    23.3090000000
  215      H      29.8680000000    17.8620000000    24.4610000000
  216      H      28.2290000000    17.8530000000    23.7730000000
  217      S      28.4670000000    19.5120000000    25.5240000000
  218      C      28.1550000000    20.9740000000    24.5080000000
  219      H      27.9340000000    21.8680000000    25.0970000000
  220      H      29.0290000000    21.2060000000    23.8940000000
  221      H      27.2830000000    20.7040000000    23.9080000000
  222      O      29.7480000000    19.8580000000    26.2170000000
  223      C      25.2570000000    13.4630000000    30.2750000000
  224      H      26.0960000000    14.0600000000    29.9080000000
  225      H      24.3210000000    13.5920000000    29.7270000000
  226      H      24.9620000000    13.6500000000    31.3110000000
  227      S      25.8070000000    11.7540000000    30.0740000000
  228      C      26.8720000000    11.7960000000    31.5340000000
  229      H      27.4510000000    10.8920000000    31.7430000000
  230      H      27.5730000000    12.5860000000    31.2560000000
  231      H      26.3050000000    12.2330000000    32.3600000000
  232      O      26.6210000000    11.6960000000    28.8190000000
  233      C      24.4510000000    20.0120000000    17.7180000000
  234      H      24.4040000000    20.8950000000    18.3610000000
  235      H      25.1120000000    19.2040000000    18.0430000000
  236      H      24.5230000000    20.1610000000    16.6380000000
  237      S      22.7410000000    19.4580000000    17.8990000000
  238      C      22.0710000000    21.0200000000    17.2860000000
  239      H      22.6530000000    21.8030000000    17.7800000000
  240      H      22.1130000000    21.0920000000    16.1960000000
  241      H      21.0460000000    21.2150000000    17.6120000000
  242      O      22.6310000000    19.4310000000    19.3920000000
  243      C      23.4620000000    11.7850000000    26.8960000000
  244      H      23.2930000000    12.7850000000    27.3030000000
  245      H      22.5350000000    11.2070000000    26.9340000000
  246      H      24.3250000000    11.3280000000    27.3870000000
  247      S      23.9220000000    11.7600000000    25.1490000000
  248      C      22.6060000000    12.8700000000    24.6020000000
  249      H      21.6390000000    12.4150000000    24.8300000000
  250      H      22.7510000000    13.8110000000    25.1390000000
  251      H      22.5460000000    12.9400000000    23.5120000000
  252      O      23.5780000000    10.3900000000    24.6540000000
  253      C      26.3790000000    10.9850000000    22.1010000000
  254      H      26.8890000000    11.8380000000    22.5550000000
  255      H      25.3120000000    10.9500000000    22.3350000000
  256      H      26.9110000000    10.0920000000    22.4390000000
  257      S      26.6150000000    11.1670000000    20.3180000000
  258      C      26.1140000000     9.4840000000    19.8900000000
  259      H      25.0470000000     9.2600000000    19.8140000000
  260      H      26.5210000000     9.2110000000    18.9130000000
  261      H      26.5300000000     8.7800000000    20.6160000000
  262      O      28.1010000000    11.2190000000    20.1420000000
  263      C      20.8540000000    18.9550000000    26.0800000000
  264      H      20.4690000000    19.9680000000    25.9390000000
  265      H      20.2130000000    18.2930000000    26.6680000000
  266      H      21.8680000000    19.0940000000    26.4630000000
  267      S      20.9000000000    18.2860000000    24.4020000000
  268      C      19.1570000000    17.8060000000    24.4040000000
  269      H      18.5930000000    18.7350000000    24.5230000000
  270      H      18.9860000000    17.2580000000    23.4740000000
  271      H      18.9730000000    17.1060000000    25.2230000000
  272      O      21.6010000000    16.9680000000    24.5050000000
 ----------------------------------------------------------------
 Nuclear Repulsion Energy =       42087.50046684 hartrees
 There are      560 alpha and      560 beta electrons
 Requested basis set is 6-31+G(d)
 There are 896 shells and 2497 basis functions

 Total QAlloc Memory Limit  16000 MB
 Mega-Array Size      7821 MB
 MEM_STATIC part      8000 MB
 A cutoff of  1.0D-14 yielded 154168 shell pairs
 There are   1337518 function pairs
 Smallest overlap matrix eigenvalue = 4.78E-07
 Linear dependence detected in AO basis
 Tighter screening thresholds may be required for diffuse basis sets
 Use S2THRESH > 14 and THRESH = 14 in case of SCF convergence issues
 Number of orthogonalized atomic orbitals = 2495
 Maximum deviation from orthogonality = 1.673E-10

 Scale SEOQF with 1.000000e-03/1.000000e-03/1.000000e-03

 Standard Electronic Orientation quadrupole field applied
 Nucleus-field energy     =    -0.0000003127 hartrees
Attempting to make child job directory: /local/scratch/users/ymao/r7.00_frame_0025_almo_B3LYP_dp.in20210311133733//Frg1/
Attempting to make child job directory: /local/scratch/users/ymao/r7.00_frame_0025_almo_B3LYP_dp.in20210311133733//Frg2/
Creating input file /local/scratch/users/ymao/r7.00_frame_0025_almo_B3LYP_dp.in20210311133733/Frg1.input
using default PutDataFrgm: nothing
calling putenv with: QCSCRATCH=/local/scratch/users/ymao/r7.00_frame_0025_almo_B3LYP_dp.in20210311133733/ 
Spawning Job For Fragment 0
Done Job For Fragment 0
calling putenv with: QCSCRATCH=/local/scratch/users/ymao 
calling putenv with: QCTHREADS=8 
Creating input file /local/scratch/users/ymao/r7.00_frame_0025_almo_B3LYP_dp.in20210311133733/Frg2.input
using default PutDataFrgm: nothing
calling putenv with: QCSCRATCH=/local/scratch/users/ymao/r7.00_frame_0025_almo_B3LYP_dp.in20210311133733/ 
Spawning Job For Fragment 1
Done Job For Fragment 1
calling putenv with: QCSCRATCH=/local/scratch/users/ymao 
calling putenv with: QCTHREADS=8 
 Time for running child jobs:  CPU 1.08 s  wall 19840.59 s

 -----------------------------------------------------------------------
  General SCF calculation program by
  Eric Jon Sundstrom, Paul Horn, Yuezhi Mao, Dmitri Zuev, Alec White,
  David Stuck, Shaama M.S., Shane Yost, Joonho Lee, David Small,
  Daniel Levine, Susi Lehtola, Hugh Burton, Evgeny Epifanovsky,
  Bang C. Huynh
 -----------------------------------------------------------------------
Performing Restricted Closed Shell SCFMI
Doing General SCFMI
 Exchange:     0.2000 Hartree-Fock + 0.0800 Slater + 0.7200 B88
 Correlation:  0.1900 VWN1RPA + 0.8100 LYP
 Using Euler-Maclaurin-Lebedev (75,302) quadrature formula
performing fock build before subrot guess so that all methods have access
Printing subrot_rss_gen Method Specification:
Occupied Subspace Method is 0
Virtual Subspace Method is 0
Energy prior to optimization (guess energy) = -14234.323296862662
Begin Timing: Total SCF Calculation
begin iterations for algorithm: DIIS         
the SCF tolerance is set to 1.00e-08
    1  -14234.3232968627      4.45e-05     00000 
    2  -14234.3218325694      6.78e-05     00000 
    3  -14234.3319919575      1.81e-05     00000 
    4  -14234.3326417208      7.11e-06     00000 
    5  -14234.3327764607      2.87e-06     00000 
    6  -14234.3327944303      2.13e-06     00000 
    7  -14234.3328039300      1.42e-06     00000 
    8  -14234.3328080952      7.93e-07     00000 
    9  -14234.3328093399      4.70e-07     00000 
   10  -14234.3328096975      3.42e-07     00000 
   11  -14234.3328098811      2.36e-07     00000 
   12  -14234.3328099844      1.30e-07     00000 
   13  -14234.3328100170      7.28e-08     00000 
   14  -14234.3328100278      4.20e-08     00000 
   15  -14234.3328100308      3.24e-08     00000 
   16  -14234.3328100331      1.55e-08     00000 
   17  -14234.3328100338      8.37e-09     00000 Convergence criterion met
write pseudocanon occs and virts to disk
write pseudocanon orbital energies to disk
Timing for Total SCF: 46142.00s (wall), 365370.55s (cpu)
SCFMI Energy  -14234.3328100338
<S^2>            0.00000
 Total energy in the final basis set =   -14234.3328100338
    ==================================================
        The end of Object-Oriented SCFman: SCFMI      
    ==================================================
 
 --------------------------------------------------------------
 
                    Orbital Energies (a.u.)
 --------------------------------------------------------------
 
 Alpha MOs
 -- Occupied --
-89.0362 -89.0280 -89.0267 -89.0263 -89.0168 -89.0144 -89.0144 -89.0112
-89.0102 -89.0026 -89.0009 -89.0003 -88.9962 -88.9921 -88.9920 -88.9873
-88.9861 -88.9857 -88.9755 -88.9745 -88.9642 -88.9635 -88.9614 -88.9432
-88.9371 -19.1649 -19.1488 -19.1403 -19.1396 -19.1357 -19.1340 -19.1298
-19.1267 -19.1205 -19.1187 -19.1149 -19.1097 -19.1082 -19.1058 -19.1056
-19.1055 -19.1046 -19.1024 -19.1023 -19.1020 -19.1016 -19.0851 -19.0817
-19.0800 -19.0535 -19.0518 -14.3476 -10.2754 -10.2581 -10.2580 -10.2538
-10.2509 -10.2501 -10.2470 -10.2467 -10.2443 -10.2398 -10.2363 -10.2349
-10.2348 -10.2347 -10.2331 -10.2283 -10.2280 -10.2256 -10.2228 -10.2222
-10.2213 -10.2194 -10.2192 -10.2175 -10.2162 -10.2148 -10.2121 -10.2111
-10.2102 -10.2101 -10.2092 -10.2081 -10.2059 -10.2049 -10.2039 -10.2037
-10.2023 -10.1993 -10.1979 -10.1904 -10.1894 -10.1883 -10.1859 -10.1854
-10.1844 -10.1844 -10.1841 -10.1813 -10.1804 -10.1782 -10.1699 -10.1697
-10.1662 -10.1656 -10.1639 -10.1554 -10.1486  -8.0830  -8.0744  -8.0732
 -8.0725  -8.0628  -8.0611  -8.0601  -8.0579  -8.0559  -8.0480  -8.0472
 -8.0460  -8.0421  -8.0383  -8.0382  -8.0332  -8.0323  -8.0320  -8.0217
 -8.0206  -8.0100  -8.0082  -8.0075  -7.9894  -7.9831  -6.0473  -6.0460
 -6.0402  -6.0387  -6.0377  -6.0375  -6.0370  -6.0359  -6.0357  -6.0319
 -6.0307  -6.0298  -6.0272  -6.0259  -6.0251  -6.0245  -6.0242  -6.0233
 -6.0221  -6.0207  -6.0207  -6.0201  -6.0189  -6.0186  -6.0174  -6.0156
 -6.0130  -6.0124  -6.0114  -6.0112  -6.0103  -6.0102  -6.0093  -6.0064
 -6.0055  -6.0052  -6.0047  -6.0034  -6.0025  -6.0024  -6.0014  -6.0014
 -5.9996  -5.9976  -5.9968  -5.9965  -5.9963  -5.9957  -5.9953  -5.9952
 -5.9951  -5.9906  -5.9895  -5.9892  -5.9862  -5.9851  -5.9847  -5.9836
 -5.9788  -5.9779  -5.9743  -5.9732  -5.9726  -5.9719  -5.9716  -5.9706
 -5.9673  -5.9656  -5.9646  -5.9535  -5.9525  -5.9476  -5.9470  -5.9463
 -5.9402  -1.0687  -1.0573  -1.0504  -1.0494  -1.0430  -1.0425  -1.0416
 -1.0383  -1.0356  -1.0316  -1.0254  -1.0228  -1.0180  -1.0178  -1.0177
 -1.0172  -1.0166  -1.0138  -1.0086  -1.0072  -1.0055  -0.9917  -0.9893
 -0.9853  -0.9670  -0.9624  -0.9182  -0.8498  -0.8375  -0.8353  -0.8295
 -0.8271  -0.8222  -0.8189  -0.8179  -0.8128  -0.8107  -0.8011  -0.8010
 -0.7980  -0.7974  -0.7963  -0.7953  -0.7938  -0.7907  -0.7901  -0.7840
 -0.7822  -0.7737  -0.7674  -0.7673  -0.7659  -0.7593  -0.7572  -0.7541
 -0.7517  -0.7438  -0.7435  -0.7429  -0.7408  -0.7372  -0.7354  -0.7332
 -0.7325  -0.7323  -0.7279  -0.7277  -0.7247  -0.7237  -0.7206  -0.7164
 -0.7158  -0.7144  -0.7063  -0.6999  -0.6991  -0.6989  -0.6925  -0.6771
 -0.6690  -0.6488  -0.6411  -0.6396  -0.6394  -0.6319  -0.6310  -0.6282
 -0.6269  -0.6241  -0.6236  -0.6146  -0.6145  -0.6134  -0.6114  -0.6105
 -0.6101  -0.6092  -0.6035  -0.5986  -0.5967  -0.5897  -0.5855  -0.5827
 -0.5797  -0.5766  -0.5745  -0.5588  -0.5579  -0.5507  -0.5214  -0.5213
 -0.5204  -0.5194  -0.5154  -0.5141  -0.5094  -0.5058  -0.5042  -0.5005
 -0.4999  -0.4965  -0.4961  -0.4954  -0.4948  -0.4918  -0.4898  -0.4894
 -0.4876  -0.4866  -0.4864  -0.4857  -0.4852  -0.4827  -0.4818  -0.4809
 -0.4795  -0.4790  -0.4784  -0.4782  -0.4775  -0.4765  -0.4761  -0.4749
 -0.4743  -0.4738  -0.4711  -0.4708  -0.4705  -0.4701  -0.4689  -0.4676
 -0.4674  -0.4660  -0.4645  -0.4638  -0.4635  -0.4626  -0.4625  -0.4614
 -0.4612  -0.4609  -0.4607  -0.4583  -0.4582  -0.4577  -0.4569  -0.4564
 -0.4557  -0.4554  -0.4543  -0.4543  -0.4538  -0.4516  -0.4498  -0.4492
 -0.4489  -0.4459  -0.4455  -0.4445  -0.4442  -0.4437  -0.4428  -0.4420
 -0.4409  -0.4406  -0.4400  -0.4391  -0.4388  -0.4372  -0.4356  -0.4345
 -0.4343  -0.4340  -0.4335  -0.4332  -0.4329  -0.4321  -0.4319  -0.4312
 -0.4294  -0.4292  -0.4291  -0.4289  -0.4274  -0.4258  -0.4257  -0.4249
 -0.4246  -0.4241  -0.4236  -0.4223  -0.4208  -0.4205  -0.4193  -0.4168
 -0.4165  -0.4158  -0.4154  -0.4134  -0.4132  -0.4131  -0.4126  -0.4112
 -0.4107  -0.4086  -0.4075  -0.4073  -0.4061  -0.4060  -0.4054  -0.4037
 -0.4034  -0.4032  -0.4029  -0.4020  -0.4008  -0.4003  -0.3986  -0.3983
 -0.3972  -0.3966  -0.3961  -0.3958  -0.3952  -0.3947  -0.3938  -0.3933
 -0.3926  -0.3923  -0.3922  -0.3917  -0.3902  -0.3897  -0.3880  -0.3872
 -0.3853  -0.3853  -0.3845  -0.3840  -0.3819  -0.3791  -0.3787  -0.3783
 -0.3782  -0.3765  -0.3759  -0.3743  -0.3734  -0.3711  -0.3678  -0.3654
 -0.3652  -0.3642  -0.3632  -0.3608  -0.3597  -0.3585  -0.3571  -0.3562
 -0.3549  -0.3531  -0.3516  -0.3493  -0.3485  -0.3479  -0.3463  -0.3425
 -0.3406  -0.3393  -0.3371  -0.3327  -0.3326  -0.3258  -0.3248  -0.3204
 -0.3157  -0.3096  -0.3080  -0.3021  -0.3021  -0.3017  -0.2987  -0.2974
 -0.2969  -0.2913  -0.2873  -0.2865  -0.2812  -0.2790  -0.2762  -0.2725
 -0.2723  -0.2704  -0.2694  -0.2691  -0.2687  -0.2660  -0.2659  -0.2647
 -0.2638  -0.2634  -0.2627  -0.2622  -0.2613  -0.2561  -0.2550  -0.2539
 -0.2534  -0.2506  -0.2478  -0.2448  -0.2444  -0.2436  -0.2433  -0.2417
 -0.2395  -0.2344  -0.2334  -0.2329  -0.2282  -0.2278  -0.2207  -0.2161
 -0.2159  -0.2141  -0.2116  -0.2040  -0.2003  -0.2002  -0.1841  -0.1749
 -- Virtual --
 -0.0467  -0.0438  -0.0402  -0.0348  -0.0317  -0.0310  -0.0282  -0.0259
 -0.0247  -0.0230  -0.0205  -0.0177  -0.0157  -0.0151  -0.0130  -0.0114
 -0.0108  -0.0093  -0.0075  -0.0073  -0.0063  -0.0052  -0.0046  -0.0042
 -0.0028  -0.0028  -0.0019  -0.0003   0.0003   0.0011   0.0018   0.0020
  0.0029   0.0043   0.0048   0.0062   0.0068   0.0076   0.0089   0.0102
  0.0109   0.0118   0.0128   0.0130   0.0144   0.0156   0.0164   0.0170
  0.0179   0.0187   0.0192   0.0201   0.0208   0.0216   0.0221   0.0223
  0.0230   0.0234   0.0247   0.0252   0.0262   0.0268   0.0292   0.0297
  0.0309   0.0311   0.0324   0.0331   0.0339   0.0340   0.0345   0.0350
  0.0354   0.0360   0.0367   0.0371   0.0377   0.0386   0.0394   0.0399
  0.0412   0.0412   0.0421   0.0429   0.0435   0.0443   0.0454   0.0461
  0.0467   0.0472   0.0479   0.0488   0.0494   0.0497   0.0498   0.0506
  0.0509   0.0517   0.0530   0.0533   0.0537   0.0551   0.0553   0.0560
  0.0567   0.0569   0.0573   0.0586   0.0590   0.0594   0.0603   0.0608
  0.0615   0.0625   0.0628   0.0642   0.0645   0.0652   0.0655   0.0657
  0.0668   0.0682   0.0691   0.0702   0.0706   0.0713   0.0721   0.0728
  0.0737   0.0741   0.0746   0.0749   0.0757   0.0762   0.0769   0.0771
  0.0779   0.0784   0.0793   0.0795   0.0802   0.0805   0.0813   0.0824
  0.0825   0.0842   0.0847   0.0851   0.0865   0.0868   0.0873   0.0884
  0.0891   0.0895   0.0902   0.0915   0.0916   0.0922   0.0928   0.0934
  0.0945   0.0950   0.0958   0.0961   0.0968   0.0971   0.0975   0.0983
  0.0991   0.0992   0.0999   0.1012   0.1015   0.1022   0.1025   0.1030
  0.1037   0.1042   0.1058   0.1061   0.1066   0.1074   0.1080   0.1086
  0.1093   0.1098   0.1105   0.1111   0.1124   0.1129   0.1139   0.1141
  0.1148   0.1155   0.1160   0.1172   0.1184   0.1187   0.1192   0.1197
  0.1199   0.1211   0.1214   0.1216   0.1229   0.1237   0.1244   0.1253
  0.1260   0.1265   0.1269   0.1272   0.1279   0.1284   0.1290   0.1294
  0.1298   0.1312   0.1314   0.1325   0.1335   0.1338   0.1345   0.1348
  0.1357   0.1364   0.1370   0.1374   0.1385   0.1387   0.1396   0.1399
  0.1405   0.1411   0.1412   0.1426   0.1431   0.1434   0.1444   0.1445
  0.1457   0.1459   0.1464   0.1469   0.1477   0.1483   0.1490   0.1494
  0.1502   0.1512   0.1514   0.1522   0.1524   0.1531   0.1539   0.1542
  0.1556   0.1561   0.1564   0.1579   0.1580   0.1594   0.1596   0.1611
  0.1614   0.1626   0.1628   0.1633   0.1641   0.1645   0.1652   0.1654
  0.1656   0.1671   0.1677   0.1682   0.1694   0.1701   0.1706   0.1714
  0.1720   0.1722   0.1731   0.1737   0.1740   0.1743   0.1759   0.1764
  0.1777   0.1780   0.1785   0.1791   0.1798   0.1804   0.1807   0.1810
  0.1821   0.1836   0.1838   0.1843   0.1846   0.1858   0.1866   0.1873
  0.1877   0.1886   0.1890   0.1901   0.1905   0.1910   0.1917   0.1920
  0.1921   0.1931   0.1937   0.1943   0.1945   0.1961   0.1962   0.1967
  0.1971   0.1975   0.1981   0.1994   0.1999   0.2009   0.2020   0.2022
  0.2031   0.2037   0.2040   0.2046   0.2057   0.2067   0.2072   0.2076
  0.2078   0.2082   0.2090   0.2094   0.2100   0.2110   0.2123   0.2124
  0.2139   0.2141   0.2147   0.2153   0.2157   0.2163   0.2172   0.2174
  0.2179   0.2192   0.2197   0.2200   0.2208   0.2221   0.2223   0.2231
  0.2239   0.2248   0.2255   0.2260   0.2273   0.2277   0.2283   0.2299
  0.2307   0.2311   0.2313   0.2325   0.2327   0.2338   0.2344   0.2348
  0.2351   0.2354   0.2363   0.2372   0.2376   0.2391   0.2401   0.2409
  0.2416   0.2421   0.2425   0.2429   0.2437   0.2449   0.2451   0.2456
  0.2463   0.2477   0.2479   0.2489   0.2493   0.2508   0.2518   0.2519
  0.2528   0.2532   0.2542   0.2545   0.2553   0.2555   0.2564   0.2567
  0.2575   0.2584   0.2589   0.2608   0.2610   0.2613   0.2628   0.2635
  0.2650   0.2653   0.2660   0.2666   0.2677   0.2684   0.2691   0.2698
  0.2702   0.2717   0.2725   0.2728   0.2739   0.2743   0.2749   0.2758
  0.2768   0.2776   0.2778   0.2783   0.2798   0.2809   0.2813   0.2819
  0.2829   0.2838   0.2842   0.2849   0.2865   0.2867   0.2874   0.2885
  0.2886   0.2890   0.2905   0.2914   0.2919   0.2926   0.2932   0.2952
  0.2957   0.2967   0.2978   0.2991   0.3001   0.3002   0.3012   0.3028
  0.3040   0.3051   0.3053   0.3061   0.3073   0.3081   0.3091   0.3101
  0.3108   0.3119   0.3123   0.3133   0.3143   0.3148   0.3155   0.3158
  0.3162   0.3178   0.3190   0.3195   0.3213   0.3215   0.3225   0.3234
  0.3237   0.3246   0.3259   0.3260   0.3265   0.3278   0.3284   0.3294
  0.3302   0.3312   0.3325   0.3335   0.3340   0.3351   0.3360   0.3362
  0.3371   0.3378   0.3393   0.3403   0.3412   0.3424   0.3428   0.3440
  0.3446   0.3452   0.3464   0.3479   0.3480   0.3495   0.3498   0.3525
  0.3538   0.3546   0.3553   0.3561   0.3565   0.3570   0.3578   0.3593
  0.3610   0.3613   0.3624   0.3637   0.3645   0.3653   0.3661   0.3679
  0.3687   0.3692   0.3694   0.3703   0.3715   0.3738   0.3740   0.3756
  0.3768   0.3770   0.3776   0.3784   0.3796   0.3810   0.3815   0.3826
  0.3832   0.3850   0.3858   0.3871   0.3873   0.3879   0.3897   0.3897
  0.3916   0.3925   0.3929   0.3935   0.3942   0.3963   0.3963   0.3966
  0.3978   0.3981   0.3993   0.4013   0.4026   0.4033   0.4043   0.4050
  0.4056   0.4067   0.4077   0.4082   0.4086   0.4101   0.4108   0.4116
  0.4136   0.4137   0.4142   0.4149   0.4158   0.4171   0.4190   0.4196
  0.4198   0.4228   0.4235   0.4247   0.4253   0.4261   0.4275   0.4286
  0.4307   0.4309   0.4316   0.4327   0.4339   0.4351   0.4367   0.4375
  0.4394   0.4408   0.4422   0.4434   0.4443   0.4458   0.4469   0.4476
  0.4491   0.4501   0.4511   0.4531   0.4539   0.4554   0.4561   0.4566
  0.4573   0.4597   0.4603   0.4623   0.4634   0.4665   0.4667   0.4682
  0.4693   0.4708   0.4724   0.4741   0.4766   0.4774   0.4780   0.4788
  0.4800   0.4814   0.4833   0.4846   0.4870   0.4873   0.4893   0.4918
  0.4936   0.4938   0.4955   0.4975   0.4992   0.5003   0.5010   0.5031
  0.5036   0.5062   0.5066   0.5086   0.5105   0.5120   0.5127   0.5151
  0.5155   0.5171   0.5197   0.5202   0.5216   0.5235   0.5244   0.5266
  0.5289   0.5296   0.5307   0.5319   0.5333   0.5355   0.5363   0.5411
  0.5419   0.5442   0.5447   0.5473   0.5506   0.5516   0.5537   0.5540
  0.5552   0.5561   0.5584   0.5602   0.5608   0.5634   0.5644   0.5660
  0.5692   0.5694   0.5708   0.5733   0.5746   0.5760   0.5777   0.5780
  0.5792   0.5806   0.5821   0.5835   0.5846   0.5860   0.5880   0.5902
  0.5933   0.5941   0.5946   0.5967   0.5978   0.5989   0.6003   0.6007
  0.6030   0.6041   0.6071   0.6083   0.6092   0.6106   0.6108   0.6137
  0.6138   0.6156   0.6173   0.6187   0.6202   0.6222   0.6243   0.6249
  0.6258   0.6268   0.6286   0.6298   0.6312   0.6319   0.6329   0.6343
  0.6353   0.6364   0.6377   0.6387   0.6398   0.6417   0.6444   0.6449
  0.6464   0.6476   0.6481   0.6496   0.6506   0.6513   0.6530   0.6536
  0.6544   0.6553   0.6565   0.6593   0.6598   0.6613   0.6622   0.6631
  0.6636   0.6646   0.6651   0.6663   0.6671   0.6680   0.6707   0.6718
  0.6732   0.6757   0.6780   0.6784   0.6803   0.6819   0.6821   0.6827
  0.6845   0.6854   0.6867   0.6880   0.6887   0.6902   0.6915   0.6925
  0.6928   0.6944   0.6962   0.6973   0.6985   0.7001   0.7010   0.7022
  0.7031   0.7045   0.7072   0.7087   0.7089   0.7103   0.7111   0.7135
  0.7142   0.7159   0.7170   0.7175   0.7185   0.7199   0.7210   0.7221
  0.7242   0.7245   0.7250   0.7283   0.7294   0.7295   0.7316   0.7332
  0.7337   0.7349   0.7373   0.7376   0.7392   0.7404   0.7414   0.7431
  0.7452   0.7466   0.7479   0.7490   0.7492   0.7531   0.7536   0.7548
  0.7565   0.7590   0.7593   0.7602   0.7618   0.7650   0.7668   0.7689
  0.7695   0.7703   0.7720   0.7750   0.7766   0.7780   0.7791   0.7813
  0.7821   0.7836   0.7852   0.7861   0.7882   0.7888   0.7899   0.7915
  0.7924   0.7941   0.7958   0.7983   0.7987   0.8011   0.8014   0.8030
  0.8045   0.8065   0.8077   0.8100   0.8112   0.8134   0.8158   0.8162
  0.8173   0.8192   0.8218   0.8222   0.8243   0.8256   0.8258   0.8267
  0.8282   0.8294   0.8311   0.8327   0.8340   0.8366   0.8373   0.8378
  0.8384   0.8399   0.8414   0.8420   0.8427   0.8452   0.8461   0.8473
  0.8484   0.8503   0.8520   0.8530   0.8556   0.8559   0.8576   0.8586
  0.8605   0.8613   0.8631   0.8642   0.8658   0.8675   0.8689   0.8718
  0.8722   0.8749   0.8762   0.8776   0.8782   0.8797   0.8813   0.8833
  0.8836   0.8856   0.8869   0.8889   0.8895   0.8909   0.8937   0.8941
  0.8956   0.8958   0.8976   0.8995   0.8999   0.9024   0.9034   0.9048
  0.9070   0.9076   0.9098   0.9112   0.9127   0.9136   0.9148   0.9165
  0.9183   0.9196   0.9201   0.9219   0.9225   0.9236   0.9267   0.9274
  0.9280   0.9302   0.9315   0.9319   0.9324   0.9338   0.9347   0.9357
  0.9366   0.9382   0.9396   0.9406   0.9421   0.9427   0.9445   0.9455
  0.9469   0.9477   0.9494   0.9500   0.9522   0.9530   0.9547   0.9564
  0.9574   0.9590   0.9598   0.9610   0.9622   0.9624   0.9632   0.9650
  0.9653   0.9664   0.9679   0.9699   0.9720   0.9722   0.9740   0.9741
  0.9752   0.9764   0.9772   0.9785   0.9802   0.9824   0.9833   0.9838
  0.9854   0.9857   0.9868   0.9890   0.9909   0.9916   0.9923   0.9940
  0.9959   0.9973   0.9987   0.9990   1.0000   1.0011   1.0021   1.0031
  1.0032   1.0045   1.0067   1.0077   1.0094   1.0097   1.0114   1.0119
  1.0133   1.0148   1.0162   1.0164   1.0171   1.0194   1.0203   1.0221
  1.0233   1.0235   1.0248   1.0254   1.0269   1.0273   1.0288   1.0299
  1.0303   1.0327   1.0328   1.0342   1.0368   1.0380   1.0401   1.0403
  1.0416   1.0432   1.0442   1.0453   1.0469   1.0472   1.0488   1.0494
  1.0513   1.0534   1.0537   1.0550   1.0584   1.0587   1.0602   1.0606
  1.0617   1.0621   1.0634   1.0646   1.0662   1.0686   1.0696   1.0707
  1.0715   1.0715   1.0736   1.0756   1.0769   1.0779   1.0789   1.0804
  1.0828   1.0838   1.0849   1.0859   1.0875   1.0899   1.0904   1.0911
  1.0919   1.0947   1.0964   1.0974   1.0986   1.1000   1.1018   1.1055
  1.1059   1.1067   1.1076   1.1104   1.1110   1.1117   1.1129   1.1150
  1.1161   1.1189   1.1192   1.1204   1.1227   1.1235   1.1252   1.1272
  1.1289   1.1311   1.1321   1.1340   1.1345   1.1366   1.1372   1.1393
  1.1398   1.1409   1.1425   1.1428   1.1453   1.1460   1.1470   1.1487
  1.1507   1.1519   1.1530   1.1563   1.1565   1.1571   1.1582   1.1586
  1.1614   1.1623   1.1649   1.1658   1.1665   1.1687   1.1693   1.1708
  1.1726   1.1732   1.1740   1.1769   1.1777   1.1803   1.1807   1.1824
  1.1846   1.1863   1.1883   1.1886   1.1919   1.1927   1.1937   1.1945
  1.1974   1.1979   1.1987   1.2007   1.2030   1.2042   1.2063   1.2074
  1.2080   1.2115   1.2133   1.2168   1.2173   1.2185   1.2217   1.2232
  1.2250   1.2271   1.2302   1.2325   1.2338   1.2352   1.2364   1.2394
  1.2435   1.2450   1.2465   1.2481   1.2522   1.2545   1.2559   1.2585
  1.2608   1.2621   1.2631   1.2668   1.2695   1.2711   1.2725   1.2733
  1.2759   1.2784   1.2789   1.2815   1.2839   1.2850   1.2876   1.2894
  1.2915   1.2937   1.2972   1.2993   1.3029   1.3044   1.3057   1.3073
  1.3099   1.3111   1.3162   1.3196   1.3239   1.3259   1.3266   1.3291
  1.3327   1.3342   1.3365   1.3382   1.3395   1.3434   1.3443   1.3453
  1.3467   1.3481   1.3508   1.3525   1.3530   1.3537   1.3550   1.3569
  1.3589   1.3613   1.3635   1.3649   1.3656   1.3672   1.3679   1.3714
  1.3724   1.3757   1.3783   1.3820   1.3838   1.3853   1.3871   1.3878
  1.3896   1.3915   1.3920   1.3938   1.3969   1.3997   1.4029   1.4033
  1.4037   1.4069   1.4083   1.4095   1.4108   1.4125   1.4137   1.4150
  1.4160   1.4167   1.4192   1.4214   1.4223   1.4242   1.4262   1.4298
  1.4311   1.4325   1.4359   1.4364   1.4379   1.4393   1.4404   1.4417
  1.4429   1.4441   1.4459   1.4475   1.4501   1.4504   1.4537   1.4544
  1.4561   1.4567   1.4587   1.4607   1.4629   1.4648   1.4663   1.4695
  1.4709   1.4728   1.4748   1.4756   1.4782   1.4787   1.4811   1.4820
  1.4836   1.4864   1.4886   1.4902   1.4927   1.4947   1.4976   1.4984
  1.4989   1.5031   1.5069   1.5080   1.5091   1.5118   1.5160   1.5162
  1.5205   1.5241   1.5260   1.5270   1.5296   1.5310   1.5349   1.5373
  1.5380   1.5450   1.5476   1.5493   1.5556   1.5587   1.5612   1.5635
  1.5671   1.5694   1.5715   1.5746   1.5770   1.5792   1.5855   1.5871
  1.5892   1.5953   1.5955   1.5975   1.6011   1.6027   1.6086   1.6155
  1.6184   1.6209   1.6253   1.6262   1.6287   1.6305   1.6338   1.6341
  1.6428   1.6468   1.6497   1.6517   1.6527   1.6567   1.6595   1.6625
  1.6629   1.6646   1.6669   1.6682   1.6698   1.6707   1.6728   1.6750
  1.6755   1.6793   1.6803   1.6815   1.6832   1.6839   1.6859   1.6889
  1.6898   1.6914   1.6956   1.6966   1.6977   1.6994   1.7001   1.7019
  1.7029   1.7040   1.7073   1.7078   1.7095   1.7131   1.7140   1.7144
  1.7155   1.7173   1.7185   1.7197   1.7206   1.7220   1.7227   1.7240
  1.7247   1.7268   1.7281   1.7290   1.7310   1.7321   1.7324   1.7342
  1.7348   1.7368   1.7402   1.7410   1.7415   1.7430   1.7435   1.7446
  1.7476   1.7489   1.7516   1.7522   1.7532   1.7538   1.7549   1.7585
  1.7594   1.7600   1.7605   1.7620   1.7635   1.7645   1.7667   1.7689
  1.7721   1.7733   1.7753   1.7767   1.7788   1.7801   1.7811   1.7839
  1.7852   1.7875   1.7912   1.7928   1.7936   1.7957   1.7976   1.8001
  1.8013   1.8052   1.8072   1.8075   1.8083   1.8119   1.8144   1.8165
  1.8191   1.8207   1.8225   1.8268   1.8311   1.8333   1.8374   1.8414
  1.8466   1.8488   1.8527   1.8547   1.8549   1.8574   1.8611   1.8621
  1.8663   1.8692   1.8725   1.8753   1.8765   1.8768   1.8793   1.8810
  1.8824   1.8845   1.8855   1.8860   1.8863   1.8921   1.8939   1.8963
  1.8979   1.8995   1.9002   1.9011   1.9027   1.9046   1.9054   1.9067
  1.9081   1.9083   1.9109   1.9114   1.9135   1.9140   1.9155   1.9176
  1.9183   1.9196   1.9207   1.9232   1.9240   1.9254   1.9297   1.9306
  1.9318   1.9333   1.9365   1.9374   1.9382   1.9424   1.9429   1.9447
  1.9474   1.9498   1.9520   1.9525   1.9581   1.9597   1.9627   1.9636
  1.9694   1.9708   1.9755   1.9780   1.9805   1.9851   1.9908   1.9949
  1.9993   2.0092   2.0099   2.0160   2.0161   2.0254   2.0301   2.0383
  2.0401   2.0417   2.0428   2.0441   2.0502   2.0529   2.0587   2.0592
  2.0600   2.0613   2.0642   2.0653   2.0679   2.0687   2.0697   2.0724
  2.0735   2.0745   2.0749   2.0752   2.0760   2.0765   2.0781   2.0794
  2.0835   2.0849   2.0887   2.0902   2.0919   2.0942   2.0951   2.0981
  2.1023   2.1043   2.1052   2.1065   2.1098   2.1108   2.1123   2.1159
  2.1167   2.1179   2.1212   2.1243   2.1262   2.1299   2.1315   2.1356
  2.1372   2.1385   2.1395   2.1405   2.1428   2.1449   2.1470   2.1509
  2.1549   2.1581   2.1606   2.1620   2.1640   2.1690   2.1717   2.1729
  2.1755   2.1802   2.1810   2.1832   2.1856   2.1946   2.1988   2.2009
  2.2025   2.2046   2.2048   2.2071   2.2092   2.2096   2.2105   2.2118
  2.2139   2.2151   2.2164   2.2185   2.2204   2.2215   2.2242   2.2256
  2.2265   2.2274   2.2286   2.2302   2.2311   2.2321   2.2330   2.2340
  2.2351   2.2363   2.2377   2.2391   2.2402   2.2415   2.2426   2.2435
  2.2441   2.2463   2.2480   2.2493   2.2504   2.2511   2.2519   2.2531
  2.2544   2.2585   2.2587   2.2595   2.2606   2.2621   2.2631   2.2641
  2.2642   2.2644   2.2662   2.2680   2.2684   2.2707   2.2719   2.2724
  2.2736   2.2748   2.2759   2.2769   2.2776   2.2783   2.2794   2.2818
  2.2824   2.2836   2.2858   2.2860   2.2868   2.2879   2.2893   2.2898
  2.2908   2.2929   2.2941   2.2944   2.2955   2.2962   2.2987   2.2989
  2.3004   2.3006   2.3024   2.3035   2.3045   2.3066   2.3071   2.3079
  2.3089   2.3112   2.3116   2.3133   2.3143   2.3152   2.3160   2.3172
  2.3178   2.3193   2.3216   2.3233   2.3245   2.3273   2.3278   2.3291
  2.3308   2.3322   2.3353   2.3389   2.3392   2.3410   2.3434   2.3445
  2.3453   2.3469   2.3486   2.3505   2.3529   2.3546   2.3567   2.3570
  2.3616   2.3628   2.3648   2.3685   2.3702   2.3716   2.3726   2.3762
  2.3782   2.3799   2.3815   2.3849   2.3884   2.3904   2.3939   2.3965
  2.3986   2.4014   2.4039   2.4133   2.4206   2.4314   2.4388   2.4459
  2.4770   2.4832   2.5219   2.5297   2.5740   2.6181   2.6776   2.7272
  2.7618   2.7831   2.8046   2.8076   2.8142   2.8168   2.8174   2.8274
  2.8315   2.8395   2.8436   2.8475   2.8540   2.8563   2.8574   2.8587
  2.8623   2.8662   2.8693   2.8733   2.8765   2.8777   2.8829   2.8852
  2.8934   2.8988   2.8991   2.9080   2.9147   2.9169   2.9172   3.0038
  3.1022   3.2414   3.9323   3.9364   3.9459   3.9495   3.9550   3.9583
  3.9645   3.9693   3.9775   3.9825   3.9950   3.9971   3.9979   4.0068
  4.0090   4.0147   4.0183   4.0185   4.0220   4.0243   4.0331   4.0336
  4.0447   4.0509   4.0690   4.1740   4.1947   4.2080   4.2126   4.2201
  4.2289   4.2339   4.2360   4.2396   4.2416   4.2422   4.2459   4.2534
  4.2572   4.2587   4.2663   4.2717   4.2719   4.2740   4.2763   4.2790
  4.2807   4.2828   4.2859   4.2904   4.2921   4.2943   4.2959   4.2980
  4.3068   4.3085   4.3108   4.3130   4.3156   4.3190   4.3213   4.3259
  4.3264   4.3315   4.3341   4.3347   4.3363   4.3376   4.3445   4.3496
  4.3525   4.3567   4.3580   4.3585   4.3688   4.3711   4.3729   4.3785
  4.3808   4.3852   4.3884   4.3909   4.3929   4.3977   4.4047   4.4070
  4.4105   4.4197   4.4250   4.4271   4.4440   4.4596   4.4723   4.4827
  4.4964   4.5019   4.5172   4.5257   4.5503   4.5757   4.5801   4.5985
  4.6201   4.6458   4.6826   4.7306   4.7772   4.8250   4.9766
 --------------------------------------------------------------
 
          Ground-State Mulliken Net Atomic Charges

     Atom                 Charge (a.u.)
  ----------------------------------------
      1 C                    -0.451849
      2 C                    -0.305646
      3 C                    -0.284550
      4 C                    -0.452288
      5 C                    -0.439211
      6 C                    -0.427475
      7 H                     0.235049
      8 H                     0.237392
      9 H                     0.198751
     10 H                     0.200212
     11 H                     0.209032
     12 H                     0.238346
     13 H                     0.168019
     14 H                     0.199321
     15 H                     0.202166
     16 H                     0.229870
     17 H                     0.189239
     18 N                    -0.387225
     19 H                     0.460826
     20 C                     0.298721
     21 H                     0.188215
     22 O                    -0.506918
     23 C                    -0.808416
     24 H                     0.248622
     25 H                     0.235070
     26 H                     0.238793
     27 S                     0.896397
     28 C                    -0.796123
     29 H                     0.259788
     30 H                     0.218581
     31 H                     0.250146
     32 O                    -0.743422
     33 C                    -0.780596
     34 H                     0.294176
     35 H                     0.250458
     36 H                     0.229778
     37 S                     0.825011
     38 C                    -0.886071
     39 H                     0.272713
     40 H                     0.234072
     41 H                     0.251431
     42 O                    -0.649432
     43 C                    -0.889344
     44 H                     0.285862
     45 H                     0.305687
     46 H                     0.228978
     47 S                     0.655329
     48 C                    -0.866817
     49 H                     0.277134
     50 H                     0.261522
     51 H                     0.256393
     52 O                    -0.594339
     53 C                    -0.895198
     54 H                     0.227620
     55 H                     0.287753
     56 H                     0.244457
     57 S                     0.976672
     58 C                    -0.896743
     59 H                     0.261052
     60 H                     0.221048
     61 H                     0.239294
     62 O                    -0.641611
     63 C                    -0.690760
     64 H                     0.258449
     65 H                     0.249323
     66 H                     0.248930
     67 S                     0.647951
     68 C                    -0.800195
     69 H                     0.234486
     70 H                     0.259771
     71 H                     0.253637
     72 O                    -0.685178
     73 C                    -0.753235
     74 H                     0.256891
     75 H                     0.267612
     76 H                     0.262091
     77 S                     0.846587
     78 C                    -1.020632
     79 H                     0.271175
     80 H                     0.269085
     81 H                     0.238891
     82 O                    -0.613276
     83 C                    -0.769337
     84 H                     0.267860
     85 H                     0.235351
     86 H                     0.197609
     87 S                     0.861675
     88 C                    -0.893554
     89 H                     0.244862
     90 H                     0.310048
     91 H                     0.251318
     92 O                    -0.722556
     93 C                    -0.870370
     94 H                     0.258706
     95 H                     0.222907
     96 H                     0.308697
     97 S                     0.900475
     98 C                    -0.790534
     99 H                     0.288179
    100 H                     0.223863
    101 H                     0.206836
    102 O                    -0.736467
    103 C                    -1.008348
    104 H                     0.264612
    105 H                     0.243395
    106 H                     0.226555
    107 S                     1.061175
    108 C                    -0.836345
    109 H                     0.237207
    110 H                     0.253633
    111 H                     0.244338
    112 O                    -0.750147
    113 C                    -0.865848
    114 H                     0.248902
    115 H                     0.244593
    116 H                     0.229202
    117 S                     1.004222
    118 C                    -0.829733
    119 H                     0.283859
    120 H                     0.279115
    121 H                     0.236248
    122 O                    -0.774672
    123 C                    -0.843278
    124 H                     0.274640
    125 H                     0.250189
    126 H                     0.242994
    127 S                     0.939314
    128 C                    -0.919558
    129 H                     0.286434
    130 H                     0.277947
    131 H                     0.250965
    132 O                    -0.748342
    133 C                    -0.639064
    134 H                     0.259913
    135 H                     0.243303
    136 H                     0.240025
    137 S                     0.489220
    138 C                    -0.889467
    139 H                     0.269367
    140 H                     0.327580
    141 H                     0.216915
    142 O                    -0.638470
    143 C                    -0.783760
    144 H                     0.254243
    145 H                     0.247082
    146 H                     0.230370
    147 S                     0.880303
    148 C                    -0.841828
    149 H                     0.258557
    150 H                     0.254824
    151 H                     0.228097
    152 O                    -0.726259
    153 C                    -0.967559
    154 H                     0.248520
    155 H                     0.262809
    156 H                     0.249653
    157 S                     0.934981
    158 C                    -0.816407
    159 H                     0.255150
    160 H                     0.283811
    161 H                     0.276488
    162 O                    -0.711021
    163 C                    -0.700383
    164 H                     0.259508
    165 H                     0.232463
    166 H                     0.272140
    167 S                     0.450456
    168 C                    -0.658789
    169 H                     0.287851
    170 H                     0.254574
    171 H                     0.237090
    172 O                    -0.624687
    173 C                    -0.775039
    174 H                     0.229866
    175 H                     0.232050
    176 H                     0.250382
    177 S                     0.813971
    178 C                    -0.844923
    179 H                     0.223927
    180 H                     0.301804
    181 H                     0.262864
    182 O                    -0.712811
    183 C                    -0.866359
    184 H                     0.240408
    185 H                     0.282082
    186 H                     0.238010
    187 S                     1.022504
    188 C                    -0.859236
    189 H                     0.227834
    190 H                     0.247929
    191 H                     0.250594
    192 O                    -0.761208
    193 C                    -0.814159
    194 H                     0.221811
    195 H                     0.284480
    196 H                     0.277621
    197 S                     0.828454
    198 C                    -0.850062
    199 H                     0.254030
    200 H                     0.253743
    201 H                     0.285138
    202 O                    -0.713511
    203 C                    -0.918338
    204 H                     0.307578
    205 H                     0.237488
    206 H                     0.262284
    207 S                     1.048626
    208 C                    -0.972314
    209 H                     0.268037
    210 H                     0.262892
    211 H                     0.249099
    212 O                    -0.716099
    213 C                    -1.022707
    214 H                     0.243333
    215 H                     0.285761
    216 H                     0.277513
    217 S                     1.103375
    218 C                    -0.889293
    219 H                     0.231418
    220 H                     0.256801
    221 H                     0.288262
    222 O                    -0.729668
    223 C                    -0.813821
    224 H                     0.278196
    225 H                     0.268394
    226 H                     0.267698
    227 S                     0.810937
    228 C                    -0.862701
    229 H                     0.239418
    230 H                     0.257777
    231 H                     0.293610
    232 O                    -0.651190
    233 C                    -0.656101
    234 H                     0.234256
    235 H                     0.265894
    236 H                     0.227528
    237 S                     0.887734
    238 C                    -0.877084
    239 H                     0.234781
    240 H                     0.249600
    241 H                     0.248881
    242 O                    -0.721431
    243 C                    -0.956342
    244 H                     0.290064
    245 H                     0.245021
    246 H                     0.266194
    247 S                     0.971063
    248 C                    -0.815947
    249 H                     0.239784
    250 H                     0.261718
    251 H                     0.242048
    252 O                    -0.669945
    253 C                    -0.777109
    254 H                     0.301729
    255 H                     0.223290
    256 H                     0.231566
    257 S                     0.792446
    258 C                    -0.970476
    259 H                     0.201077
    260 H                     0.296283
    261 H                     0.238654
    262 O                    -0.685558
    263 C                    -0.535088
    264 H                     0.262086
    265 H                     0.221820
    266 H                     0.308949
    267 S                     0.227727
    268 C                    -0.729505
    269 H                     0.242778
    270 H                     0.257568
    271 H                     0.237359
    272 O                    -0.601633
  ----------------------------------------
  Sum of atomic charges =     0.000000

 -----------------------------------------------------------------
                    Cartesian Multipole Moments
 -----------------------------------------------------------------
    Charge (ESU x 10^10)
                 0.0000
    Dipole Moment (Debye)
         X     -34.6917      Y      16.8386      Z     -11.1925
       Tot      40.1538
    Quadrupole Moments (Debye-Ang)
        XX   -2754.8132     XY    -217.9135     YY    -188.1214
        XZ   -1074.3670     YZ     197.0809     ZZ   -1468.8411
    Octopole Moments (Debye-Ang^2)
       XXX -144263.4647    XXY  -39530.8396    XYY  -17722.6036
       YYY  -23762.2663    XXZ  -73532.9545    XYZ  -10491.0796
       YYZ   -9451.1846    XZZ  -55647.4284    YZZ  -15651.4355
       ZZZ  -92669.7008
    Hexadecapole Moments (Debye-Ang^3)
      XXXX ************   XXXY ************   XXYY ************
      XYYY -875987.0628   YYYY ************   XXXZ ************
      XXYZ ************   XYYZ -565278.2869   YYYZ -708971.2764
      XXZZ ************   XYZZ -779958.6102   YYZZ -635337.7117
      XZZZ ************   YZZZ ************   ZZZZ ************
 -----------------------------------------------------------------
Archival summary:
[...]
    2  -0.0548232   0.0049728  -0.0161639   0.0291578   0.0149529   0.0264618
    3   0.0148906   0.0052297   0.0285054  -0.0131693   0.0013923  -0.0121596
          103         104         105         106         107         108
    1   0.0020758   0.0157423   0.0072780  -0.0249237   0.0395369  -0.0065398
    2   0.0063654  -0.0130665   0.0265762   0.0053687  -0.0013921   0.0021673
    3   0.0053185   0.0258635  -0.0209517   0.0173515  -0.0451042   0.0020426
          109         110         111         112         113         114
    1  -0.0059512  -0.0112150  -0.0209780  -0.0098789  -0.0050806  -0.0222167
    2   0.0271741  -0.0236851  -0.0144063  -0.0790200   0.0028300  -0.0259896
    3  -0.0227170  -0.0129429   0.0266005   0.0747123  -0.0053673  -0.0182365
          115         116         117         118         119         120
    1   0.0095568   0.0267761   0.0105848  -0.0118820  -0.0176012  -0.0060260
    2   0.0352886  -0.0012342  -0.0511389   0.0010430  -0.0143360  -0.0098994
    3   0.0022821  -0.0120206   0.0118096   0.0030575  -0.0240381   0.0273738
          121         122         123         124         125         126
    1   0.0045039   0.0516407   0.0061970   0.0153356   0.0025268   0.0249887
    2   0.0300714   0.0896607   0.0054005   0.0286072  -0.0032702  -0.0130500
    3  -0.0033843   0.0370946   0.0005816   0.0012530   0.0309080  -0.0162990
          127         128         129         130         131         132
    1  -0.0126160  -0.0002999  -0.0250867   0.0066743   0.0255083  -0.0655016
    2  -0.0585896   0.0074942  -0.0036898   0.0328424  -0.0069515   0.0787555
    3  -0.0018638  -0.0073058  -0.0180277  -0.0058811  -0.0235450   0.0380880
          133         134         135         136         137         138
    1   0.0013256   0.0084834   0.0126561  -0.0288457  -0.0090628  -0.0056928
    2   0.0073266   0.0193200   0.0090540   0.0128161  -0.0308776   0.0011367
    3   0.0051247   0.0293220  -0.0269070  -0.0042816  -0.0531654   0.0051905
          139         140         141         142         143         144
    1  -0.0085331   0.0134814  -0.0360651   0.0985393  -0.0005996   0.0284989
    2  -0.0310411   0.0167362   0.0108735   0.0011637   0.0057640   0.0226736
    3  -0.0146339   0.0162606   0.0030593   0.0513368   0.0014821   0.0057168
          145         146         147         148         149         150
    1   0.0090136  -0.0360817  -0.0307202   0.0019413  -0.0000754   0.0163832
    2   0.0092391   0.0138250  -0.0373945   0.0033975  -0.0242608   0.0258960
    3  -0.0271254  -0.0088061  -0.0224615   0.0051679   0.0218409   0.0106969
          151         152         153         154         155         156
    1  -0.0345910   0.1104968  -0.0023635  -0.0003305   0.0239017  -0.0229713
    2   0.0004266  -0.0029519   0.0045584   0.0045183   0.0163807   0.0118805
    3   0.0172424   0.0018081   0.0036271   0.0313538  -0.0051083  -0.0175064
          157         158         159         160         161         162
    1   0.0001531  -0.0044750  -0.0330178  -0.0058501   0.0111518   0.0847220
    2  -0.0131453  -0.0019865   0.0056165  -0.0234503   0.0019867  -0.0332288
    3  -0.0590595   0.0050666  -0.0087418  -0.0112262   0.0319413   0.0684251
          163         164         165         166         167         168
    1  -0.0060374  -0.0221278   0.0063757  -0.0191790   0.0292431   0.0039932
    2  -0.0031312   0.0058812   0.0212508  -0.0182359   0.0452052  -0.0063054
    3  -0.0072977   0.0216974  -0.0280990  -0.0249170   0.0255848  -0.0070750
          169         170         171         172         173         174
    1   0.0233014  -0.0197527   0.0144002  -0.0231262  -0.0034809   0.0117348
    2  -0.0155362  -0.0171088   0.0185765  -0.0901465  -0.0007446   0.0041868
    3   0.0215246  -0.0198617  -0.0230430   0.0594233   0.0072194   0.0229174
          175         176         177         178         179         180
    1  -0.0183471  -0.0104563   0.0179861  -0.0033186  -0.0311069   0.0177139
    2   0.0284945  -0.0298350   0.0562100  -0.0051238   0.0123386  -0.0048168
    3  -0.0041956   0.0113857  -0.0254530  -0.0056073   0.0037014  -0.0244012
          181         182         183         184         185         186
    1  -0.0068639   0.0748265   0.0078188   0.0042424   0.0208498   0.0037700
    2  -0.0308751  -0.0681506  -0.0052135  -0.0042762   0.0086020  -0.0322484
    3   0.0082462   0.0422051  -0.0001721  -0.0293276   0.0182772   0.0160071
          187         188         189         190         191         192
    1  -0.0140167  -0.0046065  -0.0121658  -0.0299247   0.0116859   0.0087844
    2   0.0147685  -0.0046249  -0.0288002   0.0077007  -0.0102803   0.0571282
    3   0.0449380  -0.0025329   0.0178479  -0.0116406  -0.0261050  -0.0939403
          193         194         195         196         197         198
    1  -0.0041640  -0.0169219   0.0112423  -0.0172399   0.0367771   0.0009887
    2  -0.0051997  -0.0166589  -0.0313635   0.0104890  -0.0114089  -0.0018722
    3   0.0066122  -0.0236359   0.0002768   0.0271181  -0.0359293   0.0115950
          199         200         201         202         203         204
    1   0.0193821   0.0117079  -0.0254267  -0.0599763   0.0030832   0.0140913
    2  -0.0273938   0.0288370  -0.0003224   0.0914999   0.0015575  -0.0202856
    3   0.0105613   0.0001972   0.0255484   0.0063944  -0.0088842  -0.0218778
          205         206         207         208         209         210
    1  -0.0235459   0.0184210  -0.0210989   0.0086124   0.0076748   0.0124679
    2   0.0200611   0.0345448   0.0380209  -0.0002266  -0.0269737   0.0311404
    3  -0.0078058  -0.0095362   0.0390235  -0.0008147  -0.0227802   0.0125172
          211         212         213         214         215         216
    1   0.0098014  -0.0365254  -0.0001165   0.0106190   0.0220080  -0.0312856
    2  -0.0229836  -0.1006809  -0.0078603   0.0153289  -0.0138447  -0.0188206
    3   0.0197639  -0.0140820  -0.0083395  -0.0228626   0.0144224  -0.0119651
          217         218         219         220         221         222
    1  -0.0449487  -0.0042026  -0.0061618   0.0249459  -0.0260276   0.0941342
    2  -0.0194766   0.0025627   0.0212779   0.0030010  -0.0073450   0.0231154
    3   0.0231827  -0.0080669   0.0220695  -0.0168948  -0.0294921   0.0512983
          223         224         225         226         227         228
    1  -0.0017707   0.0215366  -0.0206842   0.0061724  -0.0491635   0.0062614
    2   0.0105170   0.0266253   0.0101756   0.0104278  -0.0374887   0.0072481
    3   0.0008713  -0.0110844  -0.0282577   0.0344853   0.0118790   0.0071339
          229         230         231         232         233         234
    1   0.0090155   0.0290622  -0.0124811   0.0573818   0.0074710   0.0263925
    2  -0.0281499   0.0237790   0.0082668  -0.0047510   0.0008335   0.0245116
    3   0.0057083  -0.0014885   0.0309449  -0.0915183   0.0015342   0.0162809
          235         236         237         238         239         240
    1   0.0243365   0.0230715  -0.0082041  -0.0015959   0.0173099   0.0036918
    2  -0.0078487   0.0164729  -0.0448620   0.0085152   0.0290557   0.0036154
    3   0.0153987  -0.0301344  -0.0346770   0.0004079   0.0069688  -0.0315240
          241         242         243         244         245         246
    1  -0.0319742  -0.0058842  -0.0023460  -0.0047578  -0.0241222   0.0190345
    2  -0.0034632  -0.0067379  -0.0005319   0.0330079  -0.0237076  -0.0164781
    3   0.0078986   0.1085656   0.0121681   0.0150637   0.0111943   0.0256841
          247         248         249         250         251         252
    1   0.0533423  -0.0128317  -0.0324044  -0.0042365   0.0040616  -0.0230649
    2   0.0227681   0.0005945  -0.0165807   0.0337905   0.0080399  -0.1040492
    3  -0.0034376   0.0013675   0.0180331   0.0106801  -0.0295880  -0.0345972
          253         254         255         256         257         258
    1   0.0048060   0.0143157  -0.0280214   0.0149572  -0.0377747   0.0036524
    2  -0.0027605   0.0229830  -0.0048308  -0.0276247   0.0429374  -0.0099673
    3   0.0051060   0.0131821   0.0129956   0.0069521  -0.0239904  -0.0040424
          259         260         261         262         263         264
    1  -0.0320581   0.0167023   0.0168908   0.1096846   0.0022160  -0.0170129
    2   0.0012084   0.0021782  -0.0212389   0.0059646   0.0045932   0.0313858
    3   0.0008818  -0.0297639   0.0195370  -0.0153960   0.0060289   0.0064326
          265         266         267         268         269         270
    1  -0.0116439   0.0300177   0.0138688  -0.0037156  -0.0284822  -0.0107699
    2  -0.0101391  -0.0025484   0.0418190  -0.0020514   0.0215806  -0.0112743
    3   0.0259164   0.0162366  -0.0387692   0.0012797   0.0010114  -0.0277117
          271         272
    1  -0.0060242   0.0541561
    2  -0.0162209  -0.0928311
    3   0.0225889   0.0065645
  --- DONE ESP SUMMARY ---
Archival summary:
1\1\n0077.mhg0\SP\ProcedureUnspecified\6-31+G*\252550h22\ymao\FriMar1209:38:582021FriMar1209:38:582021\0\\#,ProcedureUnspecified,6-31+G*,\\0,1\S\O,1,1.49697\C,1,1.80692,2,102.445\H,3,1.09226,1,110.135,2,-84.0147,0\H,3,1.09353,1,110.968,2,157.917,0\H,3,1.09367,1,110.037,2,37.5393,0\C,1,1.8075,2,102.766,3,-97.7168,0\H,7,1.09238,1,104.277,2,174.011,0\H,7,1.09302,1,110.452,2,52.9581,0\H,7,1.09316,1,113.174,2,-66.8548,0\Gh,5,2.2784,3,101.584,1,-50.5668,0\Gh,11,1.09654,5,142.624,3,164.645,0\Gh,12,1.09659,11,103.781,5,91.8145,0\Gh,12,1.53787,11,109.208,5,-159.469,0\Gh,14,1.09652,12,113.48,11,-170.908,0\Gh,14,1.09668,12,109.008,11,-53.3677,0\Gh,14,1.53779,12,107.936,11,72.6372,0\Gh,17,1.09661,14,114.315,12,-68.9996,0\Gh,17,1.09693,14,102.139,12,-177.53,0\Gh,17,1.53669,14,115.544,12,59.8539,0\Gh,20,1.09675,17,107.725,14,179.351,0\Gh,20,1.09719,17,106.335,14,57.3106,0\Gh,20,1.53725,17,106.55,14,-55.5575,0\Gh,23,1.09646,20,110.007,17,175.441,0\Gh,23,1.09675,20,107.54,17,-69.6077,0\Gh,23,1.53816,20,115.202,17,51.4619,0\Gh,26,1.09648,23,106.893,20,67.71,0\Gh,26,1.46184,23,104.168,20,-173.138,0\Gh,28,1.01242,26,115.858,23,41.9075,0\Gh,28,1.37927,26,119.895,23,-170.046,0\Gh,30,1.10523,28,113.491,26,-146.67,0\Gh,30,1.2183,28,123.919,26,29.5447,0\H,19,2.01119,17,114.144,14,98.9529,0\C,33,1.0933,19,152.629,17,-21.2893,0\H,34,1.09291,33,111.369,19,163.116,0\H,34,1.09304,33,109.26,19,41.1599,0\S,34,1.80735,33,111.556,19,-72.6187,0\O,37,1.49702,34,106.27,33,174.121,0\C,37,1.80678,34,97.8763,33,-77.4824,0\H,39,1.09283,37,105.332,34,-142.45,0\H,39,1.09315,37,111.492,34,102.735,0\H,39,1.09321,37,112.258,34,-32.4745,0\O,29,2.16085,28,164.652,26,-154.073,0\S,43,1.49661,29,111.086,28,29.1022,0\C,44,1.80685,43,107.973,29,20.4256,0\H,45,1.09274,44,101.283,43,150.977,0\H,45,1.09307,44,110.626,43,-85.6768,0\H,45,1.09309,44,112.862,43,34.1293,0\C,44,1.80694,43,104.438,29,121.458,0\H,49,1.09234,44,106.877,43,-60.4273,0\H,49,1.09335,44,109.92,43,64.671,0\H,49,1.09338,44,107.096,43,-173.519,0\H,31,2.1782,30,101.775,28,106.329,0\C,53,1.0933,31,153.099,30,-108.7,0\H,54,1.09232,53,109.738,31,114.035,0\H,54,1.09306,53,117.293,31,-8.13962,0\S,54,1.80727,53,102.673,31,-132.891,0\O,57,1.49633,54,105.908,53,157.253,0\C,57,1.80706,54,101.417,53,51.3361,0\H,59,1.09293,57,106.802,54,-44.8447,0\H,59,1.09314,57,106.565,54,-159.447,0\H,59,1.09314,57,106.501,54,79.8797,0\H,24,2.26452,23,134.853,20,9.74476,0\C,63,1.0928,24,126.872,23,-160.497,0\H,64,1.09283,63,104.727,24,-126.33,0\H,64,1.0931,63,115.634,24,105.892,0\S,64,1.80703,63,110.421,24,-15.5853,0\O,67,1.49637,64,105.908,63,60.6013,0\C,67,1.80789,64,94.1705,63,164.947,0\H,69,1.09291,67,106.441,64,-173.953,0\H,69,1.09299,67,109.462,64,-58.7935,0\H,69,1.0933,67,105.776,64,62.1371,0\H,71,2.04517,69,158.561,67,-40.6673,0\C,73,1.0933,71,126.991,69,5.49284,0\H,74,1.09284,73,111.471,71,-161.169,0\H,74,1.09321,73,103.154,71,-35.8472,0\S,74,1.80717,73,107.942,71,83.0298,0\O,77,1.49593,74,108.935,73,157.149,0\C,77,1.80733,74,93.3685,73,51.8628,0\H,79,1.09265,77,107.242,74,162.754,0\H,79,1.09338,77,113.418,74,-74.1016,0\H,79,1.09379,77,110.122,74,42.3586,0\H,80,1.88128,79,160.767,77,91.589,0\C,83,1.0928,80,126.622,79,104.474,0\H,84,1.09235,83,108.22,80,-126.501,0\H,84,1.09318,83,110.855,80,-5.68188,0\S,84,1.80668,83,105.117,80,118.41,0\O,87,1.49664,84,99.4625,83,-161.917,0\C,87,1.8073,84,100.322,83,-53.3574,0\H,89,1.09261,87,109.329,84,68.9461,0\H,89,1.09322,87,111.141,84,-56.4774,0\H,89,1.09352,87,111.682,84,-168.181,0\H,47,2.28438,45,137.022,44,-16.3925,0\C,93,1.09359,47,133.621,45,-106.297,0\H,94,1.0927,93,104.015,47,111.343,0\H,94,1.09327,93,112.373,47,-13.0143,0\S,94,1.80722,93,101.525,47,-132.262,0\O,97,1.49659,94,105.057,93,-32.9652,0\C,97,1.80767,94,98.9384,93,70.5549,0\H,99,1.09248,97,115.12,94,158.287,0\H,99,1.09303,97,105.705,94,36.3666,0\H,99,1.09317,97,107.096,94,-82.9141,0\H,41,2.30767,39,157.141,37,-172.323,0\C,103,1.09255,41,114.312,39,35.4793,0\H,104,1.09333,103,103.043,41,-22.6415,0\H,104,1.09339,103,117.847,41,-144.787,0\S,104,1.80674,103,108.577,41,98.6205,0\O,107,1.49711,104,100.991,103,62.6175,0\C,107,1.807,104,98.0721,103,-48.3059,0\H,109,1.09238,107,105.992,104,-166.146,0\H,109,1.09301,107,98.7099,104,-47.9789,0\H,109,1.09392,107,114.222,104,72.1421,0\H,50,2.30769,49,176.069,44,-26.7753,0\C,113,1.0929,50,106.89,49,148.563,0\H,114,1.09293,113,102.475,50,-97.2851,0\H,114,1.09319,113,113.103,50,20.0874,0\S,114,1.80667,113,107.787,50,144.213,0\O,117,1.49755,114,99.65,113,61.6007,0\C,117,1.80753,114,97.5394,113,-49.7488,0\H,119,1.09298,117,104.284,114,49.7412,0\H,119,1.09335,117,104.518,114,-68.7856,0\H,119,1.09343,117,115.949,114,174.013,0\H,102,2.3229,99,106.219,97,-162.645,0\C,123,1.09389,102,136.421,99,-178.236,0\H,124,1.09275,123,100.72,102,161.633,0\H,124,1.0931,123,116.213,102,40.5205,0\S,124,1.80642,123,112.396,102,-82.4875,0\O,127,1.49675,124,107.149,123,-63.3754,0\C,127,1.80672,124,95.6709,123,-171.962,0\H,129,1.0928,127,114.341,124,-48.319,0\H,129,1.09302,127,103.153,124,-167.398,0\H,129,1.0931,127,104.017,124,71.5028,0\O,61,2.35187,59,126.689,57,61.7801,0\S,133,1.49729,61,119.187,59,55.6497,0\C,134,1.80739,133,106.237,61,157.908,0\H,135,1.0929,134,118.551,133,-171.57,0\H,135,1.09303,134,109.939,133,-51.545,0\H,135,1.0935,134,109.683,133,65.747,0\C,134,1.80774,133,104.418,61,-101.354,0\H,139,1.09262,134,105.682,133,56.9289,0\H,139,1.09292,134,109.99,133,179.279,0\H,139,1.09303,134,108.888,133,-57.0112,0\H,142,2.13665,139,122.587,134,151.598,0\C,143,1.09288,142,117.261,139,39.0582,0\H,144,1.09252,143,106.721,142,-0.0202921,0\H,144,1.09396,143,115.741,142,131.762,0\S,144,1.8065,143,110.419,142,-111.92,0\O,147,1.49769,144,110.058,143,25.8803,0\C,147,1.80696,144,95.9883,143,-80.6438,0\H,149,1.09289,147,99.4364,144,70.9812,0\H,149,1.09313,147,113.46,144,-161.154,0\H,149,1.09317,147,112.978,144,-33.8987,0\H,136,2.28697,135,129.9,134,66.7161,0\C,153,1.09287,136,145.509,135,-9.55127,0\H,154,1.0925,153,105.007,136,106.306,0\H,154,1.09364,153,106.273,136,-133.071,0\S,154,1.80684,153,112.285,136,-10.3415,0\O,157,1.49716,154,108.728,153,56.9171,0\C,157,1.80684,154,91.0186,153,162.555,0\H,159,1.09298,157,99.4753,154,49.5547,0\H,159,1.09329,157,117.541,154,-72.7865,0\H,159,1.09338,157,112.422,154,159.582,0\H,153,2.15994,136,62.9417,135,-165.93,0\C,163,1.09317,153,143.757,136,84.4193,0\H,164,1.0924,163,110.7,153,-175.923,0\H,164,1.0936,163,110.475,153,-53.8619,0\S,164,1.80647,163,107.553,153,68.8052,0\O,167,1.49751,164,101.867,163,-28.7567,0\C,167,1.80743,164,91.6193,163,69.1408,0\H,169,1.09211,167,104.545,164,-167.929,0\H,169,1.09298,167,107.934,164,73.0983,0\H,169,1.09322,167,108.873,164,-49.7346,0\H,112,2.35434,109,147.234,107,61.9245,0\C,173,1.09317,112,116.164,109,-10.6437,0\H,174,1.09226,173,115.135,112,106.616,0\H,174,1.09329,173,115.582,112,-13.3134,0\S,174,1.80654,173,104.218,112,-134.707,0\O,177,1.49699,174,107.186,173,-35.897,0\C,177,1.80765,174,93.8719,173,77.4413,0\H,179,1.09215,177,100.916,174,-61.1073,0\H,179,1.09304,177,108.302,174,47.3785,0\H,179,1.09368,177,116.554,174,-177.57,0\H,36,2.37096,34,121.85,33,162.673,0\C,183,1.09301,36,129.673,34,-14.8707,0\H,184,1.09269,183,104.104,36,0.596856,0\H,184,1.09331,183,113.252,36,-110.735,0\S,184,1.80707,183,115.381,36,120.276,0\O,187,1.49634,184,100.724,183,153.302,0\C,187,1.80729,184,95.692,183,55.8426,0\H,189,1.09302,187,102.318,184,58.7069,0\H,189,1.09305,187,110.982,184,-176.67,0\H,189,1.09311,187,113.286,184,-48.7819,0\O,185,2.39613,184,106.472,183,-70.5825,0\S,193,1.49669,185,153.809,184,-21.4182,0\C,194,1.80719,193,105.502,185,87.09,0\H,195,1.09251,194,106.605,193,88.3845,0\H,195,1.09279,194,103.163,193,-160.198,0\H,195,1.09287,194,119.683,193,-37.1786,0\C,194,1.80766,193,102.019,185,-12.3625,0\H,199,1.09294,194,109.826,193,-60.4982,0\H,199,1.09317,194,109.945,193,60.2223,0\H,199,1.09319,194,109.449,193,178.324,0\O,16,2.4434,14,140.734,12,-139.144,0\S,203,1.4969,16,108.578,14,123.587,0\C,204,1.80649,203,103.99,16,21.6032,0\H,205,1.09232,204,111.7,203,-77.7478,0\H,205,1.09303,204,105.157,203,163.644,0\H,205,1.09361,204,102.989,203,41.5563,0\C,204,1.80725,203,106.261,16,121.572,0\H,209,1.09257,204,109.423,203,76.1875,0\H,209,1.09335,204,109.051,203,-165.738,0\H,209,1.09365,204,104.305,203,-46.7009,0\H,85,2.4778,84,137.261,83,22.582,0\C,213,1.09295,85,126.215,84,65.0422,0\H,214,1.09266,213,114.949,85,-170.725,0\H,214,1.09284,213,112.35,85,-48.1966,0\S,214,1.80697,213,110.063,85,68.6002,0\O,217,1.49675,214,98.1332,213,177.934,0\C,217,1.80702,214,95.1249,213,73.7695,0\H,219,1.09292,217,105.283,214,59.5938,0\H,219,1.09299,217,119.176,214,-63.7161,0\H,219,1.09337,217,104.987,214,172.204,0\H,95,2.47959,94,144.924,93,35.08,0\C,223,1.09335,95,108.327,94,-11.4572,0\H,224,1.09268,223,109.216,95,-33.7364,0\H,224,1.09338,223,116.014,95,86.3821,0\S,224,1.80606,223,103.014,95,-151.462,0\O,227,1.49694,224,105.604,223,70.3518,0\C,227,1.80688,224,93.0936,223,171.219,0\H,229,1.09228,227,108.092,224,-45.7729,0\H,229,1.09309,227,108.742,224,75.6312,0\H,229,1.09352,227,113.141,224,-166.718,0\H,223,2.22075,95,72.7601,94,-116.51,0\C,233,1.09335,223,161.233,95,-109.635,0\H,234,1.0926,233,110.779,223,-3.91147,0\H,234,1.09332,233,116.617,223,-143.134,0\S,234,1.80659,233,108.411,223,106.906,0\O,237,1.49729,234,100.077,233,69.9304,0\C,237,1.8068,234,92.9748,233,179.896,0\H,239,1.09313,237,113.625,234,-156.952,0\H,239,1.09318,237,112.394,234,78.9968,0\H,239,1.09355,237,105.568,234,-44.0016,0\H,46,2.53072,45,140.661,44,151.762,0\C,243,1.09246,46,153.855,45,145.919,0\H,244,1.09302,243,118.775,46,97.5856,0\H,244,1.09305,243,110.77,46,-129.317,0\S,244,1.80753,243,97.6089,46,-16.2361,0\O,247,1.49713,244,112.718,243,-16.125,0\C,247,1.80663,244,93.4246,243,91.3637,0\H,249,1.09242,247,111.791,244,57.364,0\H,249,1.0932,247,110.744,244,-62.3379,0\H,249,1.09352,247,105.082,244,177.587,0\H,196,2.6576,195,129.77,194,9.9778,0\C,253,1.09319,196,115.381,195,-102.292,0\H,254,1.09263,253,104.061,196,-175.327,0\H,254,1.09308,253,113.483,196,-50.6053,0\S,254,1.8073,253,116.636,196,76.5424,0\O,257,1.49759,254,96.6401,253,158.935,0\C,257,1.80709,254,96.2622,253,57.7716,0\H,259,1.09318,257,115.767,254,-99.6473,0\H,259,1.09324,257,105.714,254,146.767,0\H,259,1.09342,257,109.931,254,27.0916,0\O,197,2.83244,195,122.644,194,-62.9905,0\S,263,1.49777,197,126.548,195,-101.229,0\C,264,1.80712,263,100.873,197,-111.711,0\H,265,1.09278,264,104.922,263,-163.748,0\H,265,1.093,264,105.224,263,-55.4777,0\H,265,1.09313,264,108.232,263,72.7858,0\C,264,1.80717,263,104.305,197,150.112,0\H,269,1.09249,264,104.117,263,170.134,0\H,269,1.09334,264,106.502,263,-61.2899,0\H,269,1.09342,264,108.111,263,52.448,0\\\@

 Total job time:  69.58s(wall), 222.92s(cpu) 
 Fri Mar 12 09:38:58 2021

        *************************************************************
        *                                                           *
        *  Thank you very much for using Q-Chem.  Have a nice day.  *
        *                                                           *
        *************************************************************


