                  Welcome to Q-Chem
     A Quantum Leap Into The Future Of Chemistry


 Q-Chem 5.2 (devel), Q-Chem, Inc., Pleasanton, CA (2019)

 Yihan Shao,  Zhengting Gan,  E. Epifanovsky,  A. T. B. Gilbert,  M. Wormit,  
 J. Kussmann,  A. W. Lange,  A. Behn,  Jia Deng,  Xintian Feng,  D. Ghosh,  
 M. Goldey,  P. R. Horn,  L. D. Jacobson,  I. Kaliman,  T. Kus,  A. Landau,  
 Jie Liu,  E. I. Proynov,  R. M. Richard,  R. P. Steele,  E. J. Sundstrom,  
 H. L. Woodcock III,  P. M. Zimmerman,  D. Zuev,  B. Alam,  B. Albrecht,  
 E. Alguire,  S. A. Baeppler,  D. Barton,  Z. Benda,  Y. A. Bernard,  
 E. J. Berquist,  K. B. Bravaya,  H. Burton,  K. Carter-Fenk,  D. Casanova,  
 Chun-Min Chang,  Yunqing Chen,  A. Chien,  K. D. Closser,  M. P. Coons,  
 S. Coriani,  S. Dasgupta,  A. L. Dempwolff,  M. Diedenhofen,  Hainam Do,  
 R. G. Edgar,  Po-Tung Fang,  S. Faraji,  S. Fatehi,  Qingguo Feng,  
 J. Fosso-Tande,  J. Gayvert,  Qinghui Ge,  A. Ghysels,  G. Gidofalvi,  
 J. Gomes,  J. Gonthier,  A. Gunina,  D. Hait,  M. W. D. Hanson-Heine,  
 P. H. P. Harbach,  A. W. Hauser,  M. F. Herbst,  J. E. Herr,  
 E. G. Hohenstein,  Z. C. Holden,  Kerwin Hui,  B. C. Huynh,  T.-C. Jagau,  
 Hyunjun Ji,  B. Kaduk,  K. Khistyaev,  Jaehoon Kim,  P. Klunzinger,  K. Koh,  
 D. Kosenkov,  L. Koulias,  T. Kowalczyk,  C. M. Krauter,  A. Kunitsa,  
 Ka Un Lao,  A. Laurent,  K. V. Lawler,  Joonho Lee,  D. Lefrancois,  
 S. Lehtola,  D. S. Levine,  Yi-Pei Li,  You-Sheng Lin,  Fenglai Liu,  
 Kuan-Yu Liu,  E. Livshits,  M. Loipersberger,  A. Luenser,  P. Manohar,  
 E. Mansoor,  S. F. Manzer,  Shan-Ping Mao,  Yuezhi Mao,  N. Mardirossian,  
 A. V. Marenich,  T. Markovich,  L. A. Martinez-Martinez,  S. A. Maurer,  
 N. J. Mayhall,  S. C. McKenzie,  J.-M. Mewes,  P. Morgante,  A. F. Morrison,  
 J. W. Mullinax,  K. Nanda,  T. S. Nguyen-Beck,  R. Olivares-Amaya,  
 J. A. Parkhill,  S. K. Paul,  F. Pavosevic,  Zheng Pei,  T. M. Perrine,  
 F. Plasser,  P. Pokhilko,  S. Prager,  A. Prociuk,  E. Ramos,  B. Rana,  
 D. R. Rehn,  F. Rob,  M. Scheurer,  M. Schneider,  N. Sergueev,  
 S. M. Sharada,  S. Sharma,  D. W. Small,  T. Stauch,  C. J. Stein,  
 T. Stein,  Yu-Chuan Su,  S. P. Veccham,  Zhen Tao,  A. J. W. Thom,  
 A. Tkatchenko,  T. Tsuchimochi,  N. M. Tubman,  L. Vogt,  M. L. Vidal,  
 O. Vydrov,  M. A. Watson,  J. Wenzel,  M. de Wergifosse,  T. A. Wesolowski,  
 A. White,  J. Witte,  A. Yamada,  Jun Yang,  K. Yao,  S. Yeganeh,  
 S. R. Yost,  Zhi-Qiang You,  A. Zech,  Igor Ying Zhang,  Xing Zhang,  
 Yan Zhao,  Ying Zhu,  B. R. Brooks,  G. K. L. Chan,  C. J. Cramer,  
 M. S. Gordon,  W. J. Hehre,  A. Klamt,  M. W. Schmidt,  C. D. Sherrill,  
 D. G. Truhlar,  A. Aspuru-Guzik,  R. Baer,  A. T. Bell,  N. A. Besley,  
 Jeng-Da Chai,  A. E. DePrince, III,  R. A. DiStasio Jr.,  A. Dreuw,  
 B. D. Dunietz,  T. R. Furlani,  Chao-Ping Hsu,  Yousung Jung,  Jing Kong,  
 D. S. Lambrecht,  WanZhen Liang,  C. Ochsenfeld,  V. A. Rassolov,  
 L. V. Slipchenko,  J. E. Subotnik,  T. Van Voorhis,  J. M. Herbert,  
 A. I. Krylov,  P. M. W. Gill,  M. Head-Gordon

 Contributors to earlier versions of Q-Chem not listed above: 
 R. D. Adamson,  B. Austin,  J. Baker,  G. J. O. Beran,  K. Brandhorst,  
 S. T. Brown,  E. F. C. Byrd,  A. K. Chakraborty,  C.-L. Cheng,  
 Siu Hung Chien,  D. M. Chipman,  D. L. Crittenden,  H. Dachsel,  
 R. J. Doerksen,  A. D. Dutoi,  L. Fusti-Molnar,  W. A. Goddard III,  
 A. Golubeva-Zadorozhnaya,  S. R. Gwaltney,  G. Hawkins,  A. Heyden,  
 S. Hirata,  G. Kedziora,  F. J. Keil,  C. Kelley,  Jihan Kim,  R. A. King,  
 R. Z. Khaliullin,  P. P. Korambath,  W. Kurlancheek,  A. M. Lee,  M. S. Lee,  
 S. V. Levchenko,  Ching Yeh Lin,  D. Liotard,  R. C. Lochan,  I. Lotan,  
 P. E. Maslen,  N. Nair,  D. P. O'Neill,  D. Neuhauser,  E. Neuscamman,  
 C. M. Oana,  R. Olson,  B. Peters,  R. Peverati,  P. A. Pieniazek,  
 Y. M. Rhee,  J. Ritchie,  M. A. Rohrdanz,  E. Rosta,  N. J. Russ,  
 H. F. Schaefer III,  N. E. Schultz,  N. Shenvi,  A. C. Simmonett,  A. Sodt,  
 D. Stuck,  K. S. Thanthiriwatte,  V. Vanovschi,  Tao Wang,  A. Warshel,  
 C. F. Williams,  Q. Wu,  X. Xu,  W. Zhang

 Please cite Q-Chem as follows:
 Y. Shao et al., Mol. Phys. 113, 184-215 (2015)
 DOI: 10.1080/00268976.2014.952696

 Q-Chem 5.2.2 for Intel X86 EM64T Linux

 Parts of Q-Chem use Armadillo 9.800.1 (Horizon Scraper).
 http://arma.sourceforge.net/

 Q-Chem begins on Thu Mar 11 13:37:48 2021  

Host: n0099.mhg0
0

     Scratch files written to /local/scratch/users/ymao/r7.00_frame_0016_almo_B3LYP_dp.in20210311133745//

Checking the input file for inconsistencies... 	...done.

--------------------------------------------------------------
User input:
--------------------------------------------------------------
$molecule
0 1
--
0 1
C    22.55600   17.32400   29.18100  
C    23.91700   17.44200   28.47600  
C    23.88000   18.42300   27.29200  
C    23.34700   19.74100   27.87900  
C    21.97900   19.63900   28.57300  
C    22.04300   18.65600   29.75300  
H    24.81500   18.45400   26.72000  
H    24.59600   17.94400   29.17600  
H    21.78900   17.09100   28.43300  
H    22.52700   16.45700   29.85300  
H    24.07200   20.17200   28.58000  
H    23.46700   20.45000   27.05000  
H    21.63000   20.60200   28.96600  
H    21.18700   19.28900   27.89900  
H    22.76900   19.04000   30.48000  
H    21.05200   18.55000   30.21100  
H    23.11900   18.05900   26.59100  
N    24.47700   16.17900   27.99800  
H    24.42700   15.88900   27.02900  
C    25.10700   15.25300   28.80100  
H    25.29100   14.28100   28.30900  
O    25.27800   15.42400   29.99500  
--
0 1
C    24.12800   25.08500   29.06000  
H    25.12300   25.51600   28.92600  
H    23.41100   25.51100   28.35300  
H    23.82600   25.26500   30.09500  
S    24.11800   23.28200   28.93900  
C    24.40800   23.43200   27.16100  
H    23.79700   24.21600   26.70800  
H    25.42200   23.82200   27.03800  
H    24.23400   22.52800   26.57200  
O    22.69100   22.83900   29.03300  
C    21.19500   20.07000   24.65600  
H    21.51000   19.08400   25.00500  
H    20.70900   20.18700   23.68400  
H    22.06900   20.72400   24.60400  
S    20.02800   20.82200   25.81400  
C    18.67600   19.66300   25.50900  
H    17.74400   20.00400   25.96700  
H    18.55000   19.47800   24.44000  
H    19.05800   18.74600   25.96500  
O    19.68200   22.01200   24.97400  
C    29.19000   16.05200   32.40000  
H    28.84400   16.50900   33.33100  
H    29.92900   16.65700   31.87000  
H    28.32000   16.01400   31.73900  
S    29.72200   14.33800   32.61100  
C    28.75500   13.84100   34.05400  
H    29.12500   14.46700   34.87000  
H    27.76000   14.21800   33.80400  
H    28.73300   12.77500   34.29500  
O    31.02000   14.37900   33.35600  
C    22.59100   10.61800   28.06800  
H    22.84100   10.75800   27.01300  
H    21.67800   10.02900   28.19200  
H    22.50700   11.50600   28.69900  
S    23.79700   9.52000    28.84700  
C    23.83200   8.25400    27.55800  
H    23.97500   8.77200    26.60700  
H    24.69000   7.57800    27.58600  
H    22.94800   7.61400    27.49100  
O    23.03600   8.94400    30.00100  
C    25.61300   17.60100   32.08600  
H    26.04400   16.64700   32.39900  
H    24.82100   18.02700   32.70900  
H    25.18200   17.39300   31.10300  
S    26.86400   18.87300   31.79700  
C    25.70700   20.15400   31.26200  
H    24.86500   20.32600   31.93700  
H    26.26000   21.07900   31.07900  
H    25.32600   19.78100   30.30800  
O    27.60100   18.42900   30.57200  
C    20.50300   20.84300   33.10100  
H    20.13600   20.25700   33.94700  
H    19.84600   21.70900   32.98500  
H    20.46000   20.18900   32.22600  
S    22.22100   21.25600   33.47500  
C    22.58800   22.07600   31.90700  
H    23.63700   22.35900   31.78500  
H    22.41200   21.40000   31.06600  
H    21.86000   22.88600   31.81800  
O    22.89800   19.92900   33.33100  
C    14.39900   20.67600   27.34000  
H    13.80800   19.76300   27.23300  
H    13.67300   21.45200   27.59700  
H    14.91000   20.89700   26.39900  
S    15.58500   20.37300   28.66900  
C    16.43100   21.90400   28.21500  
H    17.32300   21.86000   28.84500  
H    16.70800   21.86800   27.15800  
H    15.75700   22.72400   28.47400  
O    16.38200   19.21900   28.14600  
C    26.71100   12.61400   24.62300  
H    26.09100   11.84400   24.15800  
H    26.54700   13.66500   24.37000  
H    27.75100   12.48600   24.31100  
S    26.57500   12.51000   26.42200  
C    26.87900   10.73400   26.55200  
H    27.00300   10.46400   27.60400  
H    26.00200   10.21500   26.15500  
H    27.77700   10.55200   25.95700  
O    25.14500   12.52200   26.86500  
C    28.63600   24.86500   31.55800  
H    29.15300   25.08700   32.49500  
H    28.89400   25.64600   30.83800  
H    27.57400   24.85300   31.81400  
S    29.10800   23.24200   30.91900  
C    27.62000   23.03200   29.91500  
H    27.64100   23.71800   29.06500  
H    27.49100   21.97300   29.67400  
H    26.80500   23.31200   30.58700  
O    28.69900   22.50300   32.15500  
C    27.13900   24.58600   24.44300  
H    26.63600   25.31100   23.79900  
H    28.03900   24.20400   23.95400  
H    26.44000   23.82400   24.79800  
S    27.45500   25.31600   26.06500  
C    27.03400   27.00300   25.57200  
H    27.57900   27.17500   24.64000  
H    25.96200   27.16900   25.43300  
H    27.43600   27.59000   26.40100  
O    28.94900   25.28800   26.15800  
C    26.59600   22.89700   34.20300  
H    27.06100   23.70100   33.62600  
H    27.38300   22.40800   34.78300  
H    26.12100   22.24000   33.47000  
S    25.38900   23.59800   35.35000  
C    24.77400   22.02300   35.98900  
H    24.50400   21.41000   35.12500  
H    25.49300   21.56400   36.67200  
H    23.89000   22.21200   36.60400  
O    24.32200   23.96400   34.36600  
C    28.64200   12.75400   29.29100  
H    29.14500   12.63300   30.25400  
H    28.60700   13.79400   28.95800  
H    27.72000   12.16800   29.32700  
S    29.83500   11.89300   28.24200  
C    31.28700   12.77600   28.85700  
H    32.18200   12.19300   28.62800  
H    31.38900   13.66200   28.22500  
H    31.21700   13.00300   29.92400  
O    29.53300   12.35900   26.85200  
C    25.11200   13.47200   33.24600  
H    24.42600   14.28500   32.99400  
H    24.47000   12.66200   33.60200  
H    25.71100   13.87300   34.06800  
S    26.09800   12.98400   31.81200  
C    24.75400   12.33900   30.79100  
H    24.31000   11.40200   31.13800  
H    23.98300   13.11300   30.78000  
H    25.11700   12.22400   29.76700  
O    26.63600   11.69000   32.33600  
C    28.69700   9.18500    30.85700  
H    29.00500   9.78700    29.99900  
H    28.78200   9.71600    31.80900  
H    29.36900   8.32700    30.94400  
S    26.93600   8.82600    30.66900  
C    26.83200   8.08700    32.31400  
H    27.62500   7.34900    32.46000  
H    26.93300   8.93700    32.99500  
H    25.89100   7.53200    32.33400  
O    26.76300   7.60200    29.82500  
C    20.72200   26.65200   29.90900  
H    20.72500   27.38300   30.72100  
H    21.75600   26.35100   29.72300  
H    20.21400   27.03500   29.02000  
S    19.66800   25.29100   30.46000  
C    18.27400   26.42200   30.66200  
H    18.54100   27.43800   30.96300  
H    17.63300   26.40700   29.77600  
H    17.63700   25.94900   31.41300  
O    20.05500   25.03800   31.88400  
C    17.77300   18.54700   31.63000  
H    17.56500   19.31700   30.88300  
H    16.88700   18.27800   32.21000  
H    18.56100   18.81400   32.34000  
S    18.51200   17.11600   30.81100  
C    17.07800   16.61400   29.83200  
H    17.31600   15.58700   29.54200  
H    16.14600   16.58800   30.40200  
H    16.85200   17.19900   28.93700  
O    18.53200   16.18600   31.98500  
C    20.65000   16.67600   34.66600  
H    19.95400   15.88600   34.37400  
H    20.56300   16.76300   35.75200  
H    20.46800   17.63700   34.17800  
S    22.33500   16.10000   34.35700  
C    22.09400   16.22900   32.57000  
H    21.94200   17.26700   32.26200  
H    22.99200   15.84800   32.07700  
H    21.26400   15.59500   32.24700  
O    22.23300   14.62000   34.55200  
C    21.58300   23.78000   22.99600  
H    21.78500   23.40500   24.00300  
H    20.83900   24.57500   22.90000  
H    21.26200   22.95000   22.36100  
S    23.17400   24.47500   22.49700  
C    24.17400   22.97200   22.58100  
H    23.75800   22.43000   23.43400  
H    24.05700   22.41800   21.64600  
H    25.18300   23.24600   22.89700  
O    23.61900   25.22800   23.71200  
C    18.89600   13.60200   26.27500  
H    19.92000   13.22700   26.34900  
H    18.14700   12.97000   26.75900  
H    18.63300   13.71000   25.21900  
S    18.83400   15.22300   27.07000  
C    17.06900   15.53300   26.83800  
H    16.95400   16.61900   26.79300  
H    16.83400   15.14600   25.84300  
H    16.36500   15.33300   27.65000  
O    19.39500   16.08600   25.98400  
C    26.59900   16.46800   22.18300  
H    25.80100   15.80900   21.83000  
H    26.47200   16.45900   23.26900  
H    26.46900   17.47900   21.78900  
S    28.14900   15.77600   21.56300  
C    27.65400   15.68700   19.82700  
H    27.71600   16.70300   19.42800  
H    28.41800   14.99700   19.46000  
H    26.70400   15.15800   19.72000  
O    28.07700   14.33300   21.95400  
C    25.92000   16.10300   36.88700  
H    26.36300   15.10500   36.83500  
H    25.81300   16.49500   37.90100  
H    24.89900   16.05400   36.49800  
S    26.96400   17.19400   35.89400  
C    25.75300   18.53500   35.84800  
H    24.87800   18.24400   35.26000  
H    25.51400   18.70600   36.90000  
H    26.23300   19.47600   35.56600  
O    26.83000   16.45400   34.60000  
C    22.61900   16.37600   23.24600  
H    21.90700   15.88700   22.57600  
H    22.03300   16.84600   24.04000  
H    23.25200   17.10300   22.73000  
S    23.74600   15.23500   24.07700  
C    22.44600   14.80500   25.25600  
H    22.86200   13.97200   25.83000  
H    22.20300   15.64900   25.90600  
H    21.49000   14.55600   24.78800  
O    24.57500   16.11700   24.95800  
C    20.23100   24.80200   26.55600  
H    21.02900   24.97100   27.28400  
H    19.50600   24.11500   27.00000  
H    20.64400   24.36100   25.64500  
S    19.42100   26.35400   26.11100  
C    20.93000   27.34800   26.13300  
H    21.36700   27.55400   25.15300  
H    20.64400   28.30900   26.56900  
H    21.58600   26.89900   26.88300  
O    18.67400   26.86800   27.30200  
C    27.35600   20.39000   22.88200  
H    26.67000   21.18600   22.58100  
H    28.29400   20.92500   23.05100  
H    27.36400   19.65500   22.07300  
S    26.73500   19.89500   24.50500  
C    25.08600   19.35400   24.00000  
H    24.80200   20.00400   23.16800  
H    25.14000   18.27600   23.82900  
H    24.28400   19.46300   24.73400  
O    26.38900   21.23700   25.07300  
C    27.53000   17.11700   27.45400  
H    28.56400   17.28500   27.76400  
H    26.92700   18.00700   27.65400  
H    27.14000   16.24100   27.97800  
S    27.84700   16.72000   25.72000  
C    28.90400   15.28900   26.03500  
H    29.16000   14.80800   25.08800  
H    29.77800   15.64700   26.58600  
H    28.25300   14.56600   26.53200  
O    28.86600   17.74200   25.32100  
C    19.19600   13.07800   32.85300  
H    18.80800   13.95200   32.32400  
H    18.30100   12.76200   33.39700  
H    19.91500   13.48100   33.57100  
S    19.79000   11.95700   31.56600  
C    21.29000   12.89900   31.20800  
H    21.78400   12.26900   30.46400  
H    21.07100   13.85400   30.72400  
H    21.97300   12.99800   32.05600  
O    18.97300   12.34600   30.37300  
C    20.90400   12.15400   23.11300  
H    20.16200   12.75300   23.64700  
H    21.58000   12.83300   22.58600  
H    20.51300   11.43300   22.39000  
S    21.84600   11.30900   24.40300  
C    21.74300   9.69500    23.59800  
H    20.66900   9.49700    23.54500  
H    22.17300   9.64600    22.59500  
H    22.17400   9.03800    24.35800  
O    20.80300   11.15700   25.46500  
C    29.28800   20.04900   28.17600  
H    29.24600   19.97700   29.26600  
H    28.29700   20.19900   27.73900  
H    29.82300   19.18900   27.76500  
S    30.25500   21.56100   27.96800  
C    29.45500   22.12100   26.44800  
H    28.98600   21.32900   25.85800  
H    28.64900   22.81800   26.69300  
H    30.15500   22.54600   25.72400  
O    31.63700   21.10100   27.62200  
C    19.71700   17.00100   19.64000  
H    20.68700   17.41900   19.92100  
H    19.76600   16.23200   18.86500  
H    19.01100   17.81100   19.44400  
S    19.10900   16.02300   21.03300  
C    19.61000   17.12400   22.37600  
H    20.39500   17.69500   21.87300  
H    18.72800   17.74900   22.54200  
H    19.94400   16.54300   23.23900  
O    20.12300   14.92400   21.09200  
$end

$rem
JOBTYPE  SP
METHOD  B3LYP
BASIS  6-31+G(D)
SYMMETRY  FALSE
SYM_IGNORE  TRUE
MEM_TOTAL  16000
MEM_STATIC  8000
MAX_SUB_FILE_NUM  16000
BASIS_LIN_DEP_THRESH  6
THRESH  14
SCF_CONVERGENCE  8
GEN_SCFMAN  TRUE
SCF_GUESS  FRAGMO
FD_MAT_VEC_PROD  FALSE
XC_GRID  000075000302
NL_GRID  1
MAX_SCF_CYCLES  200
FRGM_METHOD  STOLL
SCFMI_MODE  1
$end

$development
almo_efield  1
$end

$rem_frgm
SCF_CONVERGENCE  4
$end

--------------------------------------------------------------
 ----------------------------------------------------------------
             Standard Nuclear Orientation (Angstroms)
    I     Atom           X                Y                Z
 ----------------------------------------------------------------
    1      C      22.5560000000    17.3240000000    29.1810000000
    2      C      23.9170000000    17.4420000000    28.4760000000
    3      C      23.8800000000    18.4230000000    27.2920000000
    4      C      23.3470000000    19.7410000000    27.8790000000
    5      C      21.9790000000    19.6390000000    28.5730000000
    6      C      22.0430000000    18.6560000000    29.7530000000
    7      H      24.8150000000    18.4540000000    26.7200000000
    8      H      24.5960000000    17.9440000000    29.1760000000
    9      H      21.7890000000    17.0910000000    28.4330000000
   10      H      22.5270000000    16.4570000000    29.8530000000
   11      H      24.0720000000    20.1720000000    28.5800000000
   12      H      23.4670000000    20.4500000000    27.0500000000
   13      H      21.6300000000    20.6020000000    28.9660000000
   14      H      21.1870000000    19.2890000000    27.8990000000
   15      H      22.7690000000    19.0400000000    30.4800000000
   16      H      21.0520000000    18.5500000000    30.2110000000
   17      H      23.1190000000    18.0590000000    26.5910000000
   18      N      24.4770000000    16.1790000000    27.9980000000
   19      H      24.4270000000    15.8890000000    27.0290000000
   20      C      25.1070000000    15.2530000000    28.8010000000
   21      H      25.2910000000    14.2810000000    28.3090000000
   22      O      25.2780000000    15.4240000000    29.9950000000
   23      C      24.1280000000    25.0850000000    29.0600000000
   24      H      25.1230000000    25.5160000000    28.9260000000
   25      H      23.4110000000    25.5110000000    28.3530000000
   26      H      23.8260000000    25.2650000000    30.0950000000
   27      S      24.1180000000    23.2820000000    28.9390000000
   28      C      24.4080000000    23.4320000000    27.1610000000
   29      H      23.7970000000    24.2160000000    26.7080000000
   30      H      25.4220000000    23.8220000000    27.0380000000
   31      H      24.2340000000    22.5280000000    26.5720000000
   32      O      22.6910000000    22.8390000000    29.0330000000
   33      C      21.1950000000    20.0700000000    24.6560000000
   34      H      21.5100000000    19.0840000000    25.0050000000
   35      H      20.7090000000    20.1870000000    23.6840000000
   36      H      22.0690000000    20.7240000000    24.6040000000
   37      S      20.0280000000    20.8220000000    25.8140000000
   38      C      18.6760000000    19.6630000000    25.5090000000
   39      H      17.7440000000    20.0040000000    25.9670000000
   40      H      18.5500000000    19.4780000000    24.4400000000
   41      H      19.0580000000    18.7460000000    25.9650000000
   42      O      19.6820000000    22.0120000000    24.9740000000
   43      C      29.1900000000    16.0520000000    32.4000000000
   44      H      28.8440000000    16.5090000000    33.3310000000
   45      H      29.9290000000    16.6570000000    31.8700000000
   46      H      28.3200000000    16.0140000000    31.7390000000
   47      S      29.7220000000    14.3380000000    32.6110000000
   48      C      28.7550000000    13.8410000000    34.0540000000
   49      H      29.1250000000    14.4670000000    34.8700000000
   50      H      27.7600000000    14.2180000000    33.8040000000
   51      H      28.7330000000    12.7750000000    34.2950000000
   52      O      31.0200000000    14.3790000000    33.3560000000
   53      C      22.5910000000    10.6180000000    28.0680000000
   54      H      22.8410000000    10.7580000000    27.0130000000
   55      H      21.6780000000    10.0290000000    28.1920000000
   56      H      22.5070000000    11.5060000000    28.6990000000
   57      S      23.7970000000     9.5200000000    28.8470000000
   58      C      23.8320000000     8.2540000000    27.5580000000
   59      H      23.9750000000     8.7720000000    26.6070000000
   60      H      24.6900000000     7.5780000000    27.5860000000
   61      H      22.9480000000     7.6140000000    27.4910000000
   62      O      23.0360000000     8.9440000000    30.0010000000
   63      C      25.6130000000    17.6010000000    32.0860000000
   64      H      26.0440000000    16.6470000000    32.3990000000
   65      H      24.8210000000    18.0270000000    32.7090000000
   66      H      25.1820000000    17.3930000000    31.1030000000
   67      S      26.8640000000    18.8730000000    31.7970000000
   68      C      25.7070000000    20.1540000000    31.2620000000
   69      H      24.8650000000    20.3260000000    31.9370000000
   70      H      26.2600000000    21.0790000000    31.0790000000
   71      H      25.3260000000    19.7810000000    30.3080000000
   72      O      27.6010000000    18.4290000000    30.5720000000
   73      C      20.5030000000    20.8430000000    33.1010000000
   74      H      20.1360000000    20.2570000000    33.9470000000
   75      H      19.8460000000    21.7090000000    32.9850000000
   76      H      20.4600000000    20.1890000000    32.2260000000
   77      S      22.2210000000    21.2560000000    33.4750000000
   78      C      22.5880000000    22.0760000000    31.9070000000
   79      H      23.6370000000    22.3590000000    31.7850000000
   80      H      22.4120000000    21.4000000000    31.0660000000
   81      H      21.8600000000    22.8860000000    31.8180000000
   82      O      22.8980000000    19.9290000000    33.3310000000
   83      C      14.3990000000    20.6760000000    27.3400000000
   84      H      13.8080000000    19.7630000000    27.2330000000
   85      H      13.6730000000    21.4520000000    27.5970000000
   86      H      14.9100000000    20.8970000000    26.3990000000
   87      S      15.5850000000    20.3730000000    28.6690000000
   88      C      16.4310000000    21.9040000000    28.2150000000
   89      H      17.3230000000    21.8600000000    28.8450000000
   90      H      16.7080000000    21.8680000000    27.1580000000
   91      H      15.7570000000    22.7240000000    28.4740000000
   92      O      16.3820000000    19.2190000000    28.1460000000
   93      C      26.7110000000    12.6140000000    24.6230000000
   94      H      26.0910000000    11.8440000000    24.1580000000
   95      H      26.5470000000    13.6650000000    24.3700000000
   96      H      27.7510000000    12.4860000000    24.3110000000
   97      S      26.5750000000    12.5100000000    26.4220000000
   98      C      26.8790000000    10.7340000000    26.5520000000
   99      H      27.0030000000    10.4640000000    27.6040000000
  100      H      26.0020000000    10.2150000000    26.1550000000
  101      H      27.7770000000    10.5520000000    25.9570000000
  102      O      25.1450000000    12.5220000000    26.8650000000
  103      C      28.6360000000    24.8650000000    31.5580000000
  104      H      29.1530000000    25.0870000000    32.4950000000
  105      H      28.8940000000    25.6460000000    30.8380000000
  106      H      27.5740000000    24.8530000000    31.8140000000
  107      S      29.1080000000    23.2420000000    30.9190000000
  108      C      27.6200000000    23.0320000000    29.9150000000
  109      H      27.6410000000    23.7180000000    29.0650000000
  110      H      27.4910000000    21.9730000000    29.6740000000
  111      H      26.8050000000    23.3120000000    30.5870000000
  112      O      28.6990000000    22.5030000000    32.1550000000
  113      C      27.1390000000    24.5860000000    24.4430000000
  114      H      26.6360000000    25.3110000000    23.7990000000
  115      H      28.0390000000    24.2040000000    23.9540000000
  116      H      26.4400000000    23.8240000000    24.7980000000
  117      S      27.4550000000    25.3160000000    26.0650000000
  118      C      27.0340000000    27.0030000000    25.5720000000
  119      H      27.5790000000    27.1750000000    24.6400000000
  120      H      25.9620000000    27.1690000000    25.4330000000
  121      H      27.4360000000    27.5900000000    26.4010000000
  122      O      28.9490000000    25.2880000000    26.1580000000
  123      C      26.5960000000    22.8970000000    34.2030000000
  124      H      27.0610000000    23.7010000000    33.6260000000
  125      H      27.3830000000    22.4080000000    34.7830000000
  126      H      26.1210000000    22.2400000000    33.4700000000
  127      S      25.3890000000    23.5980000000    35.3500000000
  128      C      24.7740000000    22.0230000000    35.9890000000
  129      H      24.5040000000    21.4100000000    35.1250000000
  130      H      25.4930000000    21.5640000000    36.6720000000
  131      H      23.8900000000    22.2120000000    36.6040000000
  132      O      24.3220000000    23.9640000000    34.3660000000
  133      C      28.6420000000    12.7540000000    29.2910000000
  134      H      29.1450000000    12.6330000000    30.2540000000
  135      H      28.6070000000    13.7940000000    28.9580000000
  136      H      27.7200000000    12.1680000000    29.3270000000
  137      S      29.8350000000    11.8930000000    28.2420000000
  138      C      31.2870000000    12.7760000000    28.8570000000
  139      H      32.1820000000    12.1930000000    28.6280000000
  140      H      31.3890000000    13.6620000000    28.2250000000
  141      H      31.2170000000    13.0030000000    29.9240000000
  142      O      29.5330000000    12.3590000000    26.8520000000
  143      C      25.1120000000    13.4720000000    33.2460000000
  144      H      24.4260000000    14.2850000000    32.9940000000
  145      H      24.4700000000    12.6620000000    33.6020000000
  146      H      25.7110000000    13.8730000000    34.0680000000
  147      S      26.0980000000    12.9840000000    31.8120000000
  148      C      24.7540000000    12.3390000000    30.7910000000
  149      H      24.3100000000    11.4020000000    31.1380000000
  150      H      23.9830000000    13.1130000000    30.7800000000
  151      H      25.1170000000    12.2240000000    29.7670000000
  152      O      26.6360000000    11.6900000000    32.3360000000
  153      C      28.6970000000     9.1850000000    30.8570000000
  154      H      29.0050000000     9.7870000000    29.9990000000
  155      H      28.7820000000     9.7160000000    31.8090000000
  156      H      29.3690000000     8.3270000000    30.9440000000
  157      S      26.9360000000     8.8260000000    30.6690000000
  158      C      26.8320000000     8.0870000000    32.3140000000
  159      H      27.6250000000     7.3490000000    32.4600000000
  160      H      26.9330000000     8.9370000000    32.9950000000
  161      H      25.8910000000     7.5320000000    32.3340000000
  162      O      26.7630000000     7.6020000000    29.8250000000
  163      C      20.7220000000    26.6520000000    29.9090000000
  164      H      20.7250000000    27.3830000000    30.7210000000
  165      H      21.7560000000    26.3510000000    29.7230000000
  166      H      20.2140000000    27.0350000000    29.0200000000
  167      S      19.6680000000    25.2910000000    30.4600000000
  168      C      18.2740000000    26.4220000000    30.6620000000
  169      H      18.5410000000    27.4380000000    30.9630000000
  170      H      17.6330000000    26.4070000000    29.7760000000
  171      H      17.6370000000    25.9490000000    31.4130000000
  172      O      20.0550000000    25.0380000000    31.8840000000
  173      C      17.7730000000    18.5470000000    31.6300000000
  174      H      17.5650000000    19.3170000000    30.8830000000
  175      H      16.8870000000    18.2780000000    32.2100000000
  176      H      18.5610000000    18.8140000000    32.3400000000
  177      S      18.5120000000    17.1160000000    30.8110000000
  178      C      17.0780000000    16.6140000000    29.8320000000
  179      H      17.3160000000    15.5870000000    29.5420000000
  180      H      16.1460000000    16.5880000000    30.4020000000
  181      H      16.8520000000    17.1990000000    28.9370000000
  182      O      18.5320000000    16.1860000000    31.9850000000
  183      C      20.6500000000    16.6760000000    34.6660000000
  184      H      19.9540000000    15.8860000000    34.3740000000
  185      H      20.5630000000    16.7630000000    35.7520000000
  186      H      20.4680000000    17.6370000000    34.1780000000
  187      S      22.3350000000    16.1000000000    34.3570000000
  188      C      22.0940000000    16.2290000000    32.5700000000
  189      H      21.9420000000    17.2670000000    32.2620000000
  190      H      22.9920000000    15.8480000000    32.0770000000
  191      H      21.2640000000    15.5950000000    32.2470000000
  192      O      22.2330000000    14.6200000000    34.5520000000
  193      C      21.5830000000    23.7800000000    22.9960000000
  194      H      21.7850000000    23.4050000000    24.0030000000
  195      H      20.8390000000    24.5750000000    22.9000000000
  196      H      21.2620000000    22.9500000000    22.3610000000
  197      S      23.1740000000    24.4750000000    22.4970000000
  198      C      24.1740000000    22.9720000000    22.5810000000
  199      H      23.7580000000    22.4300000000    23.4340000000
  200      H      24.0570000000    22.4180000000    21.6460000000
  201      H      25.1830000000    23.2460000000    22.8970000000
  202      O      23.6190000000    25.2280000000    23.7120000000
  203      C      18.8960000000    13.6020000000    26.2750000000
  204      H      19.9200000000    13.2270000000    26.3490000000
  205      H      18.1470000000    12.9700000000    26.7590000000
  206      H      18.6330000000    13.7100000000    25.2190000000
  207      S      18.8340000000    15.2230000000    27.0700000000
  208      C      17.0690000000    15.5330000000    26.8380000000
  209      H      16.9540000000    16.6190000000    26.7930000000
  210      H      16.8340000000    15.1460000000    25.8430000000
  211      H      16.3650000000    15.3330000000    27.6500000000
  212      O      19.3950000000    16.0860000000    25.9840000000
  213      C      26.5990000000    16.4680000000    22.1830000000
  214      H      25.8010000000    15.8090000000    21.8300000000
  215      H      26.4720000000    16.4590000000    23.2690000000
  216      H      26.4690000000    17.4790000000    21.7890000000
  217      S      28.1490000000    15.7760000000    21.5630000000
  218      C      27.6540000000    15.6870000000    19.8270000000
  219      H      27.7160000000    16.7030000000    19.4280000000
  220      H      28.4180000000    14.9970000000    19.4600000000
  221      H      26.7040000000    15.1580000000    19.7200000000
  222      O      28.0770000000    14.3330000000    21.9540000000
  223      C      25.9200000000    16.1030000000    36.8870000000
  224      H      26.3630000000    15.1050000000    36.8350000000
  225      H      25.8130000000    16.4950000000    37.9010000000
  226      H      24.8990000000    16.0540000000    36.4980000000
  227      S      26.9640000000    17.1940000000    35.8940000000
  228      C      25.7530000000    18.5350000000    35.8480000000
  229      H      24.8780000000    18.2440000000    35.2600000000
  230      H      25.5140000000    18.7060000000    36.9000000000
  231      H      26.2330000000    19.4760000000    35.5660000000
  232      O      26.8300000000    16.4540000000    34.6000000000
  233      C      22.6190000000    16.3760000000    23.2460000000
  234      H      21.9070000000    15.8870000000    22.5760000000
  235      H      22.0330000000    16.8460000000    24.0400000000
  236      H      23.2520000000    17.1030000000    22.7300000000
  237      S      23.7460000000    15.2350000000    24.0770000000
  238      C      22.4460000000    14.8050000000    25.2560000000
  239      H      22.8620000000    13.9720000000    25.8300000000
  240      H      22.2030000000    15.6490000000    25.9060000000
  241      H      21.4900000000    14.5560000000    24.7880000000
  242      O      24.5750000000    16.1170000000    24.9580000000
  243      C      20.2310000000    24.8020000000    26.5560000000
  244      H      21.0290000000    24.9710000000    27.2840000000
  245      H      19.5060000000    24.1150000000    27.0000000000
  246      H      20.6440000000    24.3610000000    25.6450000000
  247      S      19.4210000000    26.3540000000    26.1110000000
  248      C      20.9300000000    27.3480000000    26.1330000000
  249      H      21.3670000000    27.5540000000    25.1530000000
  250      H      20.6440000000    28.3090000000    26.5690000000
  251      H      21.5860000000    26.8990000000    26.8830000000
  252      O      18.6740000000    26.8680000000    27.3020000000
  253      C      27.3560000000    20.3900000000    22.8820000000
  254      H      26.6700000000    21.1860000000    22.5810000000
  255      H      28.2940000000    20.9250000000    23.0510000000
  256      H      27.3640000000    19.6550000000    22.0730000000
  257      S      26.7350000000    19.8950000000    24.5050000000
  258      C      25.0860000000    19.3540000000    24.0000000000
  259      H      24.8020000000    20.0040000000    23.1680000000
  260      H      25.1400000000    18.2760000000    23.8290000000
  261      H      24.2840000000    19.4630000000    24.7340000000
  262      O      26.3890000000    21.2370000000    25.0730000000
  263      C      27.5300000000    17.1170000000    27.4540000000
  264      H      28.5640000000    17.2850000000    27.7640000000
  265      H      26.9270000000    18.0070000000    27.6540000000
  266      H      27.1400000000    16.2410000000    27.9780000000
  267      S      27.8470000000    16.7200000000    25.7200000000
  268      C      28.9040000000    15.2890000000    26.0350000000
  269      H      29.1600000000    14.8080000000    25.0880000000
  270      H      29.7780000000    15.6470000000    26.5860000000
  271      H      28.2530000000    14.5660000000    26.5320000000
  272      O      28.8660000000    17.7420000000    25.3210000000
  273      C      19.1960000000    13.0780000000    32.8530000000
  274      H      18.8080000000    13.9520000000    32.3240000000
  275      H      18.3010000000    12.7620000000    33.3970000000
  276      H      19.9150000000    13.4810000000    33.5710000000
  277      S      19.7900000000    11.9570000000    31.5660000000
  278      C      21.2900000000    12.8990000000    31.2080000000
  279      H      21.7840000000    12.2690000000    30.4640000000
  280      H      21.0710000000    13.8540000000    30.7240000000
  281      H      21.9730000000    12.9980000000    32.0560000000
  282      O      18.9730000000    12.3460000000    30.3730000000
  283      C      20.9040000000    12.1540000000    23.1130000000
  284      H      20.1620000000    12.7530000000    23.6470000000
  285      H      21.5800000000    12.8330000000    22.5860000000
  286      H      20.5130000000    11.4330000000    22.3900000000
  287      S      21.8460000000    11.3090000000    24.4030000000
  288      C      21.7430000000     9.6950000000    23.5980000000
  289      H      20.6690000000     9.4970000000    23.5450000000
  290      H      22.1730000000     9.6460000000    22.5950000000
  291      H      22.1740000000     9.0380000000    24.3580000000
  292      O      20.8030000000    11.1570000000    25.4650000000
  293      C      29.2880000000    20.0490000000    28.1760000000
  294      H      29.2460000000    19.9770000000    29.2660000000
  295      H      28.2970000000    20.1990000000    27.7390000000
  296      H      29.8230000000    19.1890000000    27.7650000000
  297      S      30.2550000000    21.5610000000    27.9680000000
  298      C      29.4550000000    22.1210000000    26.4480000000
  299      H      28.9860000000    21.3290000000    25.8580000000
  300      H      28.6490000000    22.8180000000    26.6930000000
  301      H      30.1550000000    22.5460000000    25.7240000000
  302      O      31.6370000000    21.1010000000    27.6220000000
  303      C      19.7170000000    17.0010000000    19.6400000000
  304      H      20.6870000000    17.4190000000    19.9210000000
  305      H      19.7660000000    16.2320000000    18.8650000000
  306      H      19.0110000000    17.8110000000    19.4440000000
  307      S      19.1090000000    16.0230000000    21.0330000000
  308      C      19.6100000000    17.1240000000    22.3760000000
  309      H      20.3950000000    17.6950000000    21.8730000000
  310      H      18.7280000000    17.7490000000    22.5420000000
  311      H      19.9440000000    16.5430000000    23.2390000000
  312      O      20.1230000000    14.9240000000    21.0920000000
 ----------------------------------------------------------------
 Nuclear Repulsion Energy =       54329.56679891 hartrees
 There are      644 alpha and      644 beta electrons
 Requested basis set is 6-31+G(d)
 There are 1028 shells and 2865 basis functions

 Total QAlloc Memory Limit  16000 MB
 Mega-Array Size      7821 MB
 MEM_STATIC part      8000 MB
 A cutoff of  1.0D-14 yielded 197830 shell pairs
 There are   1717828 function pairs
 Smallest overlap matrix eigenvalue = 3.97E-07
 Linear dependence detected in AO basis
 Tighter screening thresholds may be required for diffuse basis sets
 Use S2THRESH > 14 and THRESH = 14 in case of SCF convergence issues
 Number of orthogonalized atomic orbitals = 2862
 Maximum deviation from orthogonality = 1.920E-10

 Scale SEOQF with 1.000000e-03/1.000000e-03/1.000000e-03

 Standard Electronic Orientation quadrupole field applied
 Nucleus-field energy     =    -0.0000005531 hartrees
Attempting to make child job directory: /local/scratch/users/ymao/r7.00_frame_0016_almo_B3LYP_dp.in20210311133745//Frg1/
Attempting to make child job directory: /local/scratch/users/ymao/r7.00_frame_0016_almo_B3LYP_dp.in20210311133745//Frg2/
Creating input file /local/scratch/users/ymao/r7.00_frame_0016_almo_B3LYP_dp.in20210311133745/Frg1.input
using default PutDataFrgm: nothing
calling putenv with: QCSCRATCH=/local/scratch/users/ymao/r7.00_frame_0016_almo_B3LYP_dp.in20210311133745/ 
Spawning Job For Fragment 0
Done Job For Fragment 0
calling putenv with: QCSCRATCH=/local/scratch/users/ymao 
calling putenv with: QCTHREADS=8 
Creating input file /local/scratch/users/ymao/r7.00_frame_0016_almo_B3LYP_dp.in20210311133745/Frg2.input
using default PutDataFrgm: nothing
calling putenv with: QCSCRATCH=/local/scratch/users/ymao/r7.00_frame_0016_almo_B3LYP_dp.in20210311133745/ 
Spawning Job For Fragment 1
Done Job For Fragment 1
calling putenv with: QCSCRATCH=/local/scratch/users/ymao 
calling putenv with: QCTHREADS=8 
 Time for running child jobs:  CPU 1.00 s  wall 26183.91 s

 -----------------------------------------------------------------------
  General SCF calculation program by
  Eric Jon Sundstrom, Paul Horn, Yuezhi Mao, Dmitri Zuev, Alec White,
  David Stuck, Shaama M.S., Shane Yost, Joonho Lee, David Small,
  Daniel Levine, Susi Lehtola, Hugh Burton, Evgeny Epifanovsky,
  Bang C. Huynh
 -----------------------------------------------------------------------
Performing Restricted Closed Shell SCFMI
Doing General SCFMI
 Exchange:     0.2000 Hartree-Fock + 0.0800 Slater + 0.7200 B88
 Correlation:  0.1900 VWN1RPA + 0.8100 LYP
 Using Euler-Maclaurin-Lebedev (75,302) quadrature formula
performing fock build before subrot guess so that all methods have access
Printing subrot_rss_gen Method Specification:
Occupied Subspace Method is 0
Virtual Subspace Method is 0
Energy prior to optimization (guess energy) = -16447.051953384318
Begin Timing: Total SCF Calculation
begin iterations for algorithm: DIIS         
the SCF tolerance is set to 1.00e-08
    1  -16447.0519533843      3.95e-05     00000 
    2  -16447.0544611102      5.31e-05     00000 
    3  -16447.0621800624      1.82e-05     00000 
    4  -16447.0631148266      6.38e-06     00000 
    5  -16447.0632608582      3.00e-06     00000 
    6  -16447.0632921126      1.93e-06     00000 
    7  -16447.0633044940      1.32e-06     00000 
    8  -16447.0633104293      6.93e-07     00000 
    9  -16447.0633118346      4.10e-07     00000 
   10  -16447.0633122245      2.89e-07     00000 
   11  -16447.0633124215      1.96e-07     00000 
   12  -16447.0633125295      1.12e-07     00000 
   13  -16447.0633125684      6.27e-08     00000 
   14  -16447.0633125805      3.90e-08     00000 
   15  -16447.0633125833      3.06e-08     00000 
   16  -16447.0633125858      1.62e-08     00000 
   17  -16447.0633125866      8.16e-09     00000 Convergence criterion met
write pseudocanon occs and virts to disk
write pseudocanon orbital energies to disk
Timing for Total SCF: 65921.00s (wall), 522447.95s (cpu)
SCFMI Energy  -16447.0633125866
<S^2>            0.00000
 Total energy in the final basis set =   -16447.0633125866
    ==================================================
        The end of Object-Oriented SCFman: SCFMI      
    ==================================================
 
 --------------------------------------------------------------
 
                    Orbital Energies (a.u.)
 --------------------------------------------------------------
 
 Alpha MOs
 -- Occupied --
-89.0381 -89.0274 -89.0247 -89.0228 -89.0222 -89.0201 -89.0132 -89.0122
-89.0109 -89.0107 -89.0104 -89.0073 -89.0068 -89.0028 -88.9999 -88.9991
-88.9987 -88.9937 -88.9924 -88.9900 -88.9894 -88.9777 -88.9762 -88.9757
-88.9743 -88.9670 -88.9644 -88.9639 -88.9635 -19.1604 -19.1418 -19.1412
-19.1398 -19.1343 -19.1327 -19.1302 -19.1285 -19.1245 -19.1218 -19.1214
-19.1205 -19.1193 -19.1193 -19.1173 -19.1114 -19.1113 -19.1112 -19.1107
-19.1052 -19.1024 -19.1021 -19.0955 -19.0910 -19.0877 -19.0835 -19.0805
-19.0790 -19.0789 -19.0657 -14.3548 -10.2780 -10.2541 -10.2536 -10.2509
-10.2504 -10.2472 -10.2463 -10.2434 -10.2379 -10.2372 -10.2350 -10.2329
-10.2320 -10.2317 -10.2301 -10.2299 -10.2288 -10.2282 -10.2265 -10.2262
-10.2260 -10.2246 -10.2229 -10.2221 -10.2220 -10.2215 -10.2209 -10.2191
-10.2170 -10.2167 -10.2163 -10.2153 -10.2149 -10.2143 -10.2124 -10.2087
-10.2083 -10.2081 -10.2078 -10.2050 -10.2046 -10.2037 -10.2016 -10.1978
-10.1976 -10.1969 -10.1967 -10.1941 -10.1939 -10.1911 -10.1907 -10.1907
-10.1896 -10.1876 -10.1860 -10.1848 -10.1841 -10.1815 -10.1797 -10.1786
-10.1778 -10.1772 -10.1766 -10.1748 -10.1739  -8.0844  -8.0746  -8.0704
 -8.0690  -8.0690  -8.0652  -8.0586  -8.0582  -8.0572  -8.0564  -8.0562
 -8.0538  -8.0532  -8.0486  -8.0458  -8.0447  -8.0445  -8.0402  -8.0380
 -8.0363  -8.0352  -8.0239  -8.0217  -8.0210  -8.0194  -8.0129  -8.0104
 -8.0097  -8.0097  -6.0487  -6.0472  -6.0421  -6.0388  -6.0377  -6.0347
 -6.0334  -6.0333  -6.0333  -6.0321  -6.0320  -6.0319  -6.0295  -6.0282
 -6.0281  -6.0264  -6.0263  -6.0230  -6.0229  -6.0226  -6.0218  -6.0216
 -6.0212  -6.0206  -6.0204  -6.0203  -6.0196  -6.0195  -6.0179  -6.0174
 -6.0168  -6.0164  -6.0157  -6.0157  -6.0146  -6.0138  -6.0138  -6.0129
 -6.0116  -6.0114  -6.0108  -6.0099  -6.0090  -6.0090  -6.0089  -6.0077
 -6.0075  -6.0062  -6.0044  -6.0033  -6.0032  -6.0025  -6.0022  -6.0017
 -6.0009  -6.0008  -5.9997  -5.9994  -5.9982  -5.9978  -5.9957  -5.9936
 -5.9925  -5.9883  -5.9869  -5.9859  -5.9854  -5.9849  -5.9841  -5.9839
 -5.9826  -5.9815  -5.9793  -5.9785  -5.9773  -5.9767  -5.9760  -5.9747
 -5.9741  -5.9740  -5.9736  -5.9729  -5.9727  -5.9702  -5.9677  -5.9673
 -5.9671  -1.0672  -1.0547  -1.0542  -1.0494  -1.0479  -1.0429  -1.0412
 -1.0388  -1.0382  -1.0374  -1.0337  -1.0328  -1.0325  -1.0293  -1.0277
 -1.0256  -1.0215  -1.0212  -1.0205  -1.0189  -1.0161  -1.0157  -1.0042
 -1.0017  -0.9979  -0.9963  -0.9907  -0.9875  -0.9862  -0.9817  -0.9203
 -0.8451  -0.8382  -0.8370  -0.8272  -0.8246  -0.8239  -0.8222  -0.8140
 -0.8129  -0.8109  -0.8104  -0.8089  -0.8075  -0.8027  -0.8023  -0.8000
 -0.7994  -0.7965  -0.7957  -0.7930  -0.7897  -0.7888  -0.7804  -0.7780
 -0.7708  -0.7691  -0.7676  -0.7673  -0.7658  -0.7642  -0.7597  -0.7584
 -0.7575  -0.7566  -0.7529  -0.7474  -0.7447  -0.7435  -0.7423  -0.7402
 -0.7375  -0.7371  -0.7356  -0.7343  -0.7327  -0.7303  -0.7266  -0.7239
 -0.7210  -0.7207  -0.7202  -0.7169  -0.7121  -0.7058  -0.7016  -0.7009
 -0.6981  -0.6969  -0.6932  -0.6899  -0.6898  -0.6496  -0.6450  -0.6402
 -0.6380  -0.6360  -0.6342  -0.6332  -0.6311  -0.6261  -0.6246  -0.6246
 -0.6245  -0.6221  -0.6193  -0.6193  -0.6167  -0.6153  -0.6131  -0.6108
 -0.6052  -0.6044  -0.6041  -0.5988  -0.5913  -0.5907  -0.5878  -0.5870
 -0.5820  -0.5797  -0.5780  -0.5778  -0.5775  -0.5740  -0.5328  -0.5214
 -0.5206  -0.5117  -0.5101  -0.5088  -0.5076  -0.5036  -0.5021  -0.5015
 -0.5011  -0.5007  -0.4969  -0.4968  -0.4965  -0.4960  -0.4939  -0.4927
 -0.4920  -0.4911  -0.4908  -0.4900  -0.4881  -0.4878  -0.4857  -0.4852
 -0.4847  -0.4840  -0.4837  -0.4821  -0.4819  -0.4810  -0.4799  -0.4795
 -0.4792  -0.4782  -0.4769  -0.4759  -0.4750  -0.4744  -0.4740  -0.4738
 -0.4737  -0.4716  -0.4715  -0.4709  -0.4705  -0.4698  -0.4693  -0.4680
 -0.4669  -0.4667  -0.4646  -0.4639  -0.4634  -0.4633  -0.4632  -0.4623
 -0.4615  -0.4611  -0.4603  -0.4600  -0.4591  -0.4585  -0.4583  -0.4573
 -0.4569  -0.4569  -0.4556  -0.4555  -0.4539  -0.4535  -0.4531  -0.4525
 -0.4512  -0.4504  -0.4500  -0.4487  -0.4473  -0.4466  -0.4458  -0.4452
 -0.4445  -0.4441  -0.4434  -0.4428  -0.4422  -0.4415  -0.4411  -0.4408
 -0.4405  -0.4391  -0.4376  -0.4372  -0.4369  -0.4366  -0.4365  -0.4351
 -0.4347  -0.4345  -0.4333  -0.4326  -0.4321  -0.4316  -0.4308  -0.4302
 -0.4298  -0.4291  -0.4285  -0.4278  -0.4267  -0.4264  -0.4263  -0.4257
 -0.4246  -0.4243  -0.4239  -0.4237  -0.4235  -0.4233  -0.4227  -0.4214
 -0.4206  -0.4199  -0.4192  -0.4191  -0.4184  -0.4182  -0.4177  -0.4163
 -0.4156  -0.4137  -0.4123  -0.4107  -0.4105  -0.4091  -0.4088  -0.4077
 -0.4068  -0.4060  -0.4052  -0.4046  -0.4041  -0.4036  -0.4029  -0.4026
 -0.4025  -0.4017  -0.4006  -0.3998  -0.3989  -0.3975  -0.3970  -0.3967
 -0.3953  -0.3947  -0.3942  -0.3940  -0.3935  -0.3932  -0.3932  -0.3917
 -0.3915  -0.3913  -0.3906  -0.3902  -0.3892  -0.3883  -0.3875  -0.3863
 -0.3863  -0.3856  -0.3852  -0.3843  -0.3830  -0.3826  -0.3811  -0.3799
 -0.3792  -0.3782  -0.3779  -0.3776  -0.3767  -0.3762  -0.3753  -0.3744
 -0.3735  -0.3716  -0.3713  -0.3706  -0.3696  -0.3679  -0.3670  -0.3660
 -0.3641  -0.3628  -0.3611  -0.3609  -0.3604  -0.3567  -0.3562  -0.3557
 -0.3536  -0.3530  -0.3527  -0.3498  -0.3483  -0.3406  -0.3385  -0.3367
 -0.3334  -0.3330  -0.3291  -0.3276  -0.3254  -0.3226  -0.3218  -0.3174
 -0.3105  -0.3042  -0.3022  -0.3016  -0.2956  -0.2939  -0.2921  -0.2897
 -0.2871  -0.2870  -0.2829  -0.2807  -0.2788  -0.2785  -0.2765  -0.2754
 -0.2740  -0.2722  -0.2710  -0.2698  -0.2673  -0.2671  -0.2642  -0.2637
 -0.2634  -0.2631  -0.2612  -0.2604  -0.2592  -0.2575  -0.2567  -0.2527
 -0.2526  -0.2520  -0.2509  -0.2497  -0.2484  -0.2474  -0.2443  -0.2440
 -0.2437  -0.2423  -0.2411  -0.2402  -0.2393  -0.2378  -0.2376  -0.2358
 -0.2330  -0.2325  -0.2299  -0.2253  -0.2175  -0.2168  -0.2147  -0.2114
 -0.2069  -0.2049  -0.2021  -0.1956
 -- Virtual --
 -0.0488  -0.0387  -0.0348  -0.0307  -0.0292  -0.0289  -0.0269  -0.0247
 -0.0235  -0.0221  -0.0205  -0.0183  -0.0174  -0.0164  -0.0154  -0.0147
 -0.0126  -0.0119  -0.0106  -0.0085  -0.0083  -0.0076  -0.0060  -0.0055
 -0.0051  -0.0046  -0.0042  -0.0032  -0.0026  -0.0015  -0.0007  -0.0001
  0.0006   0.0017   0.0024   0.0028   0.0038   0.0043   0.0056   0.0059
  0.0060   0.0071   0.0081   0.0085   0.0091   0.0098   0.0109   0.0111
  0.0113   0.0118   0.0131   0.0136   0.0142   0.0143   0.0154   0.0159
  0.0162   0.0170   0.0179   0.0187   0.0195   0.0197   0.0203   0.0208
  0.0217   0.0227   0.0236   0.0242   0.0248   0.0250   0.0252   0.0264
  0.0277   0.0279   0.0285   0.0294   0.0296   0.0303   0.0311   0.0319
  0.0326   0.0331   0.0339   0.0342   0.0345   0.0347   0.0359   0.0363
  0.0376   0.0378   0.0389   0.0396   0.0398   0.0401   0.0409   0.0418
  0.0424   0.0429   0.0439   0.0440   0.0451   0.0456   0.0462   0.0466
  0.0468   0.0476   0.0486   0.0493   0.0498   0.0504   0.0508   0.0517
  0.0520   0.0527   0.0536   0.0543   0.0549   0.0551   0.0557   0.0560
  0.0569   0.0573   0.0584   0.0586   0.0592   0.0595   0.0602   0.0610
  0.0618   0.0622   0.0631   0.0634   0.0636   0.0641   0.0653   0.0662
  0.0664   0.0668   0.0678   0.0680   0.0687   0.0697   0.0701   0.0710
  0.0712   0.0717   0.0723   0.0728   0.0733   0.0741   0.0752   0.0755
  0.0763   0.0767   0.0774   0.0780   0.0792   0.0795   0.0802   0.0803
  0.0812   0.0814   0.0818   0.0827   0.0829   0.0841   0.0850   0.0851
  0.0852   0.0861   0.0871   0.0880   0.0887   0.0891   0.0894   0.0898
  0.0905   0.0910   0.0923   0.0928   0.0932   0.0940   0.0944   0.0945
  0.0953   0.0962   0.0964   0.0974   0.0981   0.0987   0.0990   0.1001
  0.1007   0.1009   0.1012   0.1023   0.1028   0.1037   0.1040   0.1050
  0.1059   0.1067   0.1069   0.1074   0.1084   0.1087   0.1091   0.1093
  0.1102   0.1104   0.1116   0.1125   0.1130   0.1133   0.1140   0.1146
  0.1155   0.1158   0.1168   0.1172   0.1174   0.1179   0.1184   0.1193
  0.1198   0.1214   0.1217   0.1222   0.1229   0.1232   0.1240   0.1248
  0.1251   0.1256   0.1261   0.1263   0.1270   0.1281   0.1283   0.1290
  0.1292   0.1299   0.1304   0.1314   0.1317   0.1324   0.1327   0.1331
  0.1335   0.1348   0.1350   0.1359   0.1363   0.1373   0.1377   0.1383
  0.1392   0.1396   0.1398   0.1406   0.1412   0.1420   0.1422   0.1430
  0.1432   0.1443   0.1446   0.1455   0.1457   0.1464   0.1473   0.1476
  0.1478   0.1485   0.1493   0.1493   0.1499   0.1516   0.1518   0.1525
  0.1527   0.1530   0.1534   0.1544   0.1553   0.1558   0.1562   0.1566
  0.1572   0.1579   0.1583   0.1591   0.1598   0.1604   0.1610   0.1617
  0.1620   0.1625   0.1626   0.1628   0.1639   0.1641   0.1647   0.1650
  0.1656   0.1667   0.1677   0.1679   0.1689   0.1692   0.1696   0.1700
  0.1706   0.1723   0.1727   0.1731   0.1738   0.1741   0.1744   0.1751
  0.1753   0.1761   0.1762   0.1773   0.1777   0.1785   0.1787   0.1798
  0.1801   0.1807   0.1816   0.1817   0.1824   0.1831   0.1834   0.1842
  0.1846   0.1853   0.1857   0.1861   0.1869   0.1873   0.1879   0.1890
  0.1897   0.1902   0.1905   0.1908   0.1913   0.1918   0.1922   0.1932
  0.1934   0.1942   0.1946   0.1952   0.1960   0.1966   0.1973   0.1974
  0.1979   0.1984   0.1992   0.1996   0.2001   0.2006   0.2008   0.2011
  0.2017   0.2027   0.2030   0.2039   0.2040   0.2050   0.2051   0.2058
  0.2069   0.2070   0.2081   0.2083   0.2089   0.2091   0.2094   0.2102
  0.2111   0.2119   0.2121   0.2127   0.2140   0.2141   0.2145   0.2151
  0.2160   0.2165   0.2168   0.2172   0.2178   0.2186   0.2194   0.2206
  0.2209   0.2211   0.2217   0.2223   0.2232   0.2234   0.2237   0.2244
  0.2246   0.2255   0.2272   0.2275   0.2279   0.2284   0.2291   0.2295
  0.2301   0.2305   0.2320   0.2325   0.2331   0.2333   0.2340   0.2350
  0.2358   0.2365   0.2371   0.2376   0.2379   0.2390   0.2398   0.2405
  0.2412   0.2416   0.2419   0.2425   0.2433   0.2434   0.2439   0.2455
  0.2458   0.2462   0.2471   0.2480   0.2487   0.2498   0.2504   0.2506
  0.2508   0.2519   0.2525   0.2526   0.2529   0.2534   0.2543   0.2547
  0.2559   0.2570   0.2573   0.2578   0.2582   0.2588   0.2593   0.2604
  0.2617   0.2626   0.2632   0.2635   0.2642   0.2652   0.2660   0.2662
  0.2666   0.2671   0.2681   0.2687   0.2693   0.2706   0.2707   0.2713
  0.2723   0.2727   0.2737   0.2741   0.2746   0.2760   0.2766   0.2774
  0.2779   0.2784   0.2792   0.2796   0.2808   0.2810   0.2815   0.2824
  0.2834   0.2842   0.2846   0.2858   0.2863   0.2870   0.2882   0.2888
  0.2895   0.2897   0.2900   0.2909   0.2919   0.2929   0.2933   0.2938
  0.2947   0.2963   0.2965   0.2978   0.2981   0.2987   0.2996   0.3002
  0.3007   0.3012   0.3023   0.3034   0.3036   0.3051   0.3057   0.3061
  0.3069   0.3077   0.3087   0.3091   0.3100   0.3111   0.3120   0.3126
  0.3135   0.3143   0.3152   0.3167   0.3174   0.3177   0.3186   0.3194
  0.3195   0.3211   0.3225   0.3234   0.3239   0.3244   0.3246   0.3258
  0.3259   0.3262   0.3269   0.3275   0.3278   0.3289   0.3291   0.3298
  0.3312   0.3317   0.3329   0.3344   0.3350   0.3357   0.3360   0.3362
  0.3372   0.3380   0.3384   0.3400   0.3407   0.3415   0.3423   0.3425
  0.3435   0.3441   0.3451   0.3461   0.3469   0.3478   0.3489   0.3495
  0.3501   0.3513   0.3519   0.3522   0.3536   0.3540   0.3550   0.3551
  0.3565   0.3570   0.3582   0.3590   0.3595   0.3604   0.3612   0.3623
  0.3630   0.3634   0.3648   0.3655   0.3662   0.3664   0.3675   0.3677
  0.3690   0.3699   0.3706   0.3710   0.3717   0.3720   0.3729   0.3735
  0.3749   0.3757   0.3760   0.3769   0.3791   0.3791   0.3807   0.3810
  0.3814   0.3825   0.3828   0.3835   0.3842   0.3847   0.3858   0.3875
  0.3883   0.3888   0.3892   0.3902   0.3909   0.3927   0.3929   0.3937
  0.3949   0.3953   0.3967   0.3969   0.3982   0.3994   0.3996   0.4009
  0.4010   0.4021   0.4026   0.4032   0.4043   0.4051   0.4061   0.4066
  0.4075   0.4080   0.4083   0.4101   0.4106   0.4114   0.4129   0.4133
  0.4143   0.4147   0.4151   0.4155   0.4173   0.4179   0.4191   0.4200
  0.4206   0.4209   0.4226   0.4238   0.4241   0.4256   0.4270   0.4282
  0.4287   0.4298   0.4303   0.4311   0.4323   0.4332   0.4340   0.4346
  0.4357   0.4364   0.4379   0.4393   0.4398   0.4412   0.4417   0.4427
  0.4439   0.4446   0.4455   0.4460   0.4471   0.4477   0.4485   0.4502
  0.4512   0.4515   0.4519   0.4539   0.4556   0.4561   0.4564   0.4579
  0.4584   0.4594   0.4614   0.4633   0.4645   0.4652   0.4662   0.4673
  0.4691   0.4709   0.4713   0.4730   0.4739   0.4758   0.4762   0.4774
  0.4786   0.4798   0.4810   0.4822   0.4835   0.4845   0.4850   0.4865
  0.4881   0.4900   0.4908   0.4918   0.4926   0.4938   0.4949   0.4961
  0.4969   0.4983   0.4992   0.5012   0.5023   0.5031   0.5033   0.5051
  0.5072   0.5094   0.5109   0.5110   0.5118   0.5129   0.5162   0.5168
  0.5175   0.5188   0.5203   0.5220   0.5235   0.5244   0.5251   0.5259
  0.5267   0.5297   0.5308   0.5325   0.5336   0.5359   0.5368   0.5391
  0.5405   0.5435   0.5449   0.5459   0.5472   0.5487   0.5502   0.5506
  0.5519   0.5542   0.5560   0.5569   0.5583   0.5588   0.5598   0.5616
  0.5619   0.5630   0.5645   0.5676   0.5682   0.5697   0.5721   0.5730
  0.5740   0.5758   0.5762   0.5791   0.5796   0.5805   0.5828   0.5835
  0.5859   0.5870   0.5882   0.5893   0.5910   0.5918   0.5936   0.5948
  0.5953   0.5961   0.5975   0.5991   0.6011   0.6024   0.6031   0.6061
  0.6074   0.6084   0.6088   0.6114   0.6124   0.6139   0.6147   0.6156
  0.6169   0.6185   0.6190   0.6193   0.6206   0.6225   0.6232   0.6248
  0.6276   0.6288   0.6295   0.6314   0.6326   0.6331   0.6335   0.6357
  0.6374   0.6384   0.6397   0.6397   0.6407   0.6422   0.6431   0.6448
  0.6461   0.6468   0.6483   0.6493   0.6501   0.6513   0.6520   0.6529
  0.6541   0.6550   0.6560   0.6571   0.6574   0.6577   0.6600   0.6617
  0.6625   0.6632   0.6643   0.6654   0.6661   0.6667   0.6669   0.6682
  0.6700   0.6710   0.6722   0.6741   0.6742   0.6752   0.6760   0.6772
  0.6791   0.6800   0.6807   0.6823   0.6840   0.6844   0.6848   0.6860
  0.6869   0.6879   0.6895   0.6903   0.6911   0.6929   0.6943   0.6951
  0.6971   0.6972   0.6984   0.6994   0.7015   0.7016   0.7022   0.7036
  0.7043   0.7056   0.7073   0.7076   0.7085   0.7096   0.7117   0.7145
  0.7162   0.7182   0.7190   0.7194   0.7207   0.7209   0.7218   0.7228
  0.7243   0.7252   0.7256   0.7275   0.7285   0.7293   0.7301   0.7303
  0.7328   0.7334   0.7348   0.7354   0.7373   0.7382   0.7388   0.7401
  0.7417   0.7424   0.7439   0.7453   0.7472   0.7481   0.7492   0.7502
  0.7523   0.7529   0.7530   0.7537   0.7562   0.7575   0.7592   0.7605
  0.7614   0.7616   0.7638   0.7648   0.7652   0.7677   0.7680   0.7688
  0.7700   0.7704   0.7720   0.7733   0.7747   0.7755   0.7771   0.7775
  0.7782   0.7800   0.7828   0.7835   0.7842   0.7864   0.7866   0.7885
  0.7887   0.7898   0.7914   0.7938   0.7952   0.7959   0.7979   0.7994
  0.7997   0.8005   0.8014   0.8032   0.8051   0.8055   0.8084   0.8095
  0.8107   0.8111   0.8121   0.8132   0.8153   0.8167   0.8174   0.8183
  0.8209   0.8228   0.8236   0.8244   0.8253   0.8258   0.8264   0.8274
  0.8286   0.8297   0.8318   0.8336   0.8358   0.8383   0.8390   0.8402
  0.8417   0.8431   0.8441   0.8458   0.8477   0.8486   0.8503   0.8512
  0.8532   0.8550   0.8557   0.8580   0.8586   0.8602   0.8614   0.8633
  0.8647   0.8653   0.8678   0.8683   0.8689   0.8710   0.8722   0.8729
  0.8748   0.8755   0.8777   0.8794   0.8803   0.8819   0.8830   0.8839
  0.8845   0.8863   0.8878   0.8897   0.8909   0.8917   0.8935   0.8948
  0.8955   0.8966   0.8968   0.8978   0.8987   0.8999   0.9010   0.9013
  0.9034   0.9061   0.9071   0.9074   0.9085   0.9101   0.9103   0.9118
  0.9125   0.9136   0.9143   0.9158   0.9175   0.9185   0.9197   0.9202
  0.9216   0.9228   0.9237   0.9248   0.9253   0.9262   0.9275   0.9279
  0.9288   0.9307   0.9314   0.9321   0.9342   0.9345   0.9348   0.9364
  0.9382   0.9387   0.9397   0.9411   0.9428   0.9434   0.9444   0.9457
  0.9476   0.9488   0.9502   0.9504   0.9512   0.9514   0.9544   0.9551
  0.9562   0.9574   0.9576   0.9577   0.9599   0.9600   0.9608   0.9616
  0.9633   0.9639   0.9643   0.9657   0.9668   0.9675   0.9682   0.9708
  0.9716   0.9723   0.9734   0.9739   0.9755   0.9763   0.9769   0.9777
  0.9788   0.9801   0.9811   0.9823   0.9837   0.9858   0.9875   0.9882
  0.9884   0.9889   0.9907   0.9913   0.9936   0.9941   0.9947   0.9967
  0.9970   0.9983   0.9987   0.9994   1.0008   1.0010   1.0031   1.0036
  1.0051   1.0061   1.0065   1.0073   1.0090   1.0094   1.0112   1.0118
  1.0126   1.0129   1.0147   1.0169   1.0171   1.0183   1.0195   1.0201
  1.0212   1.0217   1.0221   1.0233   1.0249   1.0261   1.0275   1.0284
  1.0291   1.0301   1.0310   1.0317   1.0332   1.0346   1.0351   1.0380
  1.0381   1.0404   1.0411   1.0419   1.0432   1.0452   1.0455   1.0461
  1.0485   1.0488   1.0503   1.0513   1.0514   1.0526   1.0540   1.0561
  1.0566   1.0573   1.0582   1.0602   1.0616   1.0618   1.0623   1.0637
  1.0641   1.0658   1.0686   1.0687   1.0694   1.0702   1.0711   1.0723
  1.0745   1.0754   1.0774   1.0788   1.0791   1.0809   1.0820   1.0829
  1.0833   1.0844   1.0847   1.0870   1.0898   1.0901   1.0916   1.0937
  1.0942   1.0955   1.0974   1.0978   1.0985   1.1005   1.1010   1.1023
  1.1032   1.1043   1.1068   1.1079   1.1095   1.1097   1.1107   1.1137
  1.1141   1.1150   1.1153   1.1161   1.1179   1.1182   1.1194   1.1211
  1.1216   1.1233   1.1246   1.1268   1.1272   1.1291   1.1293   1.1305
  1.1331   1.1345   1.1350   1.1354   1.1364   1.1378   1.1383   1.1407
  1.1417   1.1428   1.1435   1.1449   1.1461   1.1479   1.1485   1.1495
  1.1510   1.1513   1.1522   1.1525   1.1557   1.1560   1.1590   1.1593
  1.1598   1.1614   1.1625   1.1632   1.1635   1.1653   1.1678   1.1684
  1.1707   1.1726   1.1730   1.1737   1.1754   1.1764   1.1778   1.1790
  1.1802   1.1816   1.1845   1.1858   1.1859   1.1881   1.1893   1.1899
  1.1916   1.1924   1.1959   1.1959   1.1969   1.1987   1.1999   1.2013
  1.2016   1.2029   1.2064   1.2087   1.2116   1.2122   1.2128   1.2141
  1.2163   1.2174   1.2199   1.2217   1.2223   1.2237   1.2256   1.2268
  1.2281   1.2295   1.2326   1.2329   1.2349   1.2361   1.2372   1.2383
  1.2407   1.2420   1.2443   1.2458   1.2471   1.2489   1.2496   1.2508
  1.2528   1.2551   1.2561   1.2574   1.2604   1.2621   1.2661   1.2687
  1.2713   1.2720   1.2731   1.2733   1.2747   1.2783   1.2801   1.2838
  1.2861   1.2880   1.2900   1.2914   1.2933   1.2955   1.2969   1.2995
  1.3019   1.3048   1.3056   1.3075   1.3102   1.3131   1.3139   1.3162
  1.3170   1.3194   1.3199   1.3220   1.3240   1.3267   1.3306   1.3320
  1.3345   1.3356   1.3380   1.3386   1.3395   1.3444   1.3468   1.3475
  1.3490   1.3493   1.3524   1.3560   1.3562   1.3579   1.3595   1.3615
  1.3627   1.3643   1.3655   1.3673   1.3700   1.3708   1.3712   1.3756
  1.3772   1.3792   1.3796   1.3821   1.3827   1.3845   1.3851   1.3872
  1.3893   1.3906   1.3915   1.3933   1.3944   1.3968   1.3977   1.3991
  1.4001   1.4013   1.4026   1.4048   1.4054   1.4072   1.4087   1.4093
  1.4110   1.4118   1.4127   1.4136   1.4156   1.4164   1.4182   1.4191
  1.4206   1.4220   1.4233   1.4242   1.4269   1.4276   1.4282   1.4297
  1.4309   1.4318   1.4326   1.4344   1.4365   1.4382   1.4405   1.4411
  1.4437   1.4445   1.4470   1.4477   1.4502   1.4508   1.4525   1.4528
  1.4541   1.4554   1.4560   1.4580   1.4591   1.4596   1.4613   1.4639
  1.4647   1.4655   1.4679   1.4709   1.4725   1.4734   1.4749   1.4763
  1.4776   1.4793   1.4803   1.4813   1.4834   1.4875   1.4889   1.4911
  1.4939   1.4950   1.4958   1.4961   1.4977   1.4995   1.5042   1.5051
  1.5072   1.5078   1.5090   1.5105   1.5128   1.5164   1.5174   1.5188
  1.5203   1.5218   1.5240   1.5256   1.5274   1.5312   1.5313   1.5336
  1.5353   1.5369   1.5405   1.5437   1.5450   1.5458   1.5491   1.5554
  1.5575   1.5583   1.5598   1.5623   1.5636   1.5666   1.5682   1.5740
  1.5750   1.5786   1.5807   1.5839   1.5859   1.5870   1.5934   1.5941
  1.5953   1.5996   1.6015   1.6056   1.6114   1.6131   1.6188   1.6236
  1.6272   1.6298   1.6340   1.6397   1.6417   1.6420   1.6457   1.6491
  1.6499   1.6517   1.6522   1.6549   1.6591   1.6602   1.6608   1.6623
  1.6635   1.6649   1.6675   1.6679   1.6688   1.6729   1.6747   1.6761
  1.6786   1.6798   1.6822   1.6837   1.6846   1.6863   1.6884   1.6890
  1.6899   1.6914   1.6927   1.6940   1.6947   1.6954   1.6964   1.6976
  1.6991   1.6994   1.7013   1.7019   1.7025   1.7036   1.7051   1.7053
  1.7075   1.7082   1.7089   1.7093   1.7110   1.7132   1.7136   1.7140
  1.7163   1.7165   1.7193   1.7202   1.7204   1.7214   1.7220   1.7251
  1.7265   1.7275   1.7286   1.7315   1.7317   1.7333   1.7341   1.7362
  1.7373   1.7383   1.7403   1.7413   1.7420   1.7443   1.7450   1.7456
  1.7477   1.7486   1.7498   1.7512   1.7517   1.7537   1.7546   1.7551
  1.7570   1.7572   1.7592   1.7597   1.7612   1.7623   1.7647   1.7661
  1.7676   1.7694   1.7701   1.7727   1.7743   1.7754   1.7762   1.7775
  1.7789   1.7809   1.7822   1.7844   1.7861   1.7875   1.7913   1.7929
  1.7957   1.7962   1.7985   1.7998   1.8013   1.8025   1.8042   1.8062
  1.8071   1.8100   1.8102   1.8131   1.8169   1.8187   1.8201   1.8217
  1.8233   1.8268   1.8288   1.8321   1.8337   1.8354   1.8380   1.8390
  1.8434   1.8441   1.8464   1.8487   1.8505   1.8523   1.8539   1.8576
  1.8599   1.8613   1.8647   1.8692   1.8710   1.8723   1.8729   1.8754
  1.8761   1.8772   1.8786   1.8806   1.8822   1.8828   1.8870   1.8889
  1.8897   1.8907   1.8929   1.8935   1.8939   1.8945   1.8978   1.8981
  1.8983   1.8994   1.9018   1.9034   1.9043   1.9054   1.9063   1.9064
  1.9092   1.9113   1.9122   1.9133   1.9143   1.9156   1.9166   1.9171
  1.9184   1.9205   1.9209   1.9213   1.9225   1.9244   1.9259   1.9263
  1.9271   1.9290   1.9295   1.9316   1.9317   1.9347   1.9357   1.9379
  1.9382   1.9419   1.9426   1.9443   1.9456   1.9476   1.9502   1.9518
  1.9536   1.9554   1.9579   1.9608   1.9614   1.9672   1.9682   1.9730
  1.9762   1.9805   1.9865   1.9896   1.9930   1.9963   1.9985   2.0039
  2.0086   2.0139   2.0175   2.0228   2.0321   2.0338   2.0368   2.0382
  2.0392   2.0454   2.0470   2.0492   2.0515   2.0539   2.0550   2.0556
  2.0603   2.0627   2.0647   2.0660   2.0673   2.0696   2.0714   2.0721
  2.0732   2.0735   2.0751   2.0759   2.0765   2.0772   2.0786   2.0797
  2.0805   2.0817   2.0838   2.0859   2.0869   2.0883   2.0896   2.0923
  2.0943   2.0949   2.0964   2.0979   2.0989   2.1005   2.1018   2.1033
  2.1042   2.1060   2.1081   2.1092   2.1096   2.1123   2.1135   2.1168
  2.1176   2.1204   2.1228   2.1259   2.1261   2.1284   2.1307   2.1341
  2.1358   2.1370   2.1402   2.1411   2.1470   2.1484   2.1497   2.1534
  2.1574   2.1592   2.1625   2.1635   2.1701   2.1744   2.1787   2.1795
  2.1835   2.1843   2.1848   2.1869   2.1914   2.1929   2.1942   2.1971
  2.1988   2.2006   2.2026   2.2056   2.2072   2.2073   2.2101   2.2111
  2.2148   2.2182   2.2201   2.2224   2.2235   2.2238   2.2253   2.2277
  2.2285   2.2331   2.2342   2.2350   2.2370   2.2376   2.2384   2.2409
  2.2414   2.2432   2.2435   2.2441   2.2446   2.2455   2.2458   2.2463
  2.2468   2.2471   2.2493   2.2503   2.2510   2.2521   2.2538   2.2547
  2.2559   2.2568   2.2573   2.2587   2.2592   2.2602   2.2612   2.2616
  2.2627   2.2635   2.2642   2.2666   2.2675   2.2679   2.2693   2.2706
  2.2708   2.2714   2.2722   2.2738   2.2747   2.2766   2.2772   2.2776
  2.2783   2.2802   2.2817   2.2824   2.2836   2.2841   2.2849   2.2858
  2.2860   2.2865   2.2879   2.2887   2.2897   2.2903   2.2914   2.2920
  2.2940   2.2945   2.2953   2.2959   2.2967   2.2975   2.2985   2.3000
  2.3010   2.3027   2.3030   2.3041   2.3044   2.3051   2.3059   2.3078
  2.3081   2.3103   2.3107   2.3123   2.3130   2.3134   2.3153   2.3171
  2.3180   2.3193   2.3216   2.3227   2.3246   2.3250   2.3252   2.3272
  2.3285   2.3296   2.3300   2.3324   2.3338   2.3346   2.3363   2.3368
  2.3380   2.3398   2.3401   2.3430   2.3442   2.3460   2.3470   2.3498
  2.3501   2.3515   2.3529   2.3542   2.3564   2.3578   2.3603   2.3632
  2.3637   2.3651   2.3676   2.3685   2.3701   2.3721   2.3731   2.3759
  2.3777   2.3796   2.3835   2.3861   2.3874   2.3895   2.3910   2.3935
  2.3942   2.3972   2.3979   2.3995   2.4049   2.4083   2.4103   2.4126
  2.4161   2.4231   2.4284   2.4340   2.4398   2.4534   2.4567   2.4683
  2.4962   2.5044   2.5613   2.5742   2.6125   2.6818   2.7441   2.7643
  2.7813   2.8055   2.8070   2.8121   2.8195   2.8259   2.8339   2.8395
  2.8455   2.8471   2.8485   2.8488   2.8510   2.8526   2.8548   2.8559
  2.8577   2.8590   2.8618   2.8655   2.8691   2.8721   2.8741   2.8767
  2.8838   2.8858   2.8895   2.8925   2.8982   2.9005   2.9036   2.9065
  2.9182   2.9232   2.9685   3.1176   3.2757   3.9305   3.9402   3.9462
  3.9530   3.9576   3.9636   3.9692   3.9701   3.9727   3.9776   3.9805
  3.9825   3.9884   3.9968   3.9996   4.0011   4.0024   4.0030   4.0065
  4.0112   4.0144   4.0156   4.0187   4.0232   4.0267   4.0372   4.0427
  4.0510   4.0550   4.1975   4.2079   4.2199   4.2244   4.2340   4.2363
  4.2431   4.2464   4.2497   4.2550   4.2567   4.2587   4.2608   4.2619
  4.2631   4.2656   4.2670   4.2716   4.2746   4.2757   4.2780   4.2817
  4.2855   4.2867   4.2882   4.2924   4.2936   4.2967   4.3006   4.3027
  4.3045   4.3065   4.3078   4.3094   4.3103   4.3147   4.3192   4.3216
  4.3232   4.3261   4.3296   4.3300   4.3335   4.3362   4.3386   4.3399
  4.3418   4.3446   4.3463   4.3495   4.3503   4.3545   4.3582   4.3603
  4.3626   4.3665   4.3688   4.3730   4.3776   4.3783   4.3817   4.3845
  4.3893   4.3975   4.3996   4.4047   4.4052   4.4104   4.4186   4.4209
  4.4292   4.4340   4.4385   4.4497   4.4565   4.4607   4.4766   4.4768
  4.4867   4.5020   4.5067   4.5194   4.5431   4.5556   4.5639   4.5844
  4.5941   4.6008   4.6420   4.6548   4.7029   4.7088   4.7430   4.7930
  4.8360   4.9708
 --------------------------------------------------------------
 
          Ground-State Mulliken Net Atomic Charges

     Atom                 Charge (a.u.)
  ----------------------------------------
      1 C                    -0.027955
      2 C                    -0.776301
      3 C                    -0.353618
      4 C                    -0.348207
      5 C                    -0.370938
      6 C                    -0.516152
      7 H                     0.212033
      8 H                     0.212124
      9 H                     0.205779
     10 H                     0.208132
     11 H                     0.197816
     12 H                     0.181605
     13 H                     0.245437
     14 H                     0.173304
     15 H                     0.243028
     16 H                     0.192530
     17 H                     0.201915
     18 N                    -0.387421
     19 H                     0.473927
     20 C                     0.361116
     21 H                     0.225365
     22 O                    -0.553521
     23 C                    -0.820230
     24 H                     0.262881
     25 H                     0.236299
     26 H                     0.269789
     27 S                     0.535135
     28 C                    -0.820034
     29 H                     0.266817
     30 H                     0.240568
     31 H                     0.274908
     32 O                    -0.480685
     33 C                    -1.014360
     34 H                     0.244605
     35 H                     0.257823
     36 H                     0.253784
     37 S                     1.161559
     38 C                    -0.822195
     39 H                     0.258757
     40 H                     0.227240
     41 H                     0.285758
     42 O                    -0.751601
     43 C                    -1.046709
     44 H                     0.294100
     45 H                     0.271435
     46 H                     0.272862
     47 S                     1.148145
     48 C                    -0.984361
     49 H                     0.259546
     50 H                     0.224815
     51 H                     0.266844
     52 O                    -0.725434
     53 C                    -0.805610
     54 H                     0.228546
     55 H                     0.277277
     56 H                     0.234840
     57 S                     1.117536
     58 C                    -1.081769
     59 H                     0.198006
     60 H                     0.290277
     61 H                     0.259863
     62 O                    -0.691712
     63 C                    -0.609004
     64 H                     0.317914
     65 H                     0.259771
     66 H                     0.304367
     67 S                     0.049811
     68 C                    -0.535310
     69 H                     0.286356
     70 H                     0.252845
     71 H                     0.248571
     72 O                    -0.483550
     73 C                    -0.737691
     74 H                     0.246183
     75 H                     0.267408
     76 H                     0.254021
     77 S                     0.479497
     78 C                    -0.833813
     79 H                     0.262211
     80 H                     0.306207
     81 H                     0.288541
     82 O                    -0.690019
     83 C                    -0.831547
     84 H                     0.252334
     85 H                     0.244411
     86 H                     0.240632
     87 S                     0.777014
     88 C                    -0.732191
     89 H                     0.252723
     90 H                     0.251361
     91 H                     0.248238
     92 O                    -0.717253
     93 C                    -0.608642
     94 H                     0.239658
     95 H                     0.276882
     96 H                     0.307363
     97 S                    -0.005139
     98 C                    -0.649373
     99 H                     0.275643
    100 H                     0.251273
    101 H                     0.272337
    102 O                    -0.525355
    103 C                    -0.869714
    104 H                     0.268083
    105 H                     0.230899
    106 H                     0.232160
    107 S                     1.150999
    108 C                    -1.152437
    109 H                     0.248715
    110 H                     0.293100
    111 H                     0.245635
    112 O                    -0.687720
    113 C                    -1.028515
    114 H                     0.261318
    115 H                     0.276887
    116 H                     0.268134
    117 S                     1.274910
    118 C                    -1.053015
    119 H                     0.256028
    120 H                     0.256001
    121 H                     0.244725
    122 O                    -0.724989
    123 C                    -0.818276
    124 H                     0.255386
    125 H                     0.239407
    126 H                     0.270319
    127 S                     0.800879
    128 C                    -0.781255
    129 H                     0.263410
    130 H                     0.224505
    131 H                     0.258570
    132 O                    -0.720020
    133 C                    -1.085100
    134 H                     0.250813
    135 H                     0.275209
    136 H                     0.268758
    137 S                     1.135648
    138 C                    -0.928622
    139 H                     0.254428
    140 H                     0.266517
    141 H                     0.257404
    142 O                    -0.625617
    143 C                    -1.154074
    144 H                     0.246086
    145 H                     0.277565
    146 H                     0.263457
    147 S                     1.371345
    148 C                    -1.277885
    149 H                     0.307841
    150 H                     0.242912
    151 H                     0.277392
    152 O                    -0.691501
    153 C                    -0.854433
    154 H                     0.226347
    155 H                     0.259727
    156 H                     0.251700
    157 S                     1.050623
    158 C                    -0.941930
    159 H                     0.241987
    160 H                     0.256351
    161 H                     0.257206
    162 O                    -0.708935
    163 C                    -0.893187
    164 H                     0.253544
    165 H                     0.223404
    166 H                     0.280744
    167 S                     1.167987
    168 C                    -0.962333
    169 H                     0.241534
    170 H                     0.271330
    171 H                     0.246324
    172 O                    -0.747380
    173 C                    -0.777094
    174 H                     0.223705
    175 H                     0.265628
    176 H                     0.234437
    177 S                     1.038137
    178 C                    -1.022410
    179 H                     0.252500
    180 H                     0.253576
    181 H                     0.298477
    182 O                    -0.710251
    183 C                    -1.089527
    184 H                     0.295069
    185 H                     0.234404
    186 H                     0.227247
    187 S                     1.394813
    188 C                    -1.281229
    189 H                     0.274143
    190 H                     0.284098
    191 H                     0.305465
    192 O                    -0.694880
    193 C                    -0.690663
    194 H                     0.258842
    195 H                     0.255922
    196 H                     0.247948
    197 S                     0.543093
    198 C                    -0.696780
    199 H                     0.246560
    200 H                     0.232348
    201 H                     0.288169
    202 O                    -0.710704
    203 C                    -0.746926
    204 H                     0.307305
    205 H                     0.261419
    206 H                     0.246211
    207 S                     0.680552
    208 C                    -0.856763
    209 H                     0.283831
    210 H                     0.242796
    211 H                     0.245950
    212 O                    -0.673316
    213 C                    -0.909921
    214 H                     0.246086
    215 H                     0.302553
    216 H                     0.211305
    217 S                     0.948961
    218 C                    -0.854739
    219 H                     0.222873
    220 H                     0.261535
    221 H                     0.253544
    222 O                    -0.741416
    223 C                    -0.866388
    224 H                     0.261024
    225 H                     0.225994
    226 H                     0.274389
    227 S                     0.936746
    228 C                    -0.824113
    229 H                     0.292687
    230 H                     0.223948
    231 H                     0.250993
    232 O                    -0.744439
    233 C                    -0.777073
    234 H                     0.299923
    235 H                     0.263378
    236 H                     0.236432
    237 S                     1.084887
    238 C                    -1.227883
    239 H                     0.305101
    240 H                     0.316659
    241 H                     0.275703
    242 O                    -0.764295
    243 C                    -0.795862
    244 H                     0.240105
    245 H                     0.269876
    246 H                     0.266733
    247 S                     0.819387
    248 C                    -0.821790
    249 H                     0.254263
    250 H                     0.272290
    251 H                     0.218939
    252 O                    -0.727863
    253 C                    -0.668219
    254 H                     0.253174
    255 H                     0.283842
    256 H                     0.224763
    257 S                     0.544194
    258 C                    -0.819281
    259 H                     0.225262
    260 H                     0.267537
    261 H                     0.278528
    262 O                    -0.551783
    263 C                    -0.555969
    264 H                     0.254535
    265 H                     0.275686
    266 H                     0.245957
    267 S                     0.471095
    268 C                    -0.870243
    269 H                     0.285541
    270 H                     0.252139
    271 H                     0.249569
    272 O                    -0.653612
    273 C                    -0.931043
    274 H                     0.322856
    275 H                     0.234099
    276 H                     0.274047
    277 S                     0.976496
    278 C                    -0.810494
    279 H                     0.236304
    280 H                     0.261275
    281 H                     0.265826
    282 O                    -0.747318
    283 C                    -1.002582
    284 H                     0.266987
    285 H                     0.261140
    286 H                     0.245619
    287 S                     1.171004
    288 C                    -0.932567
    289 H                     0.265172
    290 H                     0.237978
    291 H                     0.247551
    292 O                    -0.710273
    293 C                    -1.005024
    294 H                     0.281248
    295 H                     0.240438
    296 H                     0.289142
[...]
    2   0.0264495   0.0094194  -0.0096853  -0.0190136   0.0050628   0.0279383
    3   0.0093838  -0.0341195   0.0307833   0.1044469   0.0026911  -0.0174837
          175         176         177         178         179         180
    1  -0.0249984   0.0163277   0.0421142  -0.0089557   0.0039107  -0.0227474
    2  -0.0140357   0.0177417   0.0154272  -0.0034909  -0.0310426  -0.0023935
    3   0.0134219   0.0205722  -0.0310226  -0.0081502  -0.0037811   0.0253569
          181         182         183         184         185         186
    1   0.0021107   0.0022227  -0.0098139  -0.0203487  -0.0082895  -0.0101851
    2   0.0283036  -0.0672309  -0.0007827  -0.0184337   0.0076217   0.0261092
    3  -0.0210093   0.0857656   0.0018170  -0.0175779   0.0327799  -0.0132187
          187         188         189         190         191         192
    1   0.0348048  -0.0055072  -0.0051829   0.0194977  -0.0305752  -0.0070611
    2   0.0336793   0.0005181   0.0335055  -0.0062878  -0.0144943  -0.1091094
    3   0.0186802  -0.0101288  -0.0108756  -0.0145701  -0.0024923   0.0169642
          193         194         195         196         197         198
    1  -0.0047709  -0.0106354  -0.0237416  -0.0114266  -0.0010622   0.0035699
    2  -0.0046893  -0.0072203   0.0200842  -0.0259605   0.0222113  -0.0050452
    3   0.0051729   0.0318581   0.0071965  -0.0169765  -0.0538844   0.0046598
          199         200         201         202         203         204
    1  -0.0047843   0.0055594   0.0295936   0.0334704   0.0024884   0.0238641
    2  -0.0239806  -0.0200430   0.0072959   0.0575872  -0.0097757  -0.0238024
    3   0.0243444  -0.0260724   0.0015648   0.0872813  -0.0033624   0.0043504
          205         206         207         208         209         210
    1  -0.0120037  -0.0068765   0.0179194  -0.0083465   0.0052397  -0.0154650
    2  -0.0306280   0.0075162  -0.0040203   0.0047595   0.0344362  -0.0124381
    3   0.0149075  -0.0297651   0.0534008  -0.0032150  -0.0098803  -0.0250365
          211         212         213         214         215         216
    1  -0.0183160   0.0423104  -0.0084378  -0.0227141   0.0073886  -0.0083353
    2  -0.0267502   0.0629005  -0.0001667  -0.0198181  -0.0002419   0.0295294
    3   0.0187237  -0.0782452   0.0064386  -0.0135243   0.0355173  -0.0095079
          217         218         219         220         221         222
    1   0.0433694  -0.0007963  -0.0007272   0.0217711  -0.0301138  -0.0031208
    2   0.0328375  -0.0029774   0.0246820  -0.0151656  -0.0112309  -0.1066432
    3   0.0083883  -0.0034853  -0.0247905  -0.0227868  -0.0017890   0.0294181
          223         224         225         226         227         228
    1  -0.0059577   0.0114735   0.0016960  -0.0259180   0.0453068  -0.0056846
    2  -0.0048380  -0.0278661   0.0030304  -0.0031441   0.0139336   0.0061467
    3   0.0052510   0.0042717   0.0374139  -0.0196279   0.0259567  -0.0007469
          229         230         231         232         233         234
    1  -0.0236893  -0.0197045   0.0109639  -0.0081266  -0.0051284  -0.0123405
    2  -0.0025290   0.0074359   0.0239412  -0.0539053   0.0042326  -0.0203027
    3  -0.0175220   0.0321198  -0.0213264  -0.0912403  -0.0010447  -0.0236616
          235         236         237         238         239         240
    1  -0.0098778   0.0122726   0.0139248  -0.0008214   0.0107259   0.0079998
    2   0.0192666   0.0231021  -0.0422320  -0.0022130  -0.0204615   0.0277347
    3   0.0229130  -0.0158232  -0.0251450   0.0121271   0.0251911   0.0194591
          241         242         243         244         245         246
    1  -0.0242189   0.0610712   0.0047673   0.0208220  -0.0197640   0.0082282
    2  -0.0106553   0.0597100  -0.0097622  -0.0020895  -0.0212995  -0.0198488
    3  -0.0117444   0.0774992   0.0029419   0.0229326   0.0076282  -0.0223660
          247         248         249         250         251         252
    1  -0.0229119   0.0059843   0.0185825  -0.0134846   0.0282808  -0.0583992
    2  -0.0055278   0.0061835  -0.0024997   0.0281274  -0.0090348   0.0393925
    3  -0.0542193   0.0026914  -0.0275941   0.0104373   0.0124480   0.0838444
          253         254         255         256         257         258
    1   0.0000383  -0.0214455   0.0325269   0.0094640   0.0304635  -0.0051546
    2   0.0054138   0.0240919   0.0044752  -0.0255381  -0.0452786  -0.0073389
    3  -0.0063836  -0.0079572   0.0029142  -0.0185042   0.0324710  -0.0015342
          259         260         261         262         263         264
    1  -0.0109180  -0.0047675  -0.0093058  -0.0247437   0.0018929   0.0253496
    2   0.0096811  -0.0340857   0.0054045   0.0948687   0.0006391   0.0129469
    3  -0.0291789  -0.0091621   0.0365013   0.0439522   0.0048253   0.0218945
          265         266         267         268         269         270
    1  -0.0191428  -0.0177836  -0.0480126   0.0003340   0.0132391   0.0250227
    2   0.0253927  -0.0249320  -0.0151549  -0.0078623  -0.0098108   0.0049070
    3   0.0001696   0.0161174  -0.0312925   0.0013042  -0.0271165   0.0130280
          271         272         273         274         275         276
    1  -0.0058710   0.0734960  -0.0056729  -0.0074199  -0.0227894   0.0280239
    2  -0.0294693   0.0737950   0.0139100   0.0286190  -0.0223803   0.0023654
    3   0.0222225  -0.0302523   0.0038397  -0.0219263   0.0150145   0.0204933
          277         278         279         280         281         282
    1   0.0107995   0.0059837   0.0152436  -0.0171835   0.0135983  -0.0602704
    2  -0.0514863   0.0018340  -0.0155704   0.0253375   0.0039949   0.0261201
    3   0.0165089  -0.0025478  -0.0224241  -0.0124304   0.0276325  -0.0881397
          283         284         285         286         287         288
    1  -0.0026234  -0.0250856   0.0131655  -0.0202442   0.0501673  -0.0036473
    2   0.0058948   0.0118352   0.0238077  -0.0135145   0.0203260  -0.0061273
    3  -0.0048502   0.0084662  -0.0214357  -0.0181850   0.0058382   0.0000219
          289         290         291         292         293         294
    1  -0.0306309   0.0196185   0.0133600  -0.0751017  -0.0019060  -0.0125744
    2  -0.0095697  -0.0053160  -0.0300800  -0.0107273  -0.0070826  -0.0203672
    3   0.0021845  -0.0269647   0.0112350   0.0790819   0.0021595   0.0295378
          295         296         297         298         299         300
    1  -0.0295878   0.0161866  -0.0117872  -0.0043424  -0.0134541  -0.0153960
    2  -0.0038955  -0.0183806   0.0352077   0.0013086  -0.0301809   0.0240932
    3  -0.0113141  -0.0188806   0.0421342  -0.0099715  -0.0084102   0.0034351
          301         302         303         304         305         306
    1   0.0257327   0.1028135   0.0025475   0.0330075   0.0072013  -0.0203058
    2   0.0232836  -0.0328832   0.0018436   0.0066543  -0.0127061   0.0240446
    3  -0.0079522  -0.0239084  -0.0031259  -0.0020000  -0.0303244  -0.0161607
          307         308         309         310         311         312
    1  -0.0550721   0.0031947   0.0282599  -0.0203479   0.0010706   0.0724741
    2  -0.0085172   0.0032457   0.0232134   0.0217566  -0.0126950  -0.0837879
    3  -0.0004169   0.0051368   0.0071065   0.0183127   0.0271051   0.0037320
  --- DONE ESP SUMMARY ---
Archival summary:
1\1\n0099.mhg0\SP\ProcedureUnspecified\6-31+G*\292958h22\ymao\FriMar1217:42:482021FriMar1217:42:482021\0\\#,ProcedureUnspecified,6-31+G*,\\0,1\S\O,1,1.49697\C,1,1.80716,2,106.45\H,3,1.09278,1,114.962,2,159.047,0\H,3,1.09289,1,103.868,2,40.1411,0\H,3,1.09313,1,108.996,2,-75.487,0\C,1,1.80735,2,105.241,3,101.06,0\H,7,1.09263,1,112.785,2,68.8775,0\H,7,1.0933,1,105.248,2,-44.2096,0\H,7,1.09402,1,108.548,2,-159.057,0\H,6,2.0709,3,141.223,1,77.5694,0\C,11,1.09371,6,109.792,3,168.839,0\H,12,1.09249,11,116.029,6,-141.509,0\H,12,1.0928,11,107.195,6,-18.9774,0\S,12,1.80728,11,109.392,6,93.2455,0\O,15,1.49703,12,100.158,11,-65.3782,0\C,15,1.807,12,94.9194,11,-160.947,0\H,17,1.09249,15,109.082,12,42.0207,0\H,17,1.09295,15,111.226,12,157.541,0\H,17,1.09313,15,110.313,12,-82.7241,0\Gh,9,2.08814,7,152.893,1,-31.9222,0\Gh,21,1.09683,9,129.934,7,-162.67,0\Gh,22,1.46193,21,111.527,9,-67.8209,0\Gh,23,1.0127,22,122.775,21,-137.174,0\Gh,23,1.37811,22,124.409,21,43.7181,0\Gh,25,1.10485,23,114.067,22,168.811,0\Gh,25,1.21824,23,122.748,22,-1.56834,0\Gh,22,1.53729,21,106.889,9,58.6706,0\Gh,28,1.0964,22,108.831,21,164.323,0\Gh,28,1.09732,22,111.401,21,-82.3327,0\Gh,28,1.53772,22,113.544,21,51.7254,0\Gh,31,1.09684,28,109.208,22,-59.4281,0\Gh,31,1.09685,28,111.903,22,177.523,0\Gh,31,1.53714,28,106.397,22,57.1522,0\Gh,34,1.0971,31,107.433,28,-179.08,0\Gh,34,1.09729,31,107.314,28,67.6685,0\Gh,34,1.53736,31,110.605,28,-55.6516,0\Gh,37,1.09672,34,109.012,31,-64.4614,0\Gh,37,1.09742,34,118.762,31,-176.681,0\Gh,22,1.53805,21,102.372,9,176.959,0\Gh,40,1.09653,22,113.521,21,70.8773,0\Gh,40,1.09682,22,107.279,21,-172.953,0\O,24,2.08876,23,156.058,22,45.834,0\S,43,1.49711,24,118.68,23,-154.184,0\C,44,1.80626,43,104.127,24,115.313,0\H,45,1.09304,44,105.779,43,-61.1492,0\H,45,1.09314,44,113.941,43,-178.108,0\H,45,1.09338,44,106.017,43,57.4191,0\C,44,1.80691,43,98.8946,24,22.9586,0\H,49,1.09265,44,111.367,43,36.6334,0\H,49,1.09314,44,113.832,43,153.378,0\H,49,1.09381,44,104.478,43,-83.4329,0\H,47,2.17331,45,105.444,44,125.042,0\C,53,1.09265,47,101.283,45,114.582,0\H,54,1.09329,53,114.936,47,-36.6186,0\H,54,1.09367,53,115.5,47,-167.155,0\S,54,1.80744,53,110.346,47,75.6297,0\O,57,1.49649,54,103.311,53,-39.0269,0\C,57,1.80737,54,98.6164,53,-143.123,0\H,59,1.09222,57,108.794,54,-78.4441,0\H,59,1.09288,57,100.421,54,160.391,0\H,59,1.09297,57,107.899,54,40.4427,0\H,18,2.20763,17,115.085,15,72.5729,0\C,63,1.09342,18,156.299,17,-115.537,0\H,64,1.09296,63,105.838,18,4.11227,0\H,64,1.09311,63,107.623,18,125.861,0\S,64,1.80662,63,109.502,18,-116.354,0\O,67,1.4969,64,98.8443,63,72.8361,0\C,67,1.80753,64,96.5264,63,175.809,0\H,69,1.09276,67,111.29,64,74.5236,0\H,69,1.09324,67,107.051,64,-51.7798,0\H,69,1.09334,67,108.864,64,-170.635,0\H,39,2.26602,37,142.075,34,98.2913,0\C,73,1.09289,39,134.326,37,-22.4118,0\H,74,1.09233,73,106.327,39,-121.616,0\H,74,1.09335,73,112.462,39,126.991,0\S,74,1.80773,73,115.842,39,3.7779,0\O,77,1.49714,74,103.84,73,-57.7007,0\C,77,1.80708,74,88.979,73,-165.207,0\H,79,1.09259,77,112.98,74,-71.4724,0\H,79,1.09308,77,103.072,74,172.673,0\H,79,1.09335,77,109.988,74,53.6414,0\O,26,2.28047,25,161.785,23,-20.5193,0\S,83,1.49709,26,97.6082,25,123.75,0\C,84,1.80651,83,98.4719,26,134.116,0\H,85,1.0925,84,105.243,83,162.255,0\H,85,1.09315,84,109.339,83,-76.1616,0\H,85,1.09366,84,107.787,83,42.0148,0\C,84,1.80713,83,111.469,26,-125.274,0\H,89,1.09249,84,109.904,83,-52.3012,0\H,89,1.09331,84,110.422,83,-173.364,0\H,89,1.09339,84,105.925,83,78.205,0\H,41,2.29003,40,105.494,22,163.591,0\C,93,1.09263,41,111.619,40,-167.63,0\H,94,1.09281,93,103.874,41,63.7813,0\H,94,1.09333,93,105.143,41,-170.818,0\S,94,1.80746,93,116.879,41,-53.9025,0\O,97,1.49777,94,99.4034,93,-48.1091,0\C,97,1.80687,94,98.3135,93,-149.823,0\H,99,1.09299,97,106.868,94,169.384,0\H,99,1.09306,97,118.889,94,-57.0488,0\H,99,1.09308,97,103.365,94,61.1199,0\H,82,2.30684,79,103.199,77,110.543,0\C,103,1.09286,82,151.661,79,-154.393,0\H,104,1.09257,103,107.949,82,-155.769,0\H,104,1.09319,103,113.438,82,-31.3138,0\S,104,1.80744,103,113.342,82,86.9065,0\O,107,1.49718,104,105.454,103,74.6133,0\C,107,1.80643,104,90.7245,103,176.729,0\H,109,1.09247,107,104.818,104,-154.482,0\H,109,1.09277,107,115.11,104,-32.4584,0\H,109,1.09366,107,110.678,104,96.1782,0\O,106,2.31323,104,152.627,103,108.003,0\S,113,1.49689,106,106.468,104,-95.6085,0\C,114,1.80633,113,108.832,106,55.7386,0\H,115,1.09304,114,110.039,113,51.8718,0\H,115,1.09315,114,108.103,113,171.543,0\H,115,1.09332,114,111.01,113,-67.7634,0\C,114,1.8071,113,102.6,106,-44.5878,0\H,119,1.09261,114,115.263,113,-148.859,0\H,119,1.0929,114,106.475,113,79.704,0\H,119,1.09335,114,105.658,113,-30.639,0\H,117,2.2163,115,170.383,114,135.155,0\C,123,1.09338,117,116.059,115,-147.271,0\H,124,1.09306,123,117.135,117,-0.534779,0\H,124,1.09324,123,109.197,117,-123.012,0\S,124,1.80646,123,102.923,117,116.733,0\O,127,1.49708,124,103.363,123,-44.0503,0\C,127,1.80723,124,98.8897,123,61.1373,0\H,129,1.09225,127,108.42,124,-146.467,0\H,129,1.0929,127,103.775,124,-35.7845,0\H,129,1.09308,127,108.815,124,83.6879,0\H,95,2.32149,94,146.948,93,-150.379,0\C,133,1.09344,95,107.445,94,-79.1169,0\H,134,1.09282,133,110.602,95,24.7664,0\H,134,1.09348,133,103.35,95,-93.8065,0\S,134,1.80714,133,115.927,95,150.065,0\O,137,1.49677,134,103.785,133,64.4179,0\C,137,1.80739,134,96.5161,133,167.433,0\H,139,1.09261,137,110.857,134,-52.3465,0\H,139,1.09292,137,99.3329,134,-163.116,0\H,139,1.0933,137,106.813,134,76.9454,0\O,8,2.34509,7,118.225,1,75.2265,0\S,143,1.49666,8,143.205,7,1.96666,0\C,144,1.80728,143,97.1721,8,117.215,0\H,145,1.09239,144,110.486,143,-176.32,0\H,145,1.09314,144,106.911,143,58.7424,0\H,145,1.09369,144,111.771,143,-60.0826,0\C,144,1.80746,143,106.549,8,20.5496,0\H,149,1.09228,144,103.783,143,152.087,0\H,149,1.09335,144,110.546,143,-99.0945,0\H,149,1.09364,144,110.629,143,31.0707,0\H,130,2.35116,129,142.136,127,78.0582,0\C,153,1.09328,130,104.514,129,-142.859,0\H,154,1.09241,153,111.075,130,44.001,0\H,154,1.09318,153,115.345,130,-82.4662,0\S,154,1.80655,153,95.8507,130,158.053,0\O,157,1.49715,154,102.871,153,126.886,0\C,157,1.80728,154,95.2514,153,-125.903,0\H,159,1.09243,157,102.055,154,-165.71,0\H,159,1.09327,157,105.265,154,-48.3272,0\H,159,1.09365,157,113.872,154,73.3262,0\H,41,2.35217,40,123.581,22,-28.8259,0\C,163,1.09348,41,125.253,40,109.167,0\H,164,1.09247,163,110.174,41,163.314,0\H,164,1.09273,163,111.59,41,-75.5024,0\S,164,1.80689,163,116.814,41,52.6503,0\O,167,1.49735,164,103.012,163,74.4525,0\C,167,1.80672,164,96.2776,163,177.19,0\H,169,1.09249,167,104.766,164,63.8524,0\H,169,1.09257,167,109.552,164,174.941,0\H,169,1.09345,167,107.227,164,-61.8667,0\H,165,2.28261,164,130.575,163,-32.82,0\C,173,1.09304,165,112.736,164,45.9625,0\H,174,1.09318,173,109.993,165,76.1255,0\H,174,1.09341,173,113.658,165,-50.202,0\S,174,1.80679,173,110.682,165,-173.143,0\O,177,1.49708,174,105.28,173,-14.5434,0\C,177,1.80665,174,96.8491,173,96.3132,0\H,179,1.09307,177,113.217,174,-139.841,0\H,179,1.09331,177,114.799,174,-23.9513,0\H,179,1.09338,177,109.603,174,94.4842,0\H,30,2.35229,28,141.108,22,89.4554,0\C,183,1.09298,30,100.009,28,79.493,0\H,184,1.09325,183,106.759,30,69.5544,0\H,184,1.09335,183,108.548,30,-50.4178,0\S,184,1.80779,183,108.148,30,-171.405,0\O,187,1.49627,184,100.971,183,-71.9351,0\C,187,1.80734,184,91.2591,183,-175.703,0\H,189,1.0926,187,108.528,184,71.2639,0\H,189,1.09295,187,105.632,184,-175.651,0\H,189,1.09306,187,111.045,184,-55.0784,0\H,183,2.31089,30,132.295,28,-120.718,0\C,193,1.09319,183,169.699,30,-15.324,0\H,194,1.09316,193,104.927,183,-94.1546,0\H,194,1.09329,193,104.144,183,149.784,0\S,194,1.8074,193,111.115,183,27.3848,0\O,197,1.49615,194,98.732,193,-166.064,0\C,197,1.80688,194,97.9856,193,-65.6027,0\H,199,1.09251,197,108.667,194,165.634,0\H,199,1.09254,197,106.124,194,50.3654,0\H,199,1.0934,197,115.381,194,-70.308,0\H,196,2.09455,194,120.107,193,-113.892,0\C,203,1.093,196,143.6,194,-105.88,0\H,204,1.09299,203,106.343,196,-100.617,0\H,204,1.09312,203,111.621,196,23.8163,0\S,204,1.80675,203,102.103,196,149.667,0\O,207,1.49717,204,94.2509,203,154.224,0\C,207,1.80703,204,101.339,203,46.237,0\H,209,1.09227,207,112.51,204,155.888,0\H,209,1.09328,207,105.778,204,-89.6326,0\H,209,1.09331,207,112.968,204,26.0245,0\H,185,2.32118,184,133.785,183,-5.02388,0\C,213,1.09281,185,110.377,184,88.5481,0\H,214,1.09292,213,107.027,185,-145.589,0\H,214,1.09334,213,112.928,185,-27.7012,0\S,214,1.80708,213,112.144,185,103.234,0\O,217,1.49735,214,99.1862,213,34.9537,0\C,217,1.80717,214,95.1962,213,-69.2588,0\H,219,1.09282,217,105.549,214,75.3677,0\H,219,1.09311,217,118.703,214,-41.7655,0\H,219,1.09399,217,116.35,214,-174.281,0\H,215,2.05429,214,163.347,213,-13.921,0\C,223,1.09259,215,145.601,214,-130.843,0\H,224,1.09322,223,118.088,215,161.83,0\H,224,1.09356,223,107.943,215,34.0336,0\S,224,1.80745,223,107.225,215,-73.399,0\O,227,1.49754,224,103.104,223,75.1364,0\C,227,1.80707,224,97.5323,223,-175.523,0\H,229,1.09233,227,106.938,224,49.6402,0\H,229,1.09267,227,115.49,224,162.703,0\H,229,1.09341,227,115.984,224,-72.5179,0\O,220,2.27637,219,154.16,217,-135.851,0\S,233,1.49786,220,136.692,219,139.047,0\C,234,1.80683,233,98.1593,220,165.072,0\H,235,1.09259,234,112.166,233,-48.1468,0\H,235,1.09278,234,109.03,233,-173.376,0\H,235,1.09377,234,101.123,233,66.0545,0\C,234,1.80743,233,105.23,220,64.3141,0\H,239,1.09279,234,113.624,233,54.1712,0\H,239,1.09285,234,117.322,233,177.519,0\H,239,1.09338,234,103.406,233,-62.1054,0\H,242,2.13274,239,104.483,234,-149.245,0\C,243,1.09314,242,110.488,239,94.9219,0\H,244,1.093,243,98.3147,242,-84.7069,0\H,244,1.09317,243,118.222,242,160.902,0\S,244,1.80697,243,120.152,242,29.524,0\O,247,1.49629,244,100.025,243,-159.713,0\C,247,1.80652,244,97.5251,243,97.9823,0\H,249,1.09301,247,108.072,244,-178.221,0\H,249,1.09301,247,107.485,244,-54.2363,0\H,249,1.0936,247,109.152,244,63.4374,0\O,241,2.21968,239,145.363,234,-57.7599,0\S,253,1.49681,241,133.618,239,-36.4632,0\C,254,1.80683,253,102.814,241,-124.586,0\H,255,1.09284,254,106.672,253,60.9212,0\H,255,1.0933,254,112.458,253,175.374,0\H,255,1.09336,254,111.11,253,-58.6237,0\C,254,1.80715,253,108.428,241,142.282,0\H,259,1.09259,254,106.707,253,171.649,0\H,259,1.09293,254,101.721,253,-69.2958,0\H,259,1.09329,254,109.487,253,47.5582,0\H,238,2.3473,235,133.973,234,88.1409,0\C,263,1.09325,238,110.083,235,132.369,0\H,264,1.09261,263,106.599,238,36.7044,0\H,264,1.09319,263,111.428,238,-80.622,0\S,264,1.80609,263,109.874,238,151.567,0\O,267,1.49666,264,101.982,263,-44.1403,0\C,267,1.80713,264,96.7343,263,60.8528,0\H,269,1.09271,267,105.767,264,57.5393,0\H,269,1.09327,267,110.744,264,-57.7661,0\H,269,1.09333,267,114.15,264,-173.729,0\H,252,2.39267,249,116.183,247,128.283,0\C,273,1.09294,252,166.921,249,30.27,0\H,274,1.09337,273,116.213,252,101.198,0\H,274,1.0935,273,108.352,252,-136.827,0\S,274,1.80707,273,105.153,252,-21.3249,0\O,277,1.49626,274,101,273,30.7567,0\C,277,1.80655,274,94.0111,273,132.489,0\H,279,1.09239,277,115.263,274,59.4072,0\H,279,1.09317,277,101.81,274,-172.713,0\H,279,1.09338,277,103.851,274,-60.3789,0\H,262,2.4426,259,127.157,254,-45.4635,0\C,283,1.09301,262,143.519,259,-107.918,0\H,284,1.09218,283,111.383,262,-118.529,0\H,284,1.09305,283,112.639,262,120.139,0\S,284,1.80671,283,111.544,262,6.2558,0\O,287,1.49714,284,104.018,283,-70.6581,0\C,287,1.80786,284,96.2048,283,-169.401,0\H,289,1.09235,287,110.914,284,-67.9988,0\H,289,1.09284,287,107.326,284,173.094,0\H,289,1.09301,287,103.773,284,62.8954,0\H,87,2.52714,85,121.451,84,-23.3767,0\C,293,1.09306,87,125.335,85,-57.8631,0\H,294,1.09257,293,119.56,87,101.348,0\H,294,1.09317,293,107.444,87,-128.375,0\S,294,1.80692,293,108.698,87,-22.2501,0\O,297,1.49682,294,104.925,293,86.5384,0\C,297,1.80727,294,95.7441,293,-161.999,0\H,299,1.09241,297,109.035,294,160.078,0\H,299,1.09308,297,105.917,294,-89.0175,0\H,299,1.09312,297,112.468,294,35.7555,0\H,293,2.78783,87,73.6944,85,-141.604,0\C,303,1.09244,293,122.006,87,-106.615,0\H,304,1.09331,303,108.764,293,-177.674,0\H,304,1.09338,303,113.222,293,-60.9799,0\S,304,1.80703,303,107.609,293,54.8844,0\O,307,1.49681,304,109.497,303,86.1314,0\C,307,1.80637,304,92.4439,303,-172.445,0\H,309,1.09266,307,105.906,304,-164.655,0\H,309,1.09307,307,110.86,304,-49.8528,0\H,309,1.09383,307,104.107,304,70.7452,0\\\@

 Total job time:  84.83s(wall), 301.16s(cpu) 
 Fri Mar 12 17:42:48 2021

        *************************************************************
        *                                                           *
        *  Thank you very much for using Q-Chem.  Have a nice day.  *
        *                                                           *
        *************************************************************


