                  Welcome to Q-Chem
     A Quantum Leap Into The Future Of Chemistry


 Q-Chem 5.2 (devel), Q-Chem, Inc., Pleasanton, CA (2019)

 Yihan Shao,  Zhengting Gan,  E. Epifanovsky,  A. T. B. Gilbert,  M. Wormit,  
 J. Kussmann,  A. W. Lange,  A. Behn,  Jia Deng,  Xintian Feng,  D. Ghosh,  
 M. Goldey,  P. R. Horn,  L. D. Jacobson,  I. Kaliman,  T. Kus,  A. Landau,  
 Jie Liu,  E. I. Proynov,  R. M. Richard,  R. P. Steele,  E. J. Sundstrom,  
 H. L. Woodcock III,  P. M. Zimmerman,  D. Zuev,  B. Alam,  B. Albrecht,  
 E. Alguire,  S. A. Baeppler,  D. Barton,  Z. Benda,  Y. A. Bernard,  
 E. J. Berquist,  K. B. Bravaya,  H. Burton,  K. Carter-Fenk,  D. Casanova,  
 Chun-Min Chang,  Yunqing Chen,  A. Chien,  K. D. Closser,  M. P. Coons,  
 S. Coriani,  S. Dasgupta,  A. L. Dempwolff,  M. Diedenhofen,  Hainam Do,  
 R. G. Edgar,  Po-Tung Fang,  S. Faraji,  S. Fatehi,  Qingguo Feng,  
 J. Fosso-Tande,  J. Gayvert,  Qinghui Ge,  A. Ghysels,  G. Gidofalvi,  
 J. Gomes,  J. Gonthier,  A. Gunina,  D. Hait,  M. W. D. Hanson-Heine,  
 P. H. P. Harbach,  A. W. Hauser,  M. F. Herbst,  J. E. Herr,  
 E. G. Hohenstein,  Z. C. Holden,  Kerwin Hui,  B. C. Huynh,  T.-C. Jagau,  
 Hyunjun Ji,  B. Kaduk,  K. Khistyaev,  Jaehoon Kim,  P. Klunzinger,  K. Koh,  
 D. Kosenkov,  L. Koulias,  T. Kowalczyk,  C. M. Krauter,  A. Kunitsa,  
 Ka Un Lao,  A. Laurent,  K. V. Lawler,  Joonho Lee,  D. Lefrancois,  
 S. Lehtola,  D. S. Levine,  Yi-Pei Li,  You-Sheng Lin,  Fenglai Liu,  
 Kuan-Yu Liu,  E. Livshits,  M. Loipersberger,  A. Luenser,  P. Manohar,  
 E. Mansoor,  S. F. Manzer,  Shan-Ping Mao,  Yuezhi Mao,  N. Mardirossian,  
 A. V. Marenich,  T. Markovich,  L. A. Martinez-Martinez,  S. A. Maurer,  
 N. J. Mayhall,  S. C. McKenzie,  J.-M. Mewes,  P. Morgante,  A. F. Morrison,  
 J. W. Mullinax,  K. Nanda,  T. S. Nguyen-Beck,  R. Olivares-Amaya,  
 J. A. Parkhill,  S. K. Paul,  F. Pavosevic,  Zheng Pei,  T. M. Perrine,  
 F. Plasser,  P. Pokhilko,  S. Prager,  A. Prociuk,  E. Ramos,  B. Rana,  
 D. R. Rehn,  F. Rob,  M. Scheurer,  M. Schneider,  N. Sergueev,  
 S. M. Sharada,  S. Sharma,  D. W. Small,  T. Stauch,  C. J. Stein,  
 T. Stein,  Yu-Chuan Su,  S. P. Veccham,  Zhen Tao,  A. J. W. Thom,  
 A. Tkatchenko,  T. Tsuchimochi,  N. M. Tubman,  L. Vogt,  M. L. Vidal,  
 O. Vydrov,  M. A. Watson,  J. Wenzel,  M. de Wergifosse,  T. A. Wesolowski,  
 A. White,  J. Witte,  A. Yamada,  Jun Yang,  K. Yao,  S. Yeganeh,  
 S. R. Yost,  Zhi-Qiang You,  A. Zech,  Igor Ying Zhang,  Xing Zhang,  
 Yan Zhao,  Ying Zhu,  B. R. Brooks,  G. K. L. Chan,  C. J. Cramer,  
 M. S. Gordon,  W. J. Hehre,  A. Klamt,  M. W. Schmidt,  C. D. Sherrill,  
 D. G. Truhlar,  A. Aspuru-Guzik,  R. Baer,  A. T. Bell,  N. A. Besley,  
 Jeng-Da Chai,  A. E. DePrince, III,  R. A. DiStasio Jr.,  A. Dreuw,  
 B. D. Dunietz,  T. R. Furlani,  Chao-Ping Hsu,  Yousung Jung,  Jing Kong,  
 D. S. Lambrecht,  WanZhen Liang,  C. Ochsenfeld,  V. A. Rassolov,  
 L. V. Slipchenko,  J. E. Subotnik,  T. Van Voorhis,  J. M. Herbert,  
 A. I. Krylov,  P. M. W. Gill,  M. Head-Gordon

 Contributors to earlier versions of Q-Chem not listed above: 
 R. D. Adamson,  B. Austin,  J. Baker,  G. J. O. Beran,  K. Brandhorst,  
 S. T. Brown,  E. F. C. Byrd,  A. K. Chakraborty,  C.-L. Cheng,  
 Siu Hung Chien,  D. M. Chipman,  D. L. Crittenden,  H. Dachsel,  
 R. J. Doerksen,  A. D. Dutoi,  L. Fusti-Molnar,  W. A. Goddard III,  
 A. Golubeva-Zadorozhnaya,  S. R. Gwaltney,  G. Hawkins,  A. Heyden,  
 S. Hirata,  G. Kedziora,  F. J. Keil,  C. Kelley,  Jihan Kim,  R. A. King,  
 R. Z. Khaliullin,  P. P. Korambath,  W. Kurlancheek,  A. M. Lee,  M. S. Lee,  
 S. V. Levchenko,  Ching Yeh Lin,  D. Liotard,  R. C. Lochan,  I. Lotan,  
 P. E. Maslen,  N. Nair,  D. P. O'Neill,  D. Neuhauser,  E. Neuscamman,  
 C. M. Oana,  R. Olson,  B. Peters,  R. Peverati,  P. A. Pieniazek,  
 Y. M. Rhee,  J. Ritchie,  M. A. Rohrdanz,  E. Rosta,  N. J. Russ,  
 H. F. Schaefer III,  N. E. Schultz,  N. Shenvi,  A. C. Simmonett,  A. Sodt,  
 D. Stuck,  K. S. Thanthiriwatte,  V. Vanovschi,  Tao Wang,  A. Warshel,  
 C. F. Williams,  Q. Wu,  X. Xu,  W. Zhang

 Please cite Q-Chem as follows:
 Y. Shao et al., Mol. Phys. 113, 184-215 (2015)
 DOI: 10.1080/00268976.2014.952696

 Q-Chem 5.2.2 for Intel X86 EM64T Linux

 Parts of Q-Chem use Armadillo 9.800.1 (Horizon Scraper).
 http://arma.sourceforge.net/

 Q-Chem begins on Thu Mar 11 13:37:32 2021  

Host: n0071.mhg0
0

     Scratch files written to /local/scratch/users/ymao/r7.00_frame_0001_almo_B3LYP_dp.in20210311133730//

Checking the input file for inconsistencies... 	...done.

--------------------------------------------------------------
User input:
--------------------------------------------------------------
$molecule
0 1
--
0 1
C    19.36700   20.77700   27.27000  
C    19.88600   19.45600   27.86200  
C    20.80700   18.74900   26.85300  
C    21.97700   19.62000   26.36800  
C    21.39400   20.90700   25.76100  
C    20.48500   21.68300   26.72700  
H    21.20200   17.83600   27.31600  
H    20.42400   19.59500   28.80700  
H    18.71700   20.48000   26.43800  
H    18.76500   21.30700   28.01800  
H    22.67600   19.86900   27.17500  
H    22.52200   18.92400   25.71900  
H    22.14600   21.60400   25.37100  
H    20.81100   20.54100   24.90700  
H    21.08000   22.11100   27.54300  
H    20.16100   22.47000   26.03500  
H    20.14000   18.45600   26.03300  
N    18.71600   18.64000   28.18100  
H    18.27400   18.26500   27.35100  
C    18.01800   18.58400   29.36900  
H    17.04900   18.07600   29.20900  
O    18.29200   19.06200   30.45500  
--
0 1
C    23.49400   20.10300   22.99000  
H    23.25200   19.24400   23.62100  
H    23.02000   20.98600   23.42600  
H    23.25000   19.95900   21.93400  
S    25.24200   20.55600   23.05100  
C    25.23900   20.95600   24.81300  
H    24.64800   21.87600   24.78800  
H    24.74500   20.13300   25.33600  
H    26.26200   21.08100   25.17600  
O    25.37700   21.83600   22.28700  
C    29.36000   19.11900   24.70400  
H    28.63800   19.20400   25.52100  
H    30.37300   19.00200   25.09600  
H    29.24200   19.90200   23.95100  
S    28.84200   17.50100   24.09000  
C    30.20100   17.25800   22.92500  
H    30.50100   18.21000   22.47900  
H    31.11700   16.84800   23.35800  
H    29.86300   16.59800   22.12200  
O    27.61300   17.82300   23.29800  
C    16.35100   19.42900   33.01700  
H    17.26400   19.92300   32.67500  
H    16.41400   18.94000   33.99200  
H    16.04400   18.69900   32.26300  
S    15.11800   20.73700   33.20600  
C    15.23500   20.93500   34.99800  
H    16.24900   21.27600   35.22200  
H    14.44000   21.62200   35.30100  
H    15.03700   19.97500   35.48100  
O    13.71600   20.23600   33.04600  
C    11.64800   13.52500   26.28300  
H    12.01300   13.19500   25.30700  
H    11.34700   12.61700   26.81100  
H    10.89400   14.31300   26.21400  
S    12.87000   14.53200   27.15400  
C    13.94700   13.15500   27.61400  
H    14.29500   12.63500   26.71800  
H    14.74200   13.53100   28.26300  
H    13.39100   12.52300   28.31100  
O    12.30900   14.83900   28.50800  
C    14.19100   17.79300   28.07200  
H    14.92800   17.93800   27.27800  
H    14.32100   16.81600   28.54600  
H    13.16500   17.93300   27.72400  
S    14.31700   19.05600   29.35800  
C    12.67500   18.92700   30.10100  
H    12.82600   18.28700   30.97400  
H    12.23800   19.86300   30.46000  
H    11.93700   18.52500   29.40200  
O    14.19400   20.30100   28.53400  
C    20.45800   12.92400   22.55300  
H    21.37000   13.49200   22.34700  
H    20.43200   11.83400   22.62000  
H    19.56200   13.24100   22.01300  
S    19.95600   13.32900   24.24100  
C    19.89900   15.12500   24.05300  
H    19.39800   15.49700   23.15600  
H    19.40900   15.53400   24.94000  
H    20.91400   15.52100   23.96400  
O    21.26700   13.22400   24.95700  
C    23.61800   23.64900   28.37900  
H    24.30800   24.32600   27.86900  
H    24.08800   22.66600   28.30100  
H    22.74500   23.71100   27.72400  
S    23.10600   24.25800   30.00200  
C    24.79100   24.75900   30.42100  
H    25.50300   23.95300   30.22900  
H    24.88700   25.60900   29.74100  
H    24.89500   25.11900   31.44800  
O    22.87300   23.02500   30.81900  
C    28.63800   21.32700   29.20100  
H    29.27100   21.02900   28.36000  
H    28.83600   22.39700   29.31100  
H    28.91400   20.79800   30.11700  
S    26.86800   21.08800   28.93300  
C    26.88000   19.36600   28.38500  
H    27.23400   18.73300   29.20200  
H    25.84000   19.06300   28.23800  
H    27.50400   19.36500   27.48700  
O    26.47500   21.99300   27.80700  
C    19.78600   22.04500   32.76500  
H    19.86400   22.67900   33.65200  
H    19.54800   21.04900   33.14600  
H    20.69000   21.92500   32.16300  
S    18.44700   22.69300   31.73800  
C    19.41700   24.19100   31.45100  
H    20.21600   23.97700   30.73700  
H    18.78900   25.04700   31.19200  
H    19.75300   24.42900   32.46300  
O    17.42600   23.00600   32.78700  
C    19.85800   25.53600   26.76400  
H    20.00700   25.59800   25.68300  
H    20.06900   24.54100   27.16500  
H    18.86400   25.96100   26.92600  
S    21.09700   26.67200   27.42800  
C    20.63000   28.20200   26.58600  
H    19.61400   28.43600   26.91500  
H    21.31100   28.97000   26.96200  
H    20.69300   28.03600   25.50800  
O    22.34600   26.20400   26.75000  
C    14.17400   15.96100   32.18900  
H    14.71000   15.91800   33.14000  
H    14.49800   16.86000   31.65900  
H    13.09400   15.84600   32.31100  
S    14.82000   14.57300   31.22900  
C    14.92600   13.54200   32.71000  
H    15.48800   13.89900   33.57600  
H    13.89700   13.27800   32.96800  
H    15.31500   12.59800   32.32000  
O    16.18700   15.04500   30.84200  
C    22.05100   19.63100   30.94900  
H    22.22200   20.27200   30.08000  
H    20.99800   19.40400   31.13300  
H    22.41100   20.28600   31.74600  
S    22.95700   18.07200   30.82300  
C    24.53300   18.88500   31.17000  
H    25.35200   18.16600   31.07900  
H    24.85700   19.66800   30.48000  
H    24.39500   19.25100   32.19000  
O    22.84600   17.81200   29.35300  
C    19.23700   15.49000   34.97700  
H    18.62900   15.15600   35.82200  
H    18.99600   14.82800   34.14200  
H    20.32100   15.47200   35.11600  
S    18.89400   17.21700   34.56800  
C    19.50900   17.21500   32.86800  
H    18.95100   16.45600   32.31400  
H    19.37300   18.18800   32.39100  
H    20.54600   16.86900   32.89100  
O    19.94000   18.02300   35.27400  
C    22.39400   15.65900   20.76200  
H    22.50200   16.39400   19.96000  
H    21.87500   14.77300   20.38900  
H    21.84900   15.94200   21.66700  
S    24.04700   15.16000   21.29500  
C    24.74800   16.75500   20.81800  
H    25.72200   16.73300   21.31400  
H    24.76200   16.83500   19.72800  
H    24.13500   17.52000   21.30100  
O    24.54600   14.22400   20.23900  
C    20.29000   18.63000   21.50800  
H    21.12700   18.90000   22.15700  
H    19.38400   18.94800   22.03000  
H    20.37400   17.57600   21.23100  
S    20.47100   19.61200   20.00200  
C    19.08200   18.85400   19.12900  
H    19.29500   17.78300   19.08700  
H    18.12900   19.07800   19.61500  
H    19.17100   19.33600   18.15200  
O    21.58700   18.91200   19.29200  
C    17.27100   29.02800   21.99100  
H    16.26400   28.60200   22.00000  
H    17.18300   29.91800   22.61900  
H    17.59900   29.19100   20.96100  
S    18.30200   27.78100   22.79500  
C    17.32800   27.61100   24.30800  
H    17.68800   26.67200   24.73600  
H    17.46700   28.49400   24.93700  
H    16.29300   27.41300   24.01800  
O    19.53700   28.49700   23.24600  
C    21.88500   25.46200   23.54700  
H    21.03200   24.80600   23.74000  
H    22.27700   25.97800   24.42700  
H    21.54700   26.26000   22.88100  
S    23.21500   24.52300   22.76200  
C    24.43700   24.70900   24.08000  
H    23.98900   24.77600   25.07500  
H    25.12400   23.86000   24.04300  
H    24.93200   25.65900   23.86500  
O    23.76000   25.47700   21.74400  
C    23.64800   15.05400   25.70000  
H    24.53300   14.72500   26.25100  
H    23.00200   15.57400   26.41200  
H    23.25000   14.13100   25.27000  
S    24.20900   16.15100   24.37800  
C    25.20600   17.31100   25.33900  
H    24.52600   17.82600   26.02300  
H    25.94800   16.80900   25.96400  
H    25.66400   18.05500   24.68200  
O    23.00400   16.96800   24.03000  
C    15.66800   19.11400   24.42600  
H    16.53300   18.61200   24.86500  
H    15.05600   19.68100   25.13200  
H    14.97400   18.50800   23.83800  
S    16.59800   20.13100   23.25700  
C    15.22200   21.17900   22.73200  
H    14.84700   21.69600   23.61900  
H    15.63400   21.97300   22.10300  
H    14.57400   20.56400   22.10300  
O    16.87800   19.21600   22.10500  
C    18.03300   24.56300   21.33800  
H    17.40100   25.43900   21.50600  
H    18.86600   24.83600   20.68400  
H    17.35300   23.91500   20.77900  
S    18.57800   23.84200   22.90200  
C    19.22200   22.34300   22.12500  
H    20.15300   22.53100   21.58400  
H    19.40300   21.49300   22.78800  
H    18.38300   21.99500   21.51700  
O    17.25400   23.47400   23.49700  
C    19.14300   14.69100   28.13100  
H    19.92200   14.94800   27.40800  
H    19.37400   15.27500   29.02600  
H    19.15000   13.63800   28.42500  
S    17.54200   15.29100   27.54700  
C    17.21700   13.73200   26.69300  
H    16.45000   13.89900   25.93100  
H    18.18800   13.38300   26.33400  
H    16.98400   13.03300   27.50000  
O    17.83600   16.27500   26.45800  
C    16.03900   22.97900   27.07900  
H    15.31500   22.16200   27.00900  
H    15.46000   23.88200   26.87100  
H    16.79900   22.91300   26.29600  
S    16.92300   23.13900   28.64700  
C    15.40100   23.41000   29.58300  
H    15.76000   23.62500   30.59200  
H    14.83900   24.26600   29.20100  
H    14.78000   22.51200   29.53500  
O    17.63500   24.45500   28.69000  
C    23.87200   11.11400   26.69900  
H    24.26800   10.13000   26.43500  
H    22.89300   11.32300   26.25800  
H    24.51900   11.96800   26.48700  
S    23.50400   11.13200   28.46800  
C    22.20600   12.37900   28.31700  
H    22.67800   13.36300   28.25300  
H    21.54800   12.12400   27.48300  
H    21.71400   12.27500   29.28800  
O    24.58400   11.90700   29.15700  
C    10.51200   19.12200   25.85900  
H    9.90900    19.65800   25.12200  
H    10.68500   18.05800   25.67500  
H    10.06700   19.12300   26.85800  
S    12.12900   19.91900   25.73400  
C    11.72800   21.46100   26.58700  
H    10.81800   21.89500   26.16400  
H    11.53500   21.22100   27.63600  
H    12.55200   22.17200   26.49300  
O    12.34300   20.32000   24.30700  
C    27.55000   13.88200   29.58100  
H    26.62300   13.30300   29.57100  
H    28.07200   13.93700   28.62200  
H    28.12300   13.40000   30.37700  
S    26.92300   15.51500   30.03100  
C    25.73500   15.52400   28.66900  
H    25.00100   14.74600   28.89200  
H    25.23000   16.49000   28.59200  
H    26.15700   15.21600   27.70900  
O    28.10800   16.36500   29.69000  
$end

$rem
JOBTYPE  SP
METHOD  B3LYP
BASIS  6-31+G(D)
SYMMETRY  FALSE
SYM_IGNORE  TRUE
MEM_TOTAL  16000
MEM_STATIC  8000
MAX_SUB_FILE_NUM  16000
BASIS_LIN_DEP_THRESH  6
THRESH  14
SCF_CONVERGENCE  8
GEN_SCFMAN  TRUE
SCF_GUESS  FRAGMO
FD_MAT_VEC_PROD  FALSE
XC_GRID  000075000302
NL_GRID  1
MAX_SCF_CYCLES  200
FRGM_METHOD  STOLL
SCFMI_MODE  1
$end

$development
almo_efield  1
$end

$rem_frgm
SCF_CONVERGENCE  4
$end

--------------------------------------------------------------
 ----------------------------------------------------------------
             Standard Nuclear Orientation (Angstroms)
    I     Atom           X                Y                Z
 ----------------------------------------------------------------
    1      C      19.3670000000    20.7770000000    27.2700000000
    2      C      19.8860000000    19.4560000000    27.8620000000
    3      C      20.8070000000    18.7490000000    26.8530000000
    4      C      21.9770000000    19.6200000000    26.3680000000
    5      C      21.3940000000    20.9070000000    25.7610000000
    6      C      20.4850000000    21.6830000000    26.7270000000
    7      H      21.2020000000    17.8360000000    27.3160000000
    8      H      20.4240000000    19.5950000000    28.8070000000
    9      H      18.7170000000    20.4800000000    26.4380000000
   10      H      18.7650000000    21.3070000000    28.0180000000
   11      H      22.6760000000    19.8690000000    27.1750000000
   12      H      22.5220000000    18.9240000000    25.7190000000
   13      H      22.1460000000    21.6040000000    25.3710000000
   14      H      20.8110000000    20.5410000000    24.9070000000
   15      H      21.0800000000    22.1110000000    27.5430000000
   16      H      20.1610000000    22.4700000000    26.0350000000
   17      H      20.1400000000    18.4560000000    26.0330000000
   18      N      18.7160000000    18.6400000000    28.1810000000
   19      H      18.2740000000    18.2650000000    27.3510000000
   20      C      18.0180000000    18.5840000000    29.3690000000
   21      H      17.0490000000    18.0760000000    29.2090000000
   22      O      18.2920000000    19.0620000000    30.4550000000
   23      C      23.4940000000    20.1030000000    22.9900000000
   24      H      23.2520000000    19.2440000000    23.6210000000
   25      H      23.0200000000    20.9860000000    23.4260000000
   26      H      23.2500000000    19.9590000000    21.9340000000
   27      S      25.2420000000    20.5560000000    23.0510000000
   28      C      25.2390000000    20.9560000000    24.8130000000
   29      H      24.6480000000    21.8760000000    24.7880000000
   30      H      24.7450000000    20.1330000000    25.3360000000
   31      H      26.2620000000    21.0810000000    25.1760000000
   32      O      25.3770000000    21.8360000000    22.2870000000
   33      C      29.3600000000    19.1190000000    24.7040000000
   34      H      28.6380000000    19.2040000000    25.5210000000
   35      H      30.3730000000    19.0020000000    25.0960000000
   36      H      29.2420000000    19.9020000000    23.9510000000
   37      S      28.8420000000    17.5010000000    24.0900000000
   38      C      30.2010000000    17.2580000000    22.9250000000
   39      H      30.5010000000    18.2100000000    22.4790000000
   40      H      31.1170000000    16.8480000000    23.3580000000
   41      H      29.8630000000    16.5980000000    22.1220000000
   42      O      27.6130000000    17.8230000000    23.2980000000
   43      C      16.3510000000    19.4290000000    33.0170000000
   44      H      17.2640000000    19.9230000000    32.6750000000
   45      H      16.4140000000    18.9400000000    33.9920000000
   46      H      16.0440000000    18.6990000000    32.2630000000
   47      S      15.1180000000    20.7370000000    33.2060000000
   48      C      15.2350000000    20.9350000000    34.9980000000
   49      H      16.2490000000    21.2760000000    35.2220000000
   50      H      14.4400000000    21.6220000000    35.3010000000
   51      H      15.0370000000    19.9750000000    35.4810000000
   52      O      13.7160000000    20.2360000000    33.0460000000
   53      C      11.6480000000    13.5250000000    26.2830000000
   54      H      12.0130000000    13.1950000000    25.3070000000
   55      H      11.3470000000    12.6170000000    26.8110000000
   56      H      10.8940000000    14.3130000000    26.2140000000
   57      S      12.8700000000    14.5320000000    27.1540000000
   58      C      13.9470000000    13.1550000000    27.6140000000
   59      H      14.2950000000    12.6350000000    26.7180000000
   60      H      14.7420000000    13.5310000000    28.2630000000
   61      H      13.3910000000    12.5230000000    28.3110000000
   62      O      12.3090000000    14.8390000000    28.5080000000
   63      C      14.1910000000    17.7930000000    28.0720000000
   64      H      14.9280000000    17.9380000000    27.2780000000
   65      H      14.3210000000    16.8160000000    28.5460000000
   66      H      13.1650000000    17.9330000000    27.7240000000
   67      S      14.3170000000    19.0560000000    29.3580000000
   68      C      12.6750000000    18.9270000000    30.1010000000
   69      H      12.8260000000    18.2870000000    30.9740000000
   70      H      12.2380000000    19.8630000000    30.4600000000
   71      H      11.9370000000    18.5250000000    29.4020000000
   72      O      14.1940000000    20.3010000000    28.5340000000
   73      C      20.4580000000    12.9240000000    22.5530000000
   74      H      21.3700000000    13.4920000000    22.3470000000
   75      H      20.4320000000    11.8340000000    22.6200000000
   76      H      19.5620000000    13.2410000000    22.0130000000
   77      S      19.9560000000    13.3290000000    24.2410000000
   78      C      19.8990000000    15.1250000000    24.0530000000
   79      H      19.3980000000    15.4970000000    23.1560000000
   80      H      19.4090000000    15.5340000000    24.9400000000
   81      H      20.9140000000    15.5210000000    23.9640000000
   82      O      21.2670000000    13.2240000000    24.9570000000
   83      C      23.6180000000    23.6490000000    28.3790000000
   84      H      24.3080000000    24.3260000000    27.8690000000
   85      H      24.0880000000    22.6660000000    28.3010000000
   86      H      22.7450000000    23.7110000000    27.7240000000
   87      S      23.1060000000    24.2580000000    30.0020000000
   88      C      24.7910000000    24.7590000000    30.4210000000
   89      H      25.5030000000    23.9530000000    30.2290000000
   90      H      24.8870000000    25.6090000000    29.7410000000
   91      H      24.8950000000    25.1190000000    31.4480000000
   92      O      22.8730000000    23.0250000000    30.8190000000
   93      C      28.6380000000    21.3270000000    29.2010000000
   94      H      29.2710000000    21.0290000000    28.3600000000
   95      H      28.8360000000    22.3970000000    29.3110000000
   96      H      28.9140000000    20.7980000000    30.1170000000
   97      S      26.8680000000    21.0880000000    28.9330000000
   98      C      26.8800000000    19.3660000000    28.3850000000
   99      H      27.2340000000    18.7330000000    29.2020000000
  100      H      25.8400000000    19.0630000000    28.2380000000
  101      H      27.5040000000    19.3650000000    27.4870000000
  102      O      26.4750000000    21.9930000000    27.8070000000
  103      C      19.7860000000    22.0450000000    32.7650000000
  104      H      19.8640000000    22.6790000000    33.6520000000
  105      H      19.5480000000    21.0490000000    33.1460000000
  106      H      20.6900000000    21.9250000000    32.1630000000
  107      S      18.4470000000    22.6930000000    31.7380000000
  108      C      19.4170000000    24.1910000000    31.4510000000
  109      H      20.2160000000    23.9770000000    30.7370000000
  110      H      18.7890000000    25.0470000000    31.1920000000
  111      H      19.7530000000    24.4290000000    32.4630000000
  112      O      17.4260000000    23.0060000000    32.7870000000
  113      C      19.8580000000    25.5360000000    26.7640000000
  114      H      20.0070000000    25.5980000000    25.6830000000
  115      H      20.0690000000    24.5410000000    27.1650000000
  116      H      18.8640000000    25.9610000000    26.9260000000
  117      S      21.0970000000    26.6720000000    27.4280000000
  118      C      20.6300000000    28.2020000000    26.5860000000
  119      H      19.6140000000    28.4360000000    26.9150000000
  120      H      21.3110000000    28.9700000000    26.9620000000
  121      H      20.6930000000    28.0360000000    25.5080000000
  122      O      22.3460000000    26.2040000000    26.7500000000
  123      C      14.1740000000    15.9610000000    32.1890000000
  124      H      14.7100000000    15.9180000000    33.1400000000
  125      H      14.4980000000    16.8600000000    31.6590000000
  126      H      13.0940000000    15.8460000000    32.3110000000
  127      S      14.8200000000    14.5730000000    31.2290000000
  128      C      14.9260000000    13.5420000000    32.7100000000
  129      H      15.4880000000    13.8990000000    33.5760000000
  130      H      13.8970000000    13.2780000000    32.9680000000
  131      H      15.3150000000    12.5980000000    32.3200000000
  132      O      16.1870000000    15.0450000000    30.8420000000
  133      C      22.0510000000    19.6310000000    30.9490000000
  134      H      22.2220000000    20.2720000000    30.0800000000
  135      H      20.9980000000    19.4040000000    31.1330000000
  136      H      22.4110000000    20.2860000000    31.7460000000
  137      S      22.9570000000    18.0720000000    30.8230000000
  138      C      24.5330000000    18.8850000000    31.1700000000
  139      H      25.3520000000    18.1660000000    31.0790000000
  140      H      24.8570000000    19.6680000000    30.4800000000
  141      H      24.3950000000    19.2510000000    32.1900000000
  142      O      22.8460000000    17.8120000000    29.3530000000
  143      C      19.2370000000    15.4900000000    34.9770000000
  144      H      18.6290000000    15.1560000000    35.8220000000
  145      H      18.9960000000    14.8280000000    34.1420000000
  146      H      20.3210000000    15.4720000000    35.1160000000
  147      S      18.8940000000    17.2170000000    34.5680000000
  148      C      19.5090000000    17.2150000000    32.8680000000
  149      H      18.9510000000    16.4560000000    32.3140000000
  150      H      19.3730000000    18.1880000000    32.3910000000
  151      H      20.5460000000    16.8690000000    32.8910000000
  152      O      19.9400000000    18.0230000000    35.2740000000
  153      C      22.3940000000    15.6590000000    20.7620000000
  154      H      22.5020000000    16.3940000000    19.9600000000
  155      H      21.8750000000    14.7730000000    20.3890000000
  156      H      21.8490000000    15.9420000000    21.6670000000
  157      S      24.0470000000    15.1600000000    21.2950000000
  158      C      24.7480000000    16.7550000000    20.8180000000
  159      H      25.7220000000    16.7330000000    21.3140000000
  160      H      24.7620000000    16.8350000000    19.7280000000
  161      H      24.1350000000    17.5200000000    21.3010000000
  162      O      24.5460000000    14.2240000000    20.2390000000
  163      C      20.2900000000    18.6300000000    21.5080000000
  164      H      21.1270000000    18.9000000000    22.1570000000
  165      H      19.3840000000    18.9480000000    22.0300000000
  166      H      20.3740000000    17.5760000000    21.2310000000
  167      S      20.4710000000    19.6120000000    20.0020000000
  168      C      19.0820000000    18.8540000000    19.1290000000
  169      H      19.2950000000    17.7830000000    19.0870000000
  170      H      18.1290000000    19.0780000000    19.6150000000
  171      H      19.1710000000    19.3360000000    18.1520000000
  172      O      21.5870000000    18.9120000000    19.2920000000
  173      C      17.2710000000    29.0280000000    21.9910000000
  174      H      16.2640000000    28.6020000000    22.0000000000
  175      H      17.1830000000    29.9180000000    22.6190000000
  176      H      17.5990000000    29.1910000000    20.9610000000
  177      S      18.3020000000    27.7810000000    22.7950000000
  178      C      17.3280000000    27.6110000000    24.3080000000
  179      H      17.6880000000    26.6720000000    24.7360000000
  180      H      17.4670000000    28.4940000000    24.9370000000
  181      H      16.2930000000    27.4130000000    24.0180000000
  182      O      19.5370000000    28.4970000000    23.2460000000
  183      C      21.8850000000    25.4620000000    23.5470000000
  184      H      21.0320000000    24.8060000000    23.7400000000
  185      H      22.2770000000    25.9780000000    24.4270000000
  186      H      21.5470000000    26.2600000000    22.8810000000
  187      S      23.2150000000    24.5230000000    22.7620000000
  188      C      24.4370000000    24.7090000000    24.0800000000
  189      H      23.9890000000    24.7760000000    25.0750000000
  190      H      25.1240000000    23.8600000000    24.0430000000
  191      H      24.9320000000    25.6590000000    23.8650000000
  192      O      23.7600000000    25.4770000000    21.7440000000
  193      C      23.6480000000    15.0540000000    25.7000000000
  194      H      24.5330000000    14.7250000000    26.2510000000
  195      H      23.0020000000    15.5740000000    26.4120000000
  196      H      23.2500000000    14.1310000000    25.2700000000
  197      S      24.2090000000    16.1510000000    24.3780000000
  198      C      25.2060000000    17.3110000000    25.3390000000
  199      H      24.5260000000    17.8260000000    26.0230000000
  200      H      25.9480000000    16.8090000000    25.9640000000
  201      H      25.6640000000    18.0550000000    24.6820000000
  202      O      23.0040000000    16.9680000000    24.0300000000
  203      C      15.6680000000    19.1140000000    24.4260000000
  204      H      16.5330000000    18.6120000000    24.8650000000
  205      H      15.0560000000    19.6810000000    25.1320000000
  206      H      14.9740000000    18.5080000000    23.8380000000
  207      S      16.5980000000    20.1310000000    23.2570000000
  208      C      15.2220000000    21.1790000000    22.7320000000
  209      H      14.8470000000    21.6960000000    23.6190000000
  210      H      15.6340000000    21.9730000000    22.1030000000
  211      H      14.5740000000    20.5640000000    22.1030000000
  212      O      16.8780000000    19.2160000000    22.1050000000
  213      C      18.0330000000    24.5630000000    21.3380000000
  214      H      17.4010000000    25.4390000000    21.5060000000
  215      H      18.8660000000    24.8360000000    20.6840000000
  216      H      17.3530000000    23.9150000000    20.7790000000
  217      S      18.5780000000    23.8420000000    22.9020000000
  218      C      19.2220000000    22.3430000000    22.1250000000
  219      H      20.1530000000    22.5310000000    21.5840000000
  220      H      19.4030000000    21.4930000000    22.7880000000
  221      H      18.3830000000    21.9950000000    21.5170000000
  222      O      17.2540000000    23.4740000000    23.4970000000
  223      C      19.1430000000    14.6910000000    28.1310000000
  224      H      19.9220000000    14.9480000000    27.4080000000
  225      H      19.3740000000    15.2750000000    29.0260000000
  226      H      19.1500000000    13.6380000000    28.4250000000
  227      S      17.5420000000    15.2910000000    27.5470000000
  228      C      17.2170000000    13.7320000000    26.6930000000
  229      H      16.4500000000    13.8990000000    25.9310000000
  230      H      18.1880000000    13.3830000000    26.3340000000
  231      H      16.9840000000    13.0330000000    27.5000000000
  232      O      17.8360000000    16.2750000000    26.4580000000
  233      C      16.0390000000    22.9790000000    27.0790000000
  234      H      15.3150000000    22.1620000000    27.0090000000
  235      H      15.4600000000    23.8820000000    26.8710000000
  236      H      16.7990000000    22.9130000000    26.2960000000
  237      S      16.9230000000    23.1390000000    28.6470000000
  238      C      15.4010000000    23.4100000000    29.5830000000
  239      H      15.7600000000    23.6250000000    30.5920000000
  240      H      14.8390000000    24.2660000000    29.2010000000
  241      H      14.7800000000    22.5120000000    29.5350000000
  242      O      17.6350000000    24.4550000000    28.6900000000
  243      C      23.8720000000    11.1140000000    26.6990000000
  244      H      24.2680000000    10.1300000000    26.4350000000
  245      H      22.8930000000    11.3230000000    26.2580000000
  246      H      24.5190000000    11.9680000000    26.4870000000
  247      S      23.5040000000    11.1320000000    28.4680000000
  248      C      22.2060000000    12.3790000000    28.3170000000
  249      H      22.6780000000    13.3630000000    28.2530000000
  250      H      21.5480000000    12.1240000000    27.4830000000
  251      H      21.7140000000    12.2750000000    29.2880000000
  252      O      24.5840000000    11.9070000000    29.1570000000
  253      C      10.5120000000    19.1220000000    25.8590000000
  254      H       9.9090000000    19.6580000000    25.1220000000
  255      H      10.6850000000    18.0580000000    25.6750000000
  256      H      10.0670000000    19.1230000000    26.8580000000
  257      S      12.1290000000    19.9190000000    25.7340000000
  258      C      11.7280000000    21.4610000000    26.5870000000
  259      H      10.8180000000    21.8950000000    26.1640000000
  260      H      11.5350000000    21.2210000000    27.6360000000
  261      H      12.5520000000    22.1720000000    26.4930000000
  262      O      12.3430000000    20.3200000000    24.3070000000
  263      C      27.5500000000    13.8820000000    29.5810000000
  264      H      26.6230000000    13.3030000000    29.5710000000
  265      H      28.0720000000    13.9370000000    28.6220000000
  266      H      28.1230000000    13.4000000000    30.3770000000
  267      S      26.9230000000    15.5150000000    30.0310000000
  268      C      25.7350000000    15.5240000000    28.6690000000
  269      H      25.0010000000    14.7460000000    28.8920000000
  270      H      25.2300000000    16.4900000000    28.5920000000
  271      H      26.1570000000    15.2160000000    27.7090000000
  272      O      28.1080000000    16.3650000000    29.6900000000
 ----------------------------------------------------------------
 Nuclear Repulsion Energy =       42012.80182827 hartrees
 There are      560 alpha and      560 beta electrons
 Requested basis set is 6-31+G(d)
 There are 896 shells and 2497 basis functions

 Total QAlloc Memory Limit  16000 MB
 Mega-Array Size      7821 MB
 MEM_STATIC part      8000 MB
 A cutoff of  1.0D-14 yielded 154380 shell pairs
 There are   1342754 function pairs
 Smallest overlap matrix eigenvalue = 4.87E-07
 Linear dependence detected in AO basis
 Tighter screening thresholds may be required for diffuse basis sets
 Use S2THRESH > 14 and THRESH = 14 in case of SCF convergence issues
 Number of orthogonalized atomic orbitals = 2495
 Maximum deviation from orthogonality = 9.568E-11

 Scale SEOQF with 1.000000e-03/1.000000e-03/1.000000e-03

 Standard Electronic Orientation quadrupole field applied
 Nucleus-field energy     =    -0.0000004029 hartrees
Attempting to make child job directory: /local/scratch/users/ymao/r7.00_frame_0001_almo_B3LYP_dp.in20210311133730//Frg1/
Attempting to make child job directory: /local/scratch/users/ymao/r7.00_frame_0001_almo_B3LYP_dp.in20210311133730//Frg2/
Creating input file /local/scratch/users/ymao/r7.00_frame_0001_almo_B3LYP_dp.in20210311133730/Frg1.input
using default PutDataFrgm: nothing
calling putenv with: QCSCRATCH=/local/scratch/users/ymao/r7.00_frame_0001_almo_B3LYP_dp.in20210311133730/ 
Spawning Job For Fragment 0
Done Job For Fragment 0
calling putenv with: QCSCRATCH=/local/scratch/users/ymao 
calling putenv with: QCTHREADS=8 
Creating input file /local/scratch/users/ymao/r7.00_frame_0001_almo_B3LYP_dp.in20210311133730/Frg2.input
using default PutDataFrgm: nothing
calling putenv with: QCSCRATCH=/local/scratch/users/ymao/r7.00_frame_0001_almo_B3LYP_dp.in20210311133730/ 
Spawning Job For Fragment 1
Done Job For Fragment 1
calling putenv with: QCSCRATCH=/local/scratch/users/ymao 
calling putenv with: QCTHREADS=8 
 Time for running child jobs:  CPU 0.36 s  wall 5835.20 s

 -----------------------------------------------------------------------
  General SCF calculation program by
  Eric Jon Sundstrom, Paul Horn, Yuezhi Mao, Dmitri Zuev, Alec White,
  David Stuck, Shaama M.S., Shane Yost, Joonho Lee, David Small,
  Daniel Levine, Susi Lehtola, Hugh Burton, Evgeny Epifanovsky,
  Bang C. Huynh
 -----------------------------------------------------------------------
Performing Restricted Closed Shell SCFMI
Doing General SCFMI
 Exchange:     0.2000 Hartree-Fock + 0.0800 Slater + 0.7200 B88
 Correlation:  0.1900 VWN1RPA + 0.8100 LYP
 Using Euler-Maclaurin-Lebedev (75,302) quadrature formula
performing fock build before subrot guess so that all methods have access
Printing subrot_rss_gen Method Specification:
Occupied Subspace Method is 0
Virtual Subspace Method is 0
Energy prior to optimization (guess energy) = -14234.371649704750
Begin Timing: Total SCF Calculation
begin iterations for algorithm: DIIS         
the SCF tolerance is set to 1.00e-08
    1  -14234.3716497047      3.35e-05     00000 
    2  -14234.3755522982      3.43e-05     00000 
    3  -14234.3779566019      1.69e-05     00000 
    4  -14234.3784950357      7.04e-06     00000 
    5  -14234.3786122694      2.77e-06     00000 
    6  -14234.3786306002      1.41e-06     00000 
    7  -14234.3786341516      1.11e-06     00000 
    8  -14234.3786363647      6.34e-07     00000 
    9  -14234.3786371612      3.14e-07     00000 
   10  -14234.3786373374      1.79e-07     00000 
   11  -14234.3786373933      1.11e-07     00000 
   12  -14234.3786374139      7.41e-08     00000 
   13  -14234.3786374255      3.35e-08     00000 
   14  -14234.3786374278      1.81e-08     00000 
   15  -14234.3786374285      1.15e-08     00000 
   16  -14234.3786374288      7.91e-09     00000 Convergence criterion met
write pseudocanon occs and virts to disk
write pseudocanon orbital energies to disk
Timing for Total SCF: 12622.00s (wall), 100497.52s (cpu)
SCFMI Energy  -14234.3786374288
<S^2>            0.00000
 Total energy in the final basis set =   -14234.3786374288
    ==================================================
        The end of Object-Oriented SCFman: SCFMI      
    ==================================================
 
 --------------------------------------------------------------
 
                    Orbital Energies (a.u.)
 --------------------------------------------------------------
 
 Alpha MOs
 -- Occupied --
-89.0301 -89.0210 -89.0192 -89.0127 -89.0104 -89.0062 -89.0052 -89.0051
-89.0051 -89.0042 -89.0040 -89.0026 -89.0022 -88.9971 -88.9968 -88.9914
-88.9841 -88.9825 -88.9817 -88.9788 -88.9768 -88.9706 -88.9679 -88.9644
-88.9561 -19.1441 -19.1422 -19.1406 -19.1337 -19.1259 -19.1257 -19.1256
-19.1235 -19.1220 -19.1212 -19.1206 -19.1173 -19.1171 -19.1164 -19.1136
-19.1109 -19.1104 -19.1056 -19.1054 -19.1007 -19.0960 -19.0950 -19.0931
-19.0890 -19.0854 -19.0657 -14.3631 -10.2940 -10.2490 -10.2446 -10.2421
-10.2418 -10.2342 -10.2341 -10.2318 -10.2316 -10.2271 -10.2260 -10.2257
-10.2256 -10.2255 -10.2248 -10.2238 -10.2233 -10.2232 -10.2208 -10.2202
-10.2197 -10.2194 -10.2194 -10.2191 -10.2177 -10.2159 -10.2105 -10.2102
-10.2100 -10.2099 -10.2088 -10.2059 -10.2053 -10.2038 -10.2036 -10.1996
-10.1978 -10.1978 -10.1975 -10.1959 -10.1957 -10.1952 -10.1934 -10.1903
-10.1885 -10.1882 -10.1879 -10.1864 -10.1862 -10.1844 -10.1830 -10.1811
-10.1809 -10.1765 -10.1756 -10.1694 -10.1691  -8.0763  -8.0671  -8.0653
 -8.0595  -8.0556  -8.0533  -8.0514  -8.0509  -8.0508  -8.0504  -8.0502
 -8.0487  -8.0482  -8.0434  -8.0425  -8.0369  -8.0308  -8.0288  -8.0282
 -8.0247  -8.0227  -8.0170  -8.0146  -8.0104  -8.0021  -6.0404  -6.0395
 -6.0338  -6.0314  -6.0300  -6.0298  -6.0283  -6.0245  -6.0238  -6.0226
 -6.0224  -6.0200  -6.0187  -6.0175  -6.0172  -6.0162  -6.0156  -6.0154
 -6.0153  -6.0147  -6.0147  -6.0146  -6.0140  -6.0138  -6.0137  -6.0134
 -6.0131  -6.0130  -6.0127  -6.0120  -6.0112  -6.0107  -6.0087  -6.0084
 -6.0082  -6.0078  -6.0076  -6.0073  -6.0070  -6.0067  -6.0059  -6.0058
 -6.0056  -6.0014  -6.0008  -5.9999  -5.9996  -5.9951  -5.9945  -5.9938
 -5.9930  -5.9927  -5.9919  -5.9913  -5.9891  -5.9880  -5.9877  -5.9871
 -5.9866  -5.9856  -5.9854  -5.9821  -5.9816  -5.9804  -5.9801  -5.9788
 -5.9775  -5.9748  -5.9738  -5.9736  -5.9721  -5.9676  -5.9663  -5.9653
 -5.9596  -1.0536  -1.0497  -1.0481  -1.0436  -1.0403  -1.0339  -1.0321
 -1.0298  -1.0292  -1.0290  -1.0288  -1.0269  -1.0269  -1.0260  -1.0244
 -1.0189  -1.0167  -1.0139  -1.0111  -1.0098  -1.0062  -1.0044  -1.0008
 -0.9937  -0.9937  -0.9764  -0.9294  -0.8308  -0.8291  -0.8287  -0.8241
 -0.8149  -0.8107  -0.8105  -0.8101  -0.8090  -0.8084  -0.8056  -0.8056
 -0.8039  -0.8023  -0.8000  -0.7956  -0.7899  -0.7881  -0.7856  -0.7825
 -0.7813  -0.7810  -0.7807  -0.7794  -0.7765  -0.7600  -0.7541  -0.7472
 -0.7450  -0.7439  -0.7402  -0.7392  -0.7376  -0.7370  -0.7368  -0.7355
 -0.7350  -0.7329  -0.7303  -0.7291  -0.7259  -0.7230  -0.7212  -0.7154
 -0.7139  -0.7109  -0.7090  -0.7070  -0.7021  -0.7007  -0.6969  -0.6956
 -0.6857  -0.6420  -0.6371  -0.6339  -0.6331  -0.6244  -0.6220  -0.6181
 -0.6180  -0.6173  -0.6172  -0.6165  -0.6163  -0.6161  -0.6142  -0.6135
 -0.6110  -0.6088  -0.6007  -0.5938  -0.5937  -0.5920  -0.5919  -0.5888
 -0.5884  -0.5864  -0.5798  -0.5789  -0.5703  -0.5666  -0.5239  -0.5150
 -0.5087  -0.5053  -0.5002  -0.4984  -0.4967  -0.4949  -0.4948  -0.4922
 -0.4916  -0.4903  -0.4895  -0.4872  -0.4863  -0.4850  -0.4844  -0.4835
 -0.4829  -0.4827  -0.4816  -0.4809  -0.4788  -0.4760  -0.4753  -0.4752
 -0.4749  -0.4741  -0.4737  -0.4732  -0.4730  -0.4727  -0.4709  -0.4707
 -0.4704  -0.4697  -0.4687  -0.4686  -0.4682  -0.4679  -0.4672  -0.4672
 -0.4663  -0.4661  -0.4660  -0.4655  -0.4649  -0.4645  -0.4623  -0.4618
 -0.4600  -0.4594  -0.4591  -0.4586  -0.4579  -0.4577  -0.4568  -0.4564
 -0.4550  -0.4545  -0.4533  -0.4517  -0.4510  -0.4501  -0.4489  -0.4479
 -0.4473  -0.4468  -0.4461  -0.4454  -0.4446  -0.4434  -0.4430  -0.4422
 -0.4421  -0.4417  -0.4415  -0.4412  -0.4400  -0.4396  -0.4388  -0.4385
 -0.4381  -0.4380  -0.4366  -0.4359  -0.4349  -0.4340  -0.4331  -0.4325
 -0.4317  -0.4301  -0.4295  -0.4278  -0.4271  -0.4262  -0.4246  -0.4221
 -0.4217  -0.4204  -0.4192  -0.4191  -0.4186  -0.4175  -0.4173  -0.4170
 -0.4166  -0.4148  -0.4141  -0.4139  -0.4125  -0.4114  -0.4111  -0.4110
 -0.4107  -0.4105  -0.4101  -0.4083  -0.4077  -0.4071  -0.4067  -0.4063
 -0.4060  -0.4053  -0.4047  -0.4033  -0.4027  -0.4018  -0.4003  -0.3996
 -0.3995  -0.3989  -0.3983  -0.3974  -0.3969  -0.3967  -0.3966  -0.3964
 -0.3937  -0.3930  -0.3919  -0.3916  -0.3906  -0.3904  -0.3899  -0.3884
 -0.3882  -0.3856  -0.3851  -0.3828  -0.3817  -0.3817  -0.3764  -0.3748
 -0.3735  -0.3732  -0.3727  -0.3724  -0.3720  -0.3713  -0.3711  -0.3698
 -0.3696  -0.3683  -0.3675  -0.3671  -0.3656  -0.3649  -0.3648  -0.3635
 -0.3616  -0.3612  -0.3582  -0.3577  -0.3537  -0.3530  -0.3497  -0.3485
 -0.3471  -0.3468  -0.3455  -0.3436  -0.3424  -0.3376  -0.3364  -0.3316
 -0.3259  -0.3178  -0.3070  -0.3037  -0.3033  -0.3007  -0.3002  -0.2887
 -0.2856  -0.2853  -0.2838  -0.2834  -0.2825  -0.2795  -0.2788  -0.2779
 -0.2750  -0.2740  -0.2726  -0.2717  -0.2700  -0.2695  -0.2687  -0.2666
 -0.2636  -0.2622  -0.2599  -0.2580  -0.2578  -0.2552  -0.2538  -0.2524
 -0.2511  -0.2501  -0.2499  -0.2493  -0.2483  -0.2451  -0.2438  -0.2430
 -0.2427  -0.2411  -0.2401  -0.2358  -0.2349  -0.2343  -0.2316  -0.2292
 -0.2273  -0.2244  -0.2216  -0.2211  -0.2096  -0.2074  -0.2061  -0.1919
 -- Virtual --
 -0.0402  -0.0346  -0.0280  -0.0240  -0.0204  -0.0183  -0.0170  -0.0140
 -0.0139  -0.0131  -0.0126  -0.0114  -0.0104  -0.0098  -0.0086  -0.0077
 -0.0071  -0.0064  -0.0045  -0.0036  -0.0031  -0.0023  -0.0002   0.0006
  0.0023   0.0028   0.0033   0.0036   0.0038   0.0049   0.0052   0.0061
  0.0074   0.0078   0.0083   0.0091   0.0093   0.0105   0.0114   0.0120
  0.0127   0.0134   0.0141   0.0153   0.0155   0.0168   0.0179   0.0184
  0.0194   0.0200   0.0214   0.0223   0.0224   0.0229   0.0235   0.0246
  0.0253   0.0258   0.0271   0.0273   0.0281   0.0289   0.0292   0.0295
  0.0302   0.0310   0.0314   0.0321   0.0329   0.0340   0.0348   0.0353
  0.0365   0.0373   0.0378   0.0383   0.0391   0.0401   0.0404   0.0413
  0.0419   0.0422   0.0431   0.0441   0.0445   0.0449   0.0452   0.0459
  0.0473   0.0480   0.0484   0.0490   0.0495   0.0501   0.0503   0.0507
  0.0510   0.0516   0.0528   0.0531   0.0540   0.0542   0.0546   0.0550
  0.0560   0.0563   0.0576   0.0583   0.0594   0.0596   0.0603   0.0614
  0.0622   0.0628   0.0629   0.0636   0.0645   0.0653   0.0661   0.0666
  0.0677   0.0683   0.0693   0.0699   0.0709   0.0715   0.0715   0.0720
  0.0724   0.0728   0.0737   0.0740   0.0748   0.0759   0.0769   0.0774
  0.0778   0.0789   0.0790   0.0795   0.0800   0.0815   0.0819   0.0829
  0.0830   0.0840   0.0848   0.0853   0.0862   0.0868   0.0872   0.0878
  0.0882   0.0893   0.0900   0.0908   0.0914   0.0921   0.0930   0.0935
  0.0937   0.0945   0.0955   0.0961   0.0967   0.0976   0.0983   0.0995
  0.0999   0.1011   0.1024   0.1027   0.1031   0.1037   0.1041   0.1045
  0.1050   0.1056   0.1064   0.1070   0.1080   0.1085   0.1096   0.1105
  0.1107   0.1118   0.1123   0.1123   0.1129   0.1142   0.1143   0.1148
  0.1154   0.1165   0.1168   0.1173   0.1177   0.1190   0.1192   0.1207
  0.1209   0.1210   0.1220   0.1227   0.1236   0.1244   0.1249   0.1257
  0.1264   0.1274   0.1291   0.1293   0.1301   0.1304   0.1311   0.1317
  0.1319   0.1326   0.1329   0.1338   0.1345   0.1353   0.1354   0.1362
  0.1367   0.1369   0.1377   0.1389   0.1395   0.1397   0.1402   0.1409
  0.1421   0.1424   0.1428   0.1430   0.1440   0.1446   0.1455   0.1459
  0.1462   0.1465   0.1479   0.1482   0.1485   0.1489   0.1501   0.1503
  0.1512   0.1516   0.1528   0.1533   0.1540   0.1544   0.1547   0.1554
  0.1557   0.1563   0.1567   0.1571   0.1586   0.1589   0.1594   0.1603
  0.1607   0.1614   0.1618   0.1632   0.1638   0.1642   0.1651   0.1654
  0.1663   0.1665   0.1676   0.1679   0.1687   0.1688   0.1694   0.1698
  0.1704   0.1708   0.1712   0.1720   0.1724   0.1735   0.1741   0.1742
  0.1750   0.1753   0.1762   0.1767   0.1775   0.1781   0.1783   0.1798
  0.1801   0.1805   0.1813   0.1829   0.1834   0.1845   0.1851   0.1856
  0.1857   0.1870   0.1871   0.1877   0.1889   0.1893   0.1904   0.1907
  0.1914   0.1919   0.1920   0.1930   0.1940   0.1946   0.1955   0.1956
  0.1961   0.1962   0.1980   0.1984   0.1992   0.2000   0.2008   0.2012
  0.2023   0.2028   0.2038   0.2038   0.2051   0.2055   0.2059   0.2069
  0.2073   0.2080   0.2083   0.2090   0.2095   0.2114   0.2116   0.2120
  0.2123   0.2133   0.2139   0.2148   0.2151   0.2160   0.2170   0.2174
  0.2184   0.2195   0.2207   0.2210   0.2217   0.2226   0.2234   0.2242
  0.2245   0.2257   0.2260   0.2265   0.2275   0.2277   0.2290   0.2293
  0.2299   0.2302   0.2314   0.2320   0.2332   0.2336   0.2339   0.2355
  0.2357   0.2366   0.2367   0.2375   0.2381   0.2385   0.2393   0.2401
  0.2413   0.2415   0.2427   0.2431   0.2435   0.2450   0.2452   0.2459
  0.2472   0.2476   0.2479   0.2491   0.2496   0.2507   0.2508   0.2511
  0.2512   0.2522   0.2531   0.2538   0.2551   0.2557   0.2563   0.2567
  0.2581   0.2582   0.2593   0.2600   0.2610   0.2613   0.2622   0.2633
  0.2643   0.2645   0.2657   0.2658   0.2670   0.2676   0.2681   0.2692
  0.2703   0.2706   0.2707   0.2720   0.2724   0.2726   0.2734   0.2741
  0.2747   0.2765   0.2770   0.2790   0.2798   0.2804   0.2814   0.2828
  0.2840   0.2842   0.2851   0.2855   0.2865   0.2868   0.2876   0.2885
  0.2893   0.2898   0.2904   0.2910   0.2919   0.2927   0.2934   0.2946
  0.2951   0.2956   0.2967   0.2981   0.2984   0.2993   0.2999   0.3003
  0.3016   0.3029   0.3034   0.3046   0.3052   0.3056   0.3072   0.3075
  0.3079   0.3088   0.3097   0.3108   0.3109   0.3120   0.3126   0.3136
  0.3142   0.3156   0.3159   0.3175   0.3184   0.3188   0.3193   0.3207
  0.3215   0.3222   0.3234   0.3244   0.3246   0.3258   0.3280   0.3288
  0.3301   0.3305   0.3314   0.3325   0.3329   0.3333   0.3343   0.3356
  0.3359   0.3367   0.3385   0.3398   0.3407   0.3421   0.3423   0.3429
  0.3436   0.3445   0.3454   0.3475   0.3482   0.3489   0.3499   0.3503
  0.3507   0.3522   0.3538   0.3539   0.3554   0.3560   0.3571   0.3582
  0.3590   0.3604   0.3608   0.3617   0.3632   0.3638   0.3642   0.3651
  0.3660   0.3668   0.3682   0.3694   0.3702   0.3708   0.3712   0.3726
  0.3736   0.3750   0.3756   0.3769   0.3777   0.3789   0.3791   0.3798
  0.3801   0.3822   0.3827   0.3831   0.3841   0.3862   0.3866   0.3870
  0.3883   0.3889   0.3917   0.3923   0.3928   0.3933   0.3943   0.3952
  0.3956   0.3972   0.3982   0.3988   0.4002   0.4006   0.4015   0.4028
  0.4037   0.4051   0.4058   0.4060   0.4076   0.4078   0.4091   0.4095
  0.4113   0.4116   0.4122   0.4136   0.4148   0.4154   0.4165   0.4169
  0.4182   0.4185   0.4198   0.4205   0.4212   0.4229   0.4233   0.4239
  0.4246   0.4264   0.4273   0.4290   0.4295   0.4300   0.4312   0.4324
  0.4346   0.4357   0.4369   0.4393   0.4400   0.4402   0.4418   0.4419
  0.4432   0.4446   0.4463   0.4472   0.4478   0.4487   0.4507   0.4525
  0.4540   0.4543   0.4556   0.4568   0.4577   0.4591   0.4598   0.4616
  0.4628   0.4635   0.4649   0.4657   0.4684   0.4695   0.4706   0.4725
  0.4739   0.4751   0.4762   0.4775   0.4801   0.4811   0.4823   0.4858
  0.4864   0.4893   0.4913   0.4931   0.4935   0.4946   0.4960   0.4967
  0.4974   0.4987   0.5004   0.5028   0.5048   0.5067   0.5084   0.5102
  0.5116   0.5120   0.5146   0.5162   0.5176   0.5201   0.5214   0.5219
  0.5256   0.5270   0.5281   0.5292   0.5318   0.5338   0.5351   0.5379
  0.5399   0.5408   0.5414   0.5434   0.5443   0.5465   0.5497   0.5517
  0.5523   0.5562   0.5573   0.5595   0.5601   0.5611   0.5632   0.5633
  0.5655   0.5680   0.5685   0.5693   0.5708   0.5729   0.5741   0.5747
  0.5762   0.5784   0.5806   0.5820   0.5825   0.5852   0.5857   0.5894
  0.5925   0.5932   0.5939   0.5951   0.5987   0.5999   0.6017   0.6022
  0.6031   0.6059   0.6074   0.6081   0.6089   0.6097   0.6110   0.6122
  0.6135   0.6143   0.6157   0.6172   0.6183   0.6199   0.6216   0.6225
  0.6245   0.6253   0.6259   0.6265   0.6276   0.6286   0.6295   0.6298
  0.6306   0.6320   0.6347   0.6356   0.6366   0.6382   0.6397   0.6402
  0.6417   0.6426   0.6448   0.6458   0.6471   0.6488   0.6501   0.6513
  0.6530   0.6541   0.6550   0.6554   0.6570   0.6573   0.6588   0.6602
  0.6621   0.6635   0.6636   0.6645   0.6650   0.6661   0.6686   0.6693
  0.6705   0.6731   0.6734   0.6744   0.6748   0.6770   0.6776   0.6783
  0.6802   0.6807   0.6820   0.6824   0.6848   0.6855   0.6863   0.6875
  0.6893   0.6897   0.6909   0.6927   0.6935   0.6951   0.6959   0.6974
  0.6984   0.7007   0.7012   0.7024   0.7051   0.7058   0.7070   0.7074
  0.7086   0.7094   0.7125   0.7135   0.7148   0.7159   0.7165   0.7194
  0.7195   0.7215   0.7230   0.7243   0.7255   0.7267   0.7278   0.7295
  0.7304   0.7313   0.7344   0.7356   0.7363   0.7366   0.7382   0.7393
  0.7415   0.7421   0.7444   0.7462   0.7471   0.7484   0.7488   0.7507
  0.7518   0.7535   0.7583   0.7590   0.7621   0.7631   0.7645   0.7666
  0.7686   0.7692   0.7703   0.7711   0.7724   0.7738   0.7754   0.7769
  0.7791   0.7795   0.7813   0.7827   0.7855   0.7869   0.7876   0.7913
  0.7933   0.7956   0.7978   0.7985   0.7996   0.8004   0.8014   0.8031
  0.8042   0.8046   0.8063   0.8081   0.8101   0.8109   0.8127   0.8143
  0.8165   0.8179   0.8197   0.8202   0.8208   0.8223   0.8235   0.8249
  0.8275   0.8279   0.8304   0.8334   0.8340   0.8350   0.8364   0.8374
  0.8391   0.8402   0.8417   0.8431   0.8446   0.8463   0.8472   0.8478
  0.8491   0.8503   0.8513   0.8524   0.8546   0.8549   0.8579   0.8583
  0.8593   0.8600   0.8610   0.8625   0.8673   0.8682   0.8689   0.8702
  0.8722   0.8729   0.8750   0.8753   0.8768   0.8781   0.8790   0.8807
  0.8819   0.8821   0.8836   0.8856   0.8868   0.8876   0.8899   0.8902
  0.8925   0.8932   0.8941   0.8962   0.8976   0.8985   0.8990   0.9004
  0.9030   0.9040   0.9042   0.9057   0.9073   0.9081   0.9101   0.9109
  0.9120   0.9130   0.9147   0.9160   0.9175   0.9183   0.9187   0.9197
  0.9214   0.9221   0.9236   0.9268   0.9269   0.9290   0.9300   0.9308
  0.9312   0.9338   0.9343   0.9363   0.9368   0.9385   0.9386   0.9404
  0.9410   0.9430   0.9436   0.9439   0.9456   0.9466   0.9472   0.9486
  0.9506   0.9521   0.9532   0.9544   0.9553   0.9562   0.9571   0.9584
  0.9591   0.9599   0.9612   0.9618   0.9631   0.9649   0.9653   0.9657
  0.9684   0.9695   0.9708   0.9736   0.9738   0.9752   0.9770   0.9780
  0.9794   0.9809   0.9823   0.9829   0.9837   0.9862   0.9869   0.9874
  0.9891   0.9895   0.9906   0.9920   0.9932   0.9947   0.9955   0.9964
  0.9972   0.9980   0.9986   0.9988   1.0016   1.0023   1.0035   1.0058
  1.0065   1.0071   1.0093   1.0106   1.0109   1.0125   1.0140   1.0148
  1.0152   1.0164   1.0182   1.0184   1.0197   1.0205   1.0210   1.0221
  1.0242   1.0252   1.0261   1.0282   1.0286   1.0295   1.0310   1.0311
  1.0340   1.0361   1.0365   1.0373   1.0386   1.0399   1.0407   1.0408
  1.0445   1.0451   1.0473   1.0477   1.0486   1.0500   1.0521   1.0523
  1.0537   1.0549   1.0563   1.0580   1.0590   1.0610   1.0635   1.0646
  1.0660   1.0693   1.0724   1.0728   1.0738   1.0759   1.0770   1.0800
  1.0808   1.0819   1.0836   1.0837   1.0858   1.0877   1.0880   1.0894
  1.0903   1.0917   1.0945   1.0966   1.0980   1.0992   1.1000   1.1018
  1.1028   1.1036   1.1046   1.1067   1.1086   1.1112   1.1118   1.1147
  1.1148   1.1157   1.1162   1.1202   1.1208   1.1212   1.1228   1.1237
  1.1253   1.1267   1.1280   1.1285   1.1299   1.1307   1.1323   1.1333
  1.1338   1.1363   1.1375   1.1391   1.1394   1.1401   1.1422   1.1429
  1.1444   1.1456   1.1477   1.1479   1.1503   1.1518   1.1528   1.1542
  1.1555   1.1563   1.1576   1.1594   1.1609   1.1627   1.1648   1.1658
  1.1662   1.1673   1.1676   1.1691   1.1712   1.1740   1.1741   1.1764
  1.1784   1.1806   1.1809   1.1820   1.1830   1.1841   1.1875   1.1883
  1.1905   1.1926   1.1937   1.1965   1.1984   1.1992   1.2005   1.2023
  1.2033   1.2050   1.2067   1.2085   1.2114   1.2136   1.2149   1.2158
  1.2165   1.2185   1.2196   1.2237   1.2265   1.2268   1.2290   1.2301
  1.2330   1.2346   1.2353   1.2378   1.2404   1.2438   1.2472   1.2483
  1.2487   1.2505   1.2548   1.2563   1.2575   1.2600   1.2631   1.2642
  1.2685   1.2697   1.2732   1.2770   1.2782   1.2803   1.2822   1.2859
  1.2866   1.2878   1.2921   1.2938   1.2941   1.2993   1.3013   1.3038
  1.3067   1.3100   1.3122   1.3129   1.3182   1.3190   1.3205   1.3224
  1.3270   1.3320   1.3327   1.3347   1.3373   1.3388   1.3404   1.3425
  1.3433   1.3444   1.3477   1.3487   1.3496   1.3518   1.3534   1.3561
  1.3580   1.3607   1.3628   1.3645   1.3659   1.3676   1.3690   1.3703
  1.3714   1.3732   1.3748   1.3770   1.3786   1.3804   1.3824   1.3836
  1.3856   1.3863   1.3877   1.3912   1.3916   1.3921   1.3939   1.3955
  1.3968   1.3991   1.4000   1.4025   1.4033   1.4068   1.4073   1.4078
  1.4092   1.4104   1.4120   1.4134   1.4142   1.4160   1.4175   1.4184
  1.4197   1.4203   1.4238   1.4245   1.4265   1.4279   1.4299   1.4314
  1.4335   1.4343   1.4356   1.4367   1.4383   1.4391   1.4414   1.4418
  1.4432   1.4458   1.4480   1.4482   1.4501   1.4524   1.4544   1.4552
  1.4562   1.4590   1.4614   1.4637   1.4642   1.4650   1.4670   1.4701
  1.4711   1.4720   1.4740   1.4796   1.4817   1.4833   1.4840   1.4857
  1.4893   1.4902   1.4913   1.4943   1.4959   1.4991   1.5013   1.5030
  1.5038   1.5078   1.5110   1.5117   1.5148   1.5170   1.5189   1.5199
  1.5230   1.5238   1.5256   1.5305   1.5341   1.5377   1.5388   1.5419
  1.5424   1.5470   1.5528   1.5545   1.5577   1.5615   1.5631   1.5670
  1.5676   1.5733   1.5817   1.5824   1.5857   1.5872   1.5949   1.5966
  1.5997   1.6049   1.6103   1.6180   1.6218   1.6246   1.6340   1.6369
  1.6411   1.6421   1.6479   1.6500   1.6516   1.6564   1.6579   1.6600
  1.6616   1.6617   1.6635   1.6686   1.6704   1.6729   1.6736   1.6746
  1.6765   1.6772   1.6786   1.6797   1.6809   1.6817   1.6829   1.6854
  1.6860   1.6864   1.6867   1.6875   1.6891   1.6913   1.6926   1.6967
  1.6985   1.6995   1.7015   1.7033   1.7044   1.7058   1.7081   1.7089
  1.7110   1.7121   1.7129   1.7145   1.7152   1.7165   1.7186   1.7199
  1.7206   1.7222   1.7230   1.7246   1.7279   1.7290   1.7308   1.7324
  1.7338   1.7342   1.7369   1.7382   1.7408   1.7420   1.7431   1.7437
  1.7444   1.7449   1.7471   1.7493   1.7502   1.7522   1.7535   1.7550
  1.7559   1.7573   1.7601   1.7608   1.7629   1.7661   1.7671   1.7678
  1.7685   1.7695   1.7726   1.7737   1.7752   1.7770   1.7792   1.7812
  1.7840   1.7848   1.7861   1.7875   1.7876   1.7912   1.7913   1.7940
  1.7983   1.7991   1.8018   1.8036   1.8059   1.8088   1.8106   1.8121
  1.8129   1.8167   1.8198   1.8258   1.8288   1.8311   1.8317   1.8338
  1.8385   1.8396   1.8421   1.8464   1.8501   1.8517   1.8541   1.8554
  1.8568   1.8611   1.8629   1.8639   1.8671   1.8691   1.8716   1.8766
  1.8797   1.8801   1.8811   1.8838   1.8845   1.8847   1.8863   1.8867
  1.8881   1.8889   1.8899   1.8905   1.8932   1.8956   1.8972   1.8987
  1.8992   1.9008   1.9015   1.9030   1.9044   1.9053   1.9069   1.9082
  1.9093   1.9102   1.9111   1.9115   1.9144   1.9153   1.9169   1.9182
  1.9186   1.9202   1.9211   1.9225   1.9254   1.9257   1.9284   1.9301
  1.9323   1.9335   1.9353   1.9363   1.9374   1.9410   1.9425   1.9447
  1.9460   1.9501   1.9513   1.9553   1.9586   1.9613   1.9655   1.9685
  1.9750   1.9780   1.9816   1.9825   1.9910   1.9972   2.0037   2.0118
  2.0161   2.0288   2.0426   2.0437   2.0498   2.0524   2.0530   2.0547
  2.0564   2.0578   2.0584   2.0600   2.0618   2.0642   2.0651   2.0672
  2.0709   2.0718   2.0724   2.0754   2.0773   2.0793   2.0797   2.0820
  2.0826   2.0842   2.0854   2.0859   2.0873   2.0890   2.0916   2.0941
  2.0950   2.0954   2.0985   2.0996   2.1005   2.1017   2.1034   2.1042
  2.1052   2.1068   2.1088   2.1109   2.1122   2.1148   2.1201   2.1208
  2.1250   2.1281   2.1299   2.1317   2.1361   2.1389   2.1422   2.1462
  2.1518   2.1535   2.1555   2.1560   2.1613   2.1626   2.1675   2.1688
  2.1734   2.1781   2.1803   2.1848   2.1870   2.1876   2.1908   2.1920
  2.1962   2.2071   2.2102   2.2111   2.2126   2.2139   2.2154   2.2165
  2.2174   2.2204   2.2211   2.2230   2.2243   2.2248   2.2253   2.2257
  2.2268   2.2284   2.2295   2.2304   2.2314   2.2333   2.2357   2.2366
  2.2387   2.2398   2.2404   2.2414   2.2418   2.2426   2.2440   2.2443
  2.2467   2.2477   2.2482   2.2498   2.2522   2.2537   2.2549   2.2557
  2.2566   2.2587   2.2593   2.2599   2.2608   2.2612   2.2615   2.2624
  2.2634   2.2638   2.2652   2.2658   2.2670   2.2673   2.2681   2.2685
  2.2699   2.2708   2.2718   2.2725   2.2741   2.2745   2.2755   2.2767
  2.2771   2.2786   2.2804   2.2823   2.2837   2.2840   2.2846   2.2856
  2.2862   2.2863   2.2873   2.2885   2.2896   2.2916   2.2919   2.2946
  2.2948   2.2971   2.2975   2.2986   2.2993   2.3007   2.3018   2.3025
  2.3042   2.3050   2.3068   2.3072   2.3090   2.3099   2.3103   2.3140
  2.3152   2.3166   2.3182   2.3196   2.3219   2.3249   2.3263   2.3284
  2.3293   2.3301   2.3342   2.3362   2.3370   2.3380   2.3391   2.3400
  2.3402   2.3432   2.3443   2.3450   2.3478   2.3498   2.3508   2.3513
  2.3545   2.3550   2.3567   2.3589   2.3621   2.3630   2.3638   2.3640
  2.3649   2.3671   2.3713   2.3732   2.3761   2.3772   2.3793   2.3820
  2.3860   2.3869   2.3895   2.3962   2.3994   2.4054   2.4096   2.4329
  2.4655   2.4760   2.4917   2.5306   2.5463   2.6032   2.7026   2.7101
  2.7483   2.7747   2.7977   2.8072   2.8254   2.8301   2.8356   2.8363
  2.8375   2.8398   2.8399   2.8406   2.8422   2.8442   2.8515   2.8546
  2.8562   2.8569   2.8601   2.8634   2.8688   2.8707   2.8716   2.8737
  2.8761   2.8845   2.8901   2.8958   2.8989   2.9010   2.9124   2.9364
  3.0913   3.2723   3.9334   3.9451   3.9576   3.9594   3.9604   3.9616
  3.9644   3.9674   3.9677   3.9702   3.9855   3.9899   3.9920   3.9937
  3.9973   3.9993   4.0018   4.0041   4.0055   4.0077   4.0114   4.0228
  4.0286   4.0304   4.0348   4.2048   4.2098   4.2146   4.2188   4.2256
  4.2277   4.2339   4.2351   4.2388   4.2411   4.2424   4.2479   4.2527
  4.2553   4.2612   4.2652   4.2658   4.2685   4.2694   4.2705   4.2738
  4.2786   4.2806   4.2815   4.2840   4.2872   4.2881   4.2918   4.2932
  4.2970   4.3022   4.3036   4.3068   4.3091   4.3118   4.3132   4.3155
  4.3200   4.3224   4.3265   4.3284   4.3293   4.3328   4.3357   4.3402
  4.3430   4.3438   4.3498   4.3545   4.3567   4.3585   4.3606   4.3650
  4.3729   4.3764   4.3779   4.3838   4.3908   4.3931   4.3955   4.3975
  4.4023   4.4066   4.4095   4.4126   4.4196   4.4239   4.4336   4.4353
  4.4485   4.4610   4.4695   4.4934   4.4993   4.5117   4.5458   4.5664
  4.5782   4.6139   4.6616   4.6895   4.7396   4.7789   4.8453
 --------------------------------------------------------------
 
          Ground-State Mulliken Net Atomic Charges

     Atom                 Charge (a.u.)
  ----------------------------------------
      1 C                    -0.076437
      2 C                    -0.823894
      3 C                     0.053768
      4 C                    -0.523643
      5 C                    -0.443294
      6 C                    -0.522339
      7 H                     0.227658
      8 H                     0.211336
      9 H                     0.200814
     10 H                     0.218771
     11 H                     0.216363
     12 H                     0.221141
     13 H                     0.185110
     14 H                     0.197639
     15 H                     0.206232
     16 H                     0.202077
     17 H                     0.199407
     18 N                    -0.345303
     19 H                     0.452927
     20 C                     0.343554
     21 H                     0.132651
     22 O                    -0.534538
     23 C                    -0.830033
     24 H                     0.302569
     25 H                     0.239593
     26 H                     0.267711
     27 S                     0.595121
     28 C                    -0.734050
     29 H                     0.243269
     30 H                     0.234011
     31 H                     0.272978
     32 O                    -0.618754
     33 C                    -0.836517
     34 H                     0.221699
     35 H                     0.233645
     36 H                     0.284274
     37 S                     1.017870
     38 C                    -0.933009
     39 H                     0.249738
     40 H                     0.242499
     41 H                     0.265567
     42 O                    -0.711612
     43 C                    -0.820393
     44 H                     0.268447
     45 H                     0.233453
     46 H                     0.258639
     47 S                     1.036177
     48 C                    -0.962276
     49 H                     0.256816
     50 H                     0.250941
     51 H                     0.240026
     52 O                    -0.704591
     53 C                    -0.854275
     54 H                     0.243258
     55 H                     0.254276
     56 H                     0.239200
     57 S                     0.950696
     58 C                    -0.895725
     59 H                     0.227635
     60 H                     0.267194
     61 H                     0.271277
     62 O                    -0.687988
     63 C                    -0.810006
     64 H                     0.278057
     65 H                     0.251216
     66 H                     0.236593
     67 S                     0.651024
     68 C                    -0.862886
     69 H                     0.253762
     70 H                     0.307416
     71 H                     0.227435
     72 O                    -0.683232
     73 C                    -0.725377
     74 H                     0.275132
     75 H                     0.244500
     76 H                     0.232150
     77 S                     0.783952
     78 C                    -0.880109
     79 H                     0.247425
     80 H                     0.306601
     81 H                     0.319807
     82 O                    -0.737093
     83 C                    -0.986088
     84 H                     0.278198
     85 H                     0.295795
     86 H                     0.260545
     87 S                     0.931672
     88 C                    -0.864559
     89 H                     0.261537
     90 H                     0.236962
     91 H                     0.240906
     92 O                    -0.711950
     93 C                    -0.826700
     94 H                     0.246853
     95 H                     0.260470
     96 H                     0.245921
     97 S                     0.912509
     98 C                    -1.021614
     99 H                     0.303468
    100 H                     0.275916
    101 H                     0.230613
    102 O                    -0.643924
    103 C                    -0.920446
    104 H                     0.252556
    105 H                     0.244877
    106 H                     0.261665
    107 S                     1.141262
    108 C                    -0.966414
    109 H                     0.253294
    110 H                     0.275529
    111 H                     0.225489
    112 O                    -0.735085
    113 C                    -0.882645
    114 H                     0.253270
    115 H                     0.270163
    116 H                     0.268048
    117 S                     0.931393
    118 C                    -0.891904
    119 H                     0.224244
    120 H                     0.247672
    121 H                     0.303556
    122 O                    -0.692013
    123 C                    -0.768536
    124 H                     0.242431
    125 H                     0.249494
    126 H                     0.253083
    127 S                     0.787177
    128 C                    -0.850533
    129 H                     0.247719
    130 H                     0.250458
    131 H                     0.239633
    132 O                    -0.652284
    133 C                    -0.887611
    134 H                     0.301619
    135 H                     0.268048
    136 H                     0.266076
    137 S                     0.844353
    138 C                    -0.824048
    139 H                     0.245562
    140 H                     0.262536
    141 H                     0.241332
    142 O                    -0.663956
    143 C                    -0.872747
    144 H                     0.242326
    145 H                     0.235399
    146 H                     0.263837
    147 S                     0.849883
    148 C                    -0.847357
    149 H                     0.247007
    150 H                     0.300995
    151 H                     0.247374
    152 O                    -0.682385
    153 C                    -1.010647
    154 H                     0.297796
    155 H                     0.250353
    156 H                     0.247254
    157 S                     1.052048
    158 C                    -0.905480
    159 H                     0.270794
    160 H                     0.272763
    161 H                     0.261359
    162 O                    -0.694053
    163 C                    -0.887731
    164 H                     0.274624
    165 H                     0.281343
    166 H                     0.231775
    167 S                     1.026876
    168 C                    -0.880362
    169 H                     0.242371
    170 H                     0.270406
    171 H                     0.240038
    172 O                    -0.725720
    173 C                    -0.874702
    174 H                     0.223543
    175 H                     0.257567
    176 H                     0.255287
    177 S                     0.945098
    178 C                    -0.883989
    179 H                     0.268909
    180 H                     0.264648
    181 H                     0.236522
    182 O                    -0.664908
    183 C                    -0.999482
    184 H                     0.197827
    185 H                     0.302417
    186 H                     0.296809
    187 S                     1.153795
    188 C                    -0.931819
    189 H                     0.257281
    190 H                     0.257503
    191 H                     0.269853
    192 O                    -0.788614
    193 C                    -0.608081
    194 H                     0.216170
    195 H                     0.276449
    196 H                     0.312526
    197 S                     0.487166
    198 C                    -0.943457
    199 H                     0.272337
    200 H                     0.236589
    201 H                     0.315081
    202 O                    -0.676791
    203 C                    -0.914526
    204 H                     0.246069
    205 H                     0.259852
    206 H                     0.270853
    207 S                     0.993304
    208 C                    -0.860351
    209 H                     0.256241
    210 H                     0.257883
    211 H                     0.259337
    212 O                    -0.721801
    213 C                    -0.865823
    214 H                     0.251645
    215 H                     0.258535
    216 H                     0.250232
    217 S                     0.623761
    218 C                    -0.738528
    219 H                     0.271198
    220 H                     0.285368
    221 H                     0.251837
    222 O                    -0.675612
    223 C                    -0.835409
    224 H                     0.301394
    225 H                     0.273246
    226 H                     0.240776
    227 S                     0.777548
    228 C                    -0.902931
    229 H                     0.251988
    230 H                     0.261789
    231 H                     0.251837
    232 O                    -0.690655
    233 C                    -1.080349
    234 H                     0.278264
    235 H                     0.245714
    236 H                     0.270675
    237 S                     1.107402
    238 C                    -0.875907
    239 H                     0.269792
    240 H                     0.236293
    241 H                     0.294421
    242 O                    -0.694369
    243 C                    -0.796165
    244 H                     0.241856
    245 H                     0.249830
    246 H                     0.260918
    247 S                     0.877708
    248 C                    -0.804254
    249 H                     0.272406
    250 H                     0.248283
    251 H                     0.233532
    252 O                    -0.749433
    253 C                    -0.827164
    254 H                     0.260408
    255 H                     0.238166
    256 H                     0.244099
    257 S                     0.792701
    258 C                    -0.779593
    259 H                     0.240135
    260 H                     0.254401
    261 H                     0.265230
    262 O                    -0.673566
    263 C                    -0.843271
    264 H                     0.276478
    265 H                     0.250281
    266 H                     0.245307
    267 S                     0.844546
    268 C                    -0.927549
    269 H                     0.276212
    270 H                     0.278073
    271 H                     0.234471
    272 O                    -0.696026
  ----------------------------------------
  Sum of atomic charges =     0.000000

 -----------------------------------------------------------------
                    Cartesian Multipole Moments
 -----------------------------------------------------------------
    Charge (ESU x 10^10)
                 0.0000
    Dipole Moment (Debye)
         X     -14.4080      Y     -15.7582      Z       8.9607
       Tot      23.1560
    Quadrupole Moments (Debye-Ang)
        XX   -1354.5728     XY    -565.6162     YY   -1414.7351
        XZ    -118.4743     YZ    -281.3761     ZZ    -543.3691
    Octopole Moments (Debye-Ang^2)
       XXX  -64161.2402    XXY  -31722.2242    XYY  -33830.7173
       YYY  -64964.2792    XXZ  -29163.6037    XYZ  -10092.1530
       YYZ  -35580.9557    XZZ  -17289.3070    YZZ  -23742.5424
       ZZZ  -62849.6221
    Hexadecapole Moments (Debye-Ang^3)
      XXXX ************   XXXY ************   XXYY ************
      XYYY ************   YYYY ************   XXXZ ************
      XXYZ -701199.7926   XYYZ -799606.4402   YYYZ ************
      XXZZ ************   XYZZ -548064.2833   YYZZ ************
      XZZZ ************   YZZZ ************   ZZZZ ************
 -----------------------------------------------------------------
Archival summary:
[...]
    2   0.0028053  -0.0079712  -0.0247974  -0.0071316  -0.0134528   0.0690118
    3   0.0544771  -0.0023798   0.0171687  -0.0157998  -0.0263666  -0.0805571
          103         104         105         106         107         108
    1   0.0088543   0.0070021  -0.0079605   0.0366907  -0.0071109   0.0032363
    2   0.0001368   0.0230004  -0.0252158   0.0096878  -0.0249661   0.0111418
    3   0.0058953   0.0232283   0.0147416  -0.0113890  -0.0474614   0.0004269
          109         110         111         112         113         114
    1   0.0255148  -0.0200273   0.0225309  -0.0771717  -0.0061128   0.0092458
    2   0.0006939   0.0193731   0.0148303   0.0242957  -0.0023070  -0.0096123
    3  -0.0190417  -0.0224706   0.0245644   0.0764001  -0.0064710  -0.0331589
          115         116         117         118         119         120
    1  -0.0056134  -0.0339954  -0.0062080  -0.0011444  -0.0310556   0.0200371
    2  -0.0268799  -0.0052957   0.0052769   0.0040580   0.0140097   0.0242786
    3   0.0112624   0.0181214   0.0580341  -0.0081206   0.0041957   0.0030218
          121         122         123         124         125         126
    1   0.0017044   0.0926090  -0.0012621   0.0091304   0.0013576  -0.0326760
    2   0.0049835  -0.0343062   0.0064263   0.0084538   0.0264674   0.0051241
    3  -0.0345451  -0.0482499   0.0027921   0.0289829  -0.0131657   0.0044983
          127         128         129         130         131         132
    1  -0.0404106   0.0007718   0.0188021  -0.0318874   0.0200201   0.0982774
    2  -0.0213806  -0.0068433   0.0127273  -0.0054658  -0.0310912   0.0346719
    3  -0.0366751   0.0028958   0.0206682   0.0150980  -0.0013706  -0.0335512
          133         134         135         136         137         138
    1  -0.0013977   0.0033148  -0.0217803   0.0115485  -0.0113323   0.0086944
    2   0.0113452   0.0102003   0.0005170   0.0183280  -0.0328876   0.0037704
    3  -0.0035263  -0.0380102  -0.0066246   0.0276907   0.0377949  -0.0011778
          139         140         141         142         143         144
    1   0.0228613  -0.0062848   0.0117606  -0.0117929   0.0054093  -0.0089722
    2  -0.0253605   0.0313853   0.0146169  -0.0190963  -0.0071284  -0.0069296
    3   0.0090513  -0.0193401   0.0300689  -0.1113613   0.0011666   0.0310931
          145         146         147         148         149         150
    1  -0.0066832   0.0313242  -0.0556459   0.0059475  -0.0193766   0.0026370
    2  -0.0220877  -0.0058751   0.0125333  -0.0074315  -0.0245752   0.0192380
    3  -0.0265465   0.0161456   0.0039269  -0.0045538  -0.0241340  -0.0041100
          151         152         153         154         155         156
    1   0.0373837   0.0767872  -0.0052792  -0.0090703  -0.0100353  -0.0135327
    2  -0.0044246   0.0607002   0.0021286   0.0257521  -0.0266755   0.0244822
    3   0.0021398   0.0549200  -0.0036945  -0.0183809  -0.0182380   0.0229183
          157         158         159         160         161         162
    1   0.0024787   0.0037901   0.0347533   0.0037635  -0.0144289   0.0375859
    2  -0.0073028   0.0066746   0.0135258   0.0018067   0.0288556  -0.0696704
    3   0.0539000   0.0004112   0.0038132  -0.0294491   0.0090438  -0.0760973
          163         164         165         166         167         168
    1  -0.0014633   0.0251764  -0.0357991  -0.0016957  -0.0065686  -0.0060565
    2  -0.0027653   0.0000731  -0.0045782  -0.0279974   0.0494266  -0.0024794
    3   0.0088392   0.0208723   0.0149261  -0.0044126   0.0091081  -0.0013594
          169         170         171         172         173         174
    1   0.0060750  -0.0313565  -0.0058263   0.0825170  -0.0046602  -0.0340912
    2  -0.0293436   0.0032538   0.0036833  -0.0497660   0.0052780  -0.0096098
    3  -0.0058685   0.0149478  -0.0336244  -0.0534098  -0.0010227  -0.0102880
          175         176         177         178         179         180
    1   0.0090120   0.0109489   0.0011772  -0.0028240   0.0083223   0.0047898
    2   0.0313985   0.0109709  -0.0482114  -0.0015545  -0.0227106   0.0227201
    3   0.0129256  -0.0262099  -0.0289174   0.0050109   0.0239068   0.0192376
          181         182         183         184         185         186
    1  -0.0347078   0.0927525  -0.0025803  -0.0227682   0.0039595  -0.0044059
    2  -0.0029734   0.0521873   0.0080704  -0.0170807   0.0093745   0.0209346
    3   0.0001982   0.0311609   0.0044221   0.0135317   0.0314960  -0.0256412
          187         188         189         190         191         192
    1  -0.0142370   0.0063592  -0.0143748   0.0243527   0.0165688   0.0409407
    2  -0.0524779   0.0016074   0.0025338  -0.0185005   0.0250627   0.0684567
    3  -0.0102023   0.0062351   0.0302671  -0.0079283  -0.0109324  -0.0754368
          193         194         195         196         197         198
    1  -0.0049132   0.0260705  -0.0264289  -0.0284137   0.0349840   0.0017288
    2  -0.0058772  -0.0087023   0.0166198  -0.0169271  -0.0307185   0.0086225
    3   0.0054027   0.0186789   0.0139950  -0.0125814  -0.0386189   0.0040864
          199         200         201         202         203         204
    1  -0.0270175   0.0260212   0.0177193  -0.0887851  -0.0020165   0.0131628
    2   0.0154196  -0.0132850   0.0107722   0.0606761  -0.0051429  -0.0348342
    3   0.0196959   0.0129844  -0.0236158  -0.0243987   0.0042940   0.0288463
          205         206         207         208         209         210
    1  -0.0096986  -0.0124859   0.0392175  -0.0046617  -0.0241906   0.0132495
    2   0.0169222  -0.0245835   0.0331010   0.0051487   0.0101570   0.0234031
    3   0.0239010  -0.0156310   0.0309522  -0.0034554   0.0205492  -0.0146792
          211         212         213         214         215         216
    1  -0.0287336   0.0217692  -0.0038464  -0.0092324   0.0248332  -0.0156347
    2  -0.0168289  -0.0672714   0.0037189   0.0265187   0.0104267  -0.0295015
    3  -0.0079304  -0.0822117  -0.0095104   0.0120590  -0.0190809  -0.0117535
          217         218         219         220         221         222
    1   0.0397977   0.0011571   0.0240457   0.0053345  -0.0162298  -0.0964874
    2   0.0303703  -0.0099141   0.0043857  -0.0171202  -0.0141511  -0.0258979
    3   0.0267093  -0.0051887  -0.0221250   0.0315243  -0.0268920   0.0450860
          223         224         225         226         227         228
    1   0.0100370   0.0195201   0.0096863   0.0012893  -0.0392650   0.0032923
    2   0.0027875   0.0053516   0.0156007  -0.0294163   0.0123577  -0.0035452
    3   0.0015077  -0.0265687   0.0240617   0.0052779   0.0443505  -0.0035665
          229         230         231         232         233         234
    1  -0.0183686   0.0203310  -0.0188541   0.0200748  -0.0026702  -0.0122986
    2  -0.0002695  -0.0090482  -0.0254319   0.0832896  -0.0001013  -0.0331958
    3  -0.0220842  -0.0257359   0.0161407  -0.0773321  -0.0114864   0.0069853
          235         236         237         238         239         240
    1  -0.0120639   0.0174349   0.0219498  -0.0079646  -0.0019939  -0.0126260
    2   0.0318004  -0.0051244  -0.0538591   0.0003962   0.0052948   0.0282261
    3  -0.0055193  -0.0303807   0.0140928   0.0060001   0.0346364  -0.0124608
          241         242         243         244         245         246
    1  -0.0185067   0.0546396  -0.0003531   0.0150869  -0.0204562   0.0242782
    2  -0.0293379   0.0944219   0.0024155  -0.0228621   0.0015257   0.0198299
    3   0.0008311   0.0041016  -0.0071716  -0.0153509  -0.0318368  -0.0082397
          247         248         249         250         251         252
    1  -0.0214450  -0.0041930   0.0120483  -0.0242978  -0.0233255   0.0790007
    2  -0.0471137   0.0051593   0.0274294   0.0054125   0.0083145   0.0543008
    3   0.0147978  -0.0012137  -0.0061372  -0.0242103   0.0247533   0.0526075
          253         254         255         256         257         258
    1  -0.0062378  -0.0242128  -0.0007316  -0.0137848   0.0452313  -0.0025173
    2  -0.0012124   0.0053257  -0.0292587   0.0096755  -0.0305779   0.0068997
    3  -0.0020858  -0.0241151  -0.0191357   0.0298046   0.0329139   0.0044321
          259         260         261         262         263         264
    1  -0.0246116   0.0020611   0.0248511   0.0195690  -0.0019871  -0.0226630
    2   0.0154766  -0.0010730   0.0163119   0.0288388  -0.0101756  -0.0346790
    3  -0.0166288   0.0329974  -0.0014151  -0.1046994  -0.0017098  -0.0144279
          265         266         267         268         269         270
    1   0.0157862   0.0249875  -0.0243272  -0.0072434  -0.0270521  -0.0191103
    2   0.0017259  -0.0060232  -0.0015157  -0.0000252  -0.0205070   0.0258779
    3  -0.0249763   0.0211048   0.0471714  -0.0067944   0.0081776  -0.0035364
          271         272
    1   0.0211797   0.0891020
    2  -0.0027826   0.0598914
    3  -0.0260767  -0.0226571
  --- DONE ESP SUMMARY ---
Archival summary:
1\1\n0071.mhg0\SP\ProcedureUnspecified\6-31+G*\252550h22\ymao\ThuMar1119:16:352021ThuMar1119:16:352021\0\\#,ProcedureUnspecified,6-31+G*,\\0,1\S\O,1,1.49687\C,1,1.80641,2,102.562\H,3,1.09233,1,112.593,2,160.059,0\H,3,1.09314,1,110.399,2,-74.1583,0\H,3,1.09338,1,106.979,2,43.619,0\C,1,1.80716,2,104.566,3,103.883,0\H,7,1.09301,1,111.79,2,-41.0866,0\H,7,1.09319,1,107.463,2,-158.275,0\H,7,1.09327,1,109.742,2,89.456,0\O,10,2.20293,7,136.986,1,-106.136,0\S,11,1.49747,10,145.806,7,65.79,0\C,12,1.80671,11,98.4576,10,-28.665,0\H,13,1.0927,12,115.996,11,147.922,0\H,13,1.09277,12,107.562,11,-89.1691,0\H,13,1.09314,12,109.834,11,30.8905,0\C,12,1.80703,11,100.82,10,70.9316,0\H,17,1.09237,12,99.1913,11,83.5787,0\H,17,1.09312,12,99.7155,11,-166.776,0\H,17,1.09399,12,106.925,11,-45.5494,0\H,9,2.23701,7,148.229,1,74.1779,0\C,21,1.09295,9,110.734,7,58.7228,0\H,22,1.0926,21,103.768,9,49.0598,0\H,22,1.09275,21,111.448,9,-68.6543,0\S,22,1.80734,21,113.999,9,164.491,0\O,25,1.49767,22,110.223,21,55.4507,0\C,25,1.80619,22,92.5752,21,-46.6974,0\H,27,1.09283,25,113.535,22,-163.421,0\H,27,1.09301,25,100.766,22,-54.4835,0\H,27,1.09325,25,109.805,22,67.3026,0\Gh,6,2.30522,3,133.04,1,-50.6307,0\Gh,31,1.09665,6,131.017,3,-164.083,0\Gh,32,1.09629,31,105.243,6,10.5222,0\Gh,32,1.53713,31,101.851,6,-106.96,0\Gh,34,1.09688,32,112.231,31,-64.6797,0\Gh,34,1.09725,32,109.306,31,55.3483,0\Gh,32,1.53776,31,119.076,6,134.396,0\Gh,37,1.09689,32,103.272,31,52.3198,0\Gh,37,1.097,32,114.343,31,-64.0733,0\Gh,37,1.53675,32,113.5,31,171.49,0\Gh,40,1.09684,37,110.11,32,68.9126,0\Gh,40,1.09691,37,98.074,32,-175.749,0\Gh,40,1.53805,37,110.759,32,-54.4889,0\Gh,43,1.09673,40,110.801,37,175.605,0\Gh,43,1.09678,40,108.813,37,-64.7668,0\Gh,43,1.53781,40,113.365,37,51.7035,0\Gh,46,1.09626,43,112.865,40,70.584,0\Gh,46,1.46168,43,107.063,40,-173.174,0\Gh,48,1.01237,46,112.169,43,73.2266,0\Gh,48,1.37902,46,128.013,43,-91.141,0\Gh,50,1.10572,48,109.729,46,165.649,0\Gh,50,1.21777,48,129.676,46,-9.67479,0\H,39,2.2201,37,113.858,32,75.8903,0\C,53,1.09291,39,138.171,37,-51.9906,0\H,54,1.09298,53,107.977,39,17.7507,0\H,54,1.09335,53,113.261,39,144.805,0\S,54,1.80677,53,101.745,39,-101.468,0\O,57,1.49677,54,106.525,53,-57.3728,0\C,57,1.80684,54,94.9809,53,53.0515,0\H,59,1.09267,57,110.349,54,168.559,0\H,59,1.09311,57,107.497,54,47.9858,0\H,59,1.09376,57,99.4868,54,-70.5648,0\H,62,2.17206,59,131.127,57,-71.0686,0\C,63,1.09277,62,124.075,59,-179.763,0\H,64,1.09259,63,112.585,62,167.212,0\H,64,1.09326,63,109.637,62,46.7769,0\S,64,1.80693,63,108.693,62,-77.3661,0\O,67,1.49782,64,100.609,63,-101.403,0\C,67,1.80744,64,97.3176,63,153.405,0\H,69,1.09285,67,109.334,64,10.3465,0\H,69,1.09298,67,110.012,64,125.023,0\H,69,1.09325,67,109.821,64,-116.578,0\O,49,2.22472,48,138.278,46,117.828,0\S,73,1.49687,49,109.552,48,34.4759,0\C,74,1.80673,73,106.226,49,-83.6123,0\H,75,1.0933,74,114.359,73,-144.52,0\H,75,1.09336,74,105.928,73,97.8576,0\H,75,1.09344,74,109.848,73,-15.4841,0\C,74,1.80705,73,104.989,49,-179.671,0\H,79,1.09248,74,105.727,73,72.8781,0\H,79,1.09277,74,103.957,73,-178.828,0\H,79,1.09399,74,108.879,73,-52.7633,0\H,47,2.3047,46,153.669,43,-72.2434,0\C,83,1.09329,47,98.325,46,-157.105,0\H,84,1.09263,83,100.182,47,-146.323,0\H,84,1.09279,83,113.975,47,-30.5512,0\S,84,1.80754,83,111.832,47,92.8289,0\O,87,1.49694,84,100.433,83,-36.4375,0\C,87,1.80697,84,92.047,83,73.669,0\H,89,1.09243,87,102.701,84,64.1403,0\H,89,1.09278,87,117.369,84,-60.1456,0\H,89,1.09362,87,109.961,84,-175.197,0\H,41,2.31624,40,135.859,37,65.2305,0\C,93,1.09316,41,125.571,40,-140.866,0\H,94,1.09237,93,110.601,41,46.657,0\H,94,1.09295,93,100.921,41,156.974,0\S,94,1.80753,93,107.019,41,-84.7644,0\O,97,1.49735,94,104.866,93,100.869,0\C,97,1.80715,94,92.1479,93,-153.731,0\H,99,1.09245,97,111.248,94,-49.5232,0\H,99,1.09276,97,98.817,94,70.6431,0\H,99,1.09323,97,113.441,94,-174.504,0\O,70,2.33499,69,149.026,67,-111.345,0\S,103,1.49623,70,117.156,69,-67.0994,0\C,104,1.80735,103,102.074,70,51.4636,0\H,105,1.09298,104,103.548,103,-51.3903,0\H,105,1.09312,104,108.938,103,-162.055,0\H,105,1.09332,104,107.756,103,68.3654,0\C,104,1.80775,103,105.624,70,-53.3067,0\H,109,1.09252,104,108.426,103,46.589,0\H,109,1.09314,104,105.871,103,-76.3839,0\H,109,1.09328,104,106.323,103,167.805,0\H,56,2.38293,54,99.6117,53,-81.7092,0\C,113,1.09301,56,137.431,54,168.656,0\H,114,1.09291,113,106.221,56,-133.634,0\H,114,1.09302,113,109.259,56,98.4146,0\S,114,1.80696,113,106.495,56,-17.7246,0\O,117,1.49651,114,102.469,113,75.4558,0\C,117,1.80721,114,95.6055,113,175.464,0\H,119,1.09278,117,106.25,114,-57.8528,0\H,119,1.09297,117,111.679,114,65.5597,0\H,119,1.09306,117,100.617,114,-175.202,0\H,116,2.24403,114,134.703,113,-1.15326,0\C,123,1.09368,116,110.805,114,-111.886,0\H,124,1.09247,123,104.812,116,-97.7031,0\H,124,1.0932,123,118.837,116,25.6021,0\S,124,1.80707,123,106.452,116,147.849,0\O,127,1.49674,124,105.638,123,154.766,0\C,127,1.80637,124,91.9067,123,-100.458,0\H,129,1.09283,127,106.482,124,52.3446,0\H,129,1.09302,127,109.447,124,-70.5567,0\H,129,1.09324,127,102.015,124,165.737,0\H,52,2.38339,50,133.04,48,-95.0332,0\C,133,1.09213,52,137.558,50,-27.9127,0\H,134,1.09287,133,109.497,52,-3.48838,0\H,134,1.09344,133,114.155,52,115.109,0\S,134,1.80782,133,111.553,52,-122.587,0\O,137,1.49739,134,101.907,133,-73.2397,0\C,137,1.80761,134,98.4625,133,178.367,0\H,139,1.0925,137,111.354,134,-40.7445,0\H,139,1.09302,137,103.456,134,74.8099,0\H,139,1.09327,137,111.176,134,-159.251,0\O,5,2.40164,3,128.361,1,-79.2544,0\S,143,1.49713,5,112.464,3,-60.4346,0\C,144,1.80642,143,107.779,5,176.67,0\H,145,1.093,144,115.18,143,-169.865,0\H,145,1.093,144,108.808,143,-47.3189,0\H,145,1.09326,144,110.634,143,71.3187,0\C,144,1.80645,143,102.86,5,-81.3994,0\H,149,1.09248,144,106.973,143,-167.139,0\H,149,1.09271,144,112.125,143,-40.0693,0\H,149,1.09362,144,97.7139,143,78.4556,0\H,152,2.27531,149,168.534,144,114.792,0\C,153,1.09352,152,173.738,149,-137.933,0\H,154,1.09247,153,115.385,152,100.256,0\H,154,1.09317,153,115.607,152,-21.8923,0\S,154,1.80713,153,104.696,152,-139.796,0\O,157,1.49711,154,110.468,153,52.1541,0\C,157,1.80606,154,99.4733,153,-59.8633,0\H,159,1.09319,157,107.923,154,-73.9583,0\H,159,1.09371,157,108.772,154,166.625,0\H,159,1.09397,157,114.642,154,50.9218,0\H,85,2.41289,84,107.353,83,77.5797,0\C,163,1.09271,85,139.454,84,87.0875,0\H,164,1.09262,163,105.796,85,-12.6143,0\H,164,1.09307,163,116.854,85,103.977,0\S,164,1.80764,163,109.827,85,-132.853,0\O,167,1.49693,164,100.489,163,-170.217,0\C,167,1.80756,164,89.4147,163,-62.3212,0\H,169,1.09256,167,101.449,164,-46.5549,0\H,169,1.0927,167,109.502,164,75.4248,0\H,169,1.0928,167,112.235,164,-155.915,0\H,81,2.42007,79,107.382,74,75.4951,0\C,173,1.09298,81,114.573,79,77.5171,0\H,174,1.09285,173,114.765,81,-1.21554,0\H,174,1.09287,173,100.97,81,122.086,0\S,174,1.80767,173,108.809,81,-125.051,0\O,177,1.49743,174,98.5856,173,-65.841,0\C,177,1.8072,174,95.7997,173,-174.32,0\H,179,1.09263,177,114.61,174,45.5025,0\H,179,1.0928,177,95.4616,174,167.481,0\H,179,1.09302,177,111.888,174,-74.9708,0\O,29,2.50554,27,170.699,25,119.45,0\S,183,1.49725,29,162.072,27,-11.4201,0\C,184,1.80627,183,101.506,29,-94.5974,0\H,185,1.09249,184,109.602,183,155.447,0\H,185,1.09322,184,108.423,183,28.9598,0\H,185,1.09349,184,100.57,183,-85.7468,0\C,184,1.80696,183,107.985,29,3.60515,0\H,189,1.09219,184,107.631,183,-22.7015,0\H,189,1.09305,184,108.615,183,103.946,0\H,189,1.09389,184,102.152,183,-135.852,0\O,115,2.52141,114,150.349,113,177.101,0\S,193,1.49757,115,105.882,114,-166.334,0\C,194,1.80714,193,104.476,115,-115.607,0\H,195,1.09222,194,96.3783,193,81.184,0\H,195,1.09292,194,114.462,193,-157.64,0\H,195,1.09298,194,106.905,193,-40.2978,0\C,194,1.80757,193,105.852,115,142.579,0\H,199,1.0926,194,106.998,193,34.7663,0\H,199,1.09302,194,107.44,193,167.368,0\H,199,1.09354,194,107.532,193,-80.4896,0\O,110,2.58176,109,144.247,104,139,0\S,203,1.49709,110,123.224,109,-75.5084,0\C,204,1.80676,203,105.944,110,140.216,0\H,205,1.09281,204,110.63,203,-48.7797,0\H,205,1.09318,204,110.547,203,81.6083,0\H,205,1.09344,204,104.653,203,-159.987,0\C,204,1.80741,203,103.73,110,38.1581,0\H,209,1.09293,204,103.363,203,-87.9595,0\H,209,1.09295,204,107.773,203,161.126,0\H,209,1.093,204,109.708,203,35.483,0\H,165,2.58967,164,121.671,163,-122.398,0\C,213,1.09296,165,151.206,164,-126.347,0\H,214,1.09257,213,115.681,165,-23.4141,0\H,214,1.09346,213,108.694,165,-146.951,0\S,214,1.80745,213,105.991,165,93.2883,0\O,217,1.4974,214,112.67,213,153.485,0\C,217,1.8067,214,97.9812,213,-100.194,0\H,219,1.09275,217,109.293,214,-56.7998,0\H,219,1.093,217,107.31,214,63.1531,0\H,219,1.09353,217,107.254,214,-172.841,0\H,216,2.47727,214,147.028,213,172.99,0\C,223,1.09274,216,132.65,214,-47.5147,0\H,224,1.0925,223,108.006,216,-2.82643,0\H,224,1.09294,223,115.703,216,124.329,0\S,224,1.80706,223,105.56,216,-114.593,0\O,227,1.49708,224,102.802,223,40.4417,0\C,227,1.80764,224,91.3638,223,151.063,0\H,229,1.09236,227,119.557,224,-54.9019,0\H,229,1.09296,227,102.776,224,179.721,0\H,229,1.09321,227,106.016,224,72.8752,0\H,223,2.30242,216,93.7637,214,83.6778,0\C,233,1.09295,223,134.499,216,73.7017,0\H,234,1.09309,233,112.874,223,105.911,0\H,234,1.09359,233,107.109,223,-139.297,0\S,234,1.80689,233,104.165,223,-15.9799,0\O,237,1.49804,234,102.175,233,-159.155,0\C,237,1.80689,234,100.334,233,97.5251,0\H,239,1.09242,237,101.691,234,38.9032,0\H,239,1.09299,237,112.165,234,159.48,0\H,239,1.09367,237,107.919,234,-78.3407,0\H,238,2.49678,237,119.747,234,90.4729,0\C,243,1.09286,238,151.476,237,115.141,0\H,244,1.09233,243,112.896,238,-129.521,0\H,244,1.09293,243,109.635,238,107.804,0\S,244,1.80721,243,109.426,238,-15.0015,0\O,247,1.49688,244,104.707,243,175.622,0\C,247,1.80712,244,92.9058,243,64.4861,0\H,249,1.09266,247,110.562,244,58.4408,0\H,249,1.09318,247,106.663,244,173.693,0\H,249,1.09388,247,116.45,244,-60.9012,0\O,202,2.61163,199,110.12,194,-63.6343,0\S,253,1.49747,202,118.529,199,134.265,0\C,254,1.80637,253,100.099,202,54.3894,0\H,255,1.09306,254,113.195,253,-51.6408,0\H,255,1.09317,254,111.175,253,61.4581,0\H,255,1.09368,254,112.804,253,-175.22,0\C,254,1.80706,253,106.385,202,-42.6528,0\H,259,1.09302,254,103.281,253,49.9588,0\H,259,1.09306,254,111.943,253,175.059,0\H,259,1.09308,254,116.312,253,-61.471,0\H,252,2.81079,249,131.277,247,120.944,0\C,263,1.0924,252,136.333,249,-165.624,0\H,264,1.09327,263,111.015,252,65.938,0\H,264,1.09334,263,109.644,252,-174.632,0\S,264,1.80726,263,110.325,252,-53.4304,0\O,267,1.49764,264,104.654,263,-60.1239,0\C,267,1.80708,264,98.3441,263,-171.479,0\H,269,1.09274,267,103.344,264,74.5712,0\H,269,1.09356,267,106.017,264,-162.035,0\H,269,1.09363,267,115.27,264,-49.2404,0\\\@

 Total job time:  32.99s(wall), 94.97s(cpu) 
 Thu Mar 11 19:16:35 2021

        *************************************************************
        *                                                           *
        *  Thank you very much for using Q-Chem.  Have a nice day.  *
        *                                                           *
        *************************************************************


