                  Welcome to Q-Chem
     A Quantum Leap Into The Future Of Chemistry


 Q-Chem 5.2 (devel), Q-Chem, Inc., Pleasanton, CA (2019)

 Yihan Shao,  Zhengting Gan,  E. Epifanovsky,  A. T. B. Gilbert,  M. Wormit,  
 J. Kussmann,  A. W. Lange,  A. Behn,  Jia Deng,  Xintian Feng,  D. Ghosh,  
 M. Goldey,  P. R. Horn,  L. D. Jacobson,  I. Kaliman,  T. Kus,  A. Landau,  
 Jie Liu,  E. I. Proynov,  R. M. Richard,  R. P. Steele,  E. J. Sundstrom,  
 H. L. Woodcock III,  P. M. Zimmerman,  D. Zuev,  B. Alam,  B. Albrecht,  
 E. Alguire,  S. A. Baeppler,  D. Barton,  Z. Benda,  Y. A. Bernard,  
 E. J. Berquist,  K. B. Bravaya,  H. Burton,  K. Carter-Fenk,  D. Casanova,  
 Chun-Min Chang,  Yunqing Chen,  A. Chien,  K. D. Closser,  M. P. Coons,  
 S. Coriani,  S. Dasgupta,  A. L. Dempwolff,  M. Diedenhofen,  Hainam Do,  
 R. G. Edgar,  Po-Tung Fang,  S. Faraji,  S. Fatehi,  Qingguo Feng,  
 J. Fosso-Tande,  J. Gayvert,  Qinghui Ge,  A. Ghysels,  G. Gidofalvi,  
 J. Gomes,  J. Gonthier,  A. Gunina,  D. Hait,  M. W. D. Hanson-Heine,  
 P. H. P. Harbach,  A. W. Hauser,  M. F. Herbst,  J. E. Herr,  
 E. G. Hohenstein,  Z. C. Holden,  Kerwin Hui,  B. C. Huynh,  T.-C. Jagau,  
 Hyunjun Ji,  B. Kaduk,  K. Khistyaev,  Jaehoon Kim,  P. Klunzinger,  K. Koh,  
 D. Kosenkov,  L. Koulias,  T. Kowalczyk,  C. M. Krauter,  A. Kunitsa,  
 Ka Un Lao,  A. Laurent,  K. V. Lawler,  Joonho Lee,  D. Lefrancois,  
 S. Lehtola,  D. S. Levine,  Yi-Pei Li,  You-Sheng Lin,  Fenglai Liu,  
 Kuan-Yu Liu,  E. Livshits,  M. Loipersberger,  A. Luenser,  P. Manohar,  
 E. Mansoor,  S. F. Manzer,  Shan-Ping Mao,  Yuezhi Mao,  N. Mardirossian,  
 A. V. Marenich,  T. Markovich,  L. A. Martinez-Martinez,  S. A. Maurer,  
 N. J. Mayhall,  S. C. McKenzie,  J.-M. Mewes,  P. Morgante,  A. F. Morrison,  
 J. W. Mullinax,  K. Nanda,  T. S. Nguyen-Beck,  R. Olivares-Amaya,  
 J. A. Parkhill,  S. K. Paul,  F. Pavosevic,  Zheng Pei,  T. M. Perrine,  
 F. Plasser,  P. Pokhilko,  S. Prager,  A. Prociuk,  E. Ramos,  B. Rana,  
 D. R. Rehn,  F. Rob,  M. Scheurer,  M. Schneider,  N. Sergueev,  
 S. M. Sharada,  S. Sharma,  D. W. Small,  T. Stauch,  C. J. Stein,  
 T. Stein,  Yu-Chuan Su,  S. P. Veccham,  Zhen Tao,  A. J. W. Thom,  
 A. Tkatchenko,  T. Tsuchimochi,  N. M. Tubman,  L. Vogt,  M. L. Vidal,  
 O. Vydrov,  M. A. Watson,  J. Wenzel,  M. de Wergifosse,  T. A. Wesolowski,  
 A. White,  J. Witte,  A. Yamada,  Jun Yang,  K. Yao,  S. Yeganeh,  
 S. R. Yost,  Zhi-Qiang You,  A. Zech,  Igor Ying Zhang,  Xing Zhang,  
 Yan Zhao,  Ying Zhu,  B. R. Brooks,  G. K. L. Chan,  C. J. Cramer,  
 M. S. Gordon,  W. J. Hehre,  A. Klamt,  M. W. Schmidt,  C. D. Sherrill,  
 D. G. Truhlar,  A. Aspuru-Guzik,  R. Baer,  A. T. Bell,  N. A. Besley,  
 Jeng-Da Chai,  A. E. DePrince, III,  R. A. DiStasio Jr.,  A. Dreuw,  
 B. D. Dunietz,  T. R. Furlani,  Chao-Ping Hsu,  Yousung Jung,  Jing Kong,  
 D. S. Lambrecht,  WanZhen Liang,  C. Ochsenfeld,  V. A. Rassolov,  
 L. V. Slipchenko,  J. E. Subotnik,  T. Van Voorhis,  J. M. Herbert,  
 A. I. Krylov,  P. M. W. Gill,  M. Head-Gordon

 Contributors to earlier versions of Q-Chem not listed above: 
 R. D. Adamson,  B. Austin,  J. Baker,  G. J. O. Beran,  K. Brandhorst,  
 S. T. Brown,  E. F. C. Byrd,  A. K. Chakraborty,  C.-L. Cheng,  
 Siu Hung Chien,  D. M. Chipman,  D. L. Crittenden,  H. Dachsel,  
 R. J. Doerksen,  A. D. Dutoi,  L. Fusti-Molnar,  W. A. Goddard III,  
 A. Golubeva-Zadorozhnaya,  S. R. Gwaltney,  G. Hawkins,  A. Heyden,  
 S. Hirata,  G. Kedziora,  F. J. Keil,  C. Kelley,  Jihan Kim,  R. A. King,  
 R. Z. Khaliullin,  P. P. Korambath,  W. Kurlancheek,  A. M. Lee,  M. S. Lee,  
 S. V. Levchenko,  Ching Yeh Lin,  D. Liotard,  R. C. Lochan,  I. Lotan,  
 P. E. Maslen,  N. Nair,  D. P. O'Neill,  D. Neuhauser,  E. Neuscamman,  
 C. M. Oana,  R. Olson,  B. Peters,  R. Peverati,  P. A. Pieniazek,  
 Y. M. Rhee,  J. Ritchie,  M. A. Rohrdanz,  E. Rosta,  N. J. Russ,  
 H. F. Schaefer III,  N. E. Schultz,  N. Shenvi,  A. C. Simmonett,  A. Sodt,  
 D. Stuck,  K. S. Thanthiriwatte,  V. Vanovschi,  Tao Wang,  A. Warshel,  
 C. F. Williams,  Q. Wu,  X. Xu,  W. Zhang

 Please cite Q-Chem as follows:
 Y. Shao et al., Mol. Phys. 113, 184-215 (2015)
 DOI: 10.1080/00268976.2014.952696

 Q-Chem 5.2.2 for Intel X86 EM64T Linux

 Parts of Q-Chem use Armadillo 9.800.1 (Horizon Scraper).
 http://arma.sourceforge.net/

 Q-Chem begins on Thu Mar 11 13:37:35 2021  

Host: n0072.mhg0
0

     Scratch files written to /local/scratch/users/ymao/r7.00_frame_0034_almo_B3LYP_dp.in20210311133731//

Checking the input file for inconsistencies... 	...done.

--------------------------------------------------------------
User input:
--------------------------------------------------------------
$molecule
0 1
--
0 1
C    21.00500   14.97400   29.11300  
C    22.50600   15.01900   29.44200  
C    23.15100   16.18100   28.66700  
C    22.38500   17.48400   28.94500  
C    20.86000   17.52400   28.74900  
C    20.20400   16.26700   29.34300  
H    24.19200   16.32400   28.98300  
H    22.59600   15.21400   30.51700  
H    20.89800   14.69500   28.05700  
H    20.60500   14.17500   29.74800  
H    22.61500   17.84800   29.95400  
H    22.71600   18.23300   28.21500  
H    20.48300   18.43600   29.22700  
H    20.74600   17.54100   27.65900  
H    20.08200   16.40500   30.42500  
H    19.20900   16.04700   28.93700  
H    23.19100   16.00000   27.58600  
N    23.07900   13.68500   29.27300  
H    23.39200   13.40900   28.35100  
C    23.07300   12.77900   30.31300  
H    23.46500   11.78500   30.03200  
O    22.78300   13.03300   31.46900  
--
0 1
C    23.58900   20.36000   23.12200  
H    23.46600   20.71300   22.09500  
H    24.31600   21.06800   23.52600  
H    23.93900   19.32500   23.16000  
S    22.14100   20.50500   24.19400  
C    22.06900   22.27300   24.56200  
H    21.16500   22.45500   25.14700  
H    22.99600   22.40600   25.12600  
H    21.99500   22.80600   23.61100  
O    22.65600   19.86600   25.44600  
C    20.40500   19.80000   32.50600  
H    20.93500   19.04600   33.09200  
H    20.21000   19.50200   31.47200  
H    21.02400   20.69700   32.58400  
S    18.86600   20.19700   33.36600  
C    17.70200   19.99800   31.99800  
H    17.81300   20.79900   31.26300  
H    17.88900   19.03200   31.52200  
H    16.68300   19.95300   32.39100  
O    18.99800   21.65300   33.68500  
C    27.58900   21.34600   30.69000  
H    27.29500   20.50800   30.05300  
H    28.51100   21.74200   30.25500  
H    27.79700   20.94100   31.68400  
S    26.30800   22.61900   30.67600  
C    27.13200   23.64300   31.91700  
H    27.33000   23.08200   32.83400  
H    28.07500   24.02300   31.51600  
H    26.43900   24.45000   32.16500  
O    25.21600   21.97700   31.47400  
C    17.02600   8.80800    33.56200  
H    16.39800   8.39700    34.35700  
H    16.82500   8.31700    32.60600  
H    18.06900   8.66800    33.85600  
S    16.86300   10.60100   33.40100  
C    15.39500   10.59000   32.34800  
H    14.54800   10.03000   32.75400  
H    15.01700   11.60800   32.22400  
H    15.61000   10.34300   31.30500  
O    17.85100   10.94100   32.32900  
C    14.14500   12.62600   29.49200  
H    14.76400   11.73600   29.35800  
H    14.80400   13.46300   29.73700  
H    13.56600   12.40600   30.39300  
S    12.98900   12.87100   28.12500  
C    13.13400   14.67100   28.20200  
H    12.57300   15.14100   27.39000  
H    12.88500   15.09400   29.17800  
H    14.18200   14.91700   28.01200  
O    11.57700   12.65700   28.57300  
C    24.79600   21.65700   35.39600  
H    24.62500   21.84100   36.45900  
H    25.71000   21.06100   35.33400  
H    24.89100   22.66100   34.97400  
S    23.53500   20.69000   34.53500  
C    22.18600   21.12000   35.65700  
H    22.14800   22.21200   35.70800  
H    21.28000   20.78800   35.14400  
H    22.36400   20.65100   36.62800  
O    23.73500   19.26400   34.94500  
C    27.17000   11.48400   33.10100  
H    27.60800   11.48800   34.10300  
H    27.99400   11.53600   32.38500  
H    26.45600   12.30100   32.96900  
S    26.26700   9.94400    32.82400  
C    24.96200   10.60500   31.76200  
H    24.44100   9.71800    31.39200  
H    24.35000   11.23700   32.41000  
H    25.36000   11.27300   30.99400  
O    25.51600   9.73400    34.10200  
C    16.56800   13.04300   25.33000  
H    16.18300   12.98400   26.35100  
H    17.28000   12.22000   25.22500  
H    17.11700   13.98400   25.23400  
S    15.18800   12.89300   24.17400  
C    14.87900   11.13100   24.43000  
H    14.40700   11.01800   25.40900  
H    14.21700   10.79300   23.62900  
H    15.88000   10.69600   24.37100  
O    15.68600   13.03500   22.76900  
C    19.72000   14.47600   23.99300  
H    18.93300   13.79800   23.65200  
H    20.63600   14.29900   23.42400  
H    19.98400   14.31300   25.04100  
S    19.04400   16.13400   23.75100  
C    20.35200   17.12800   24.50300  
H    21.30700   17.07900   23.97300  
H    19.91000   18.12100   24.61500  
H    20.48500   16.67000   25.48600  
O    17.91900   16.24600   24.73300  
C    23.64900   9.16900    28.32000  
H    22.91200   9.16900    29.12700  
H    24.29600   10.04700   28.25200  
H    23.22800   8.95100    27.33500  
S    24.46000   7.61100    28.74700  
C    23.31000   6.59700    27.79000  
H    23.39900   5.51800    27.93900  
H    22.29400   6.83600    28.11400  
H    23.16400   6.81600    26.72900  
O    24.11100   7.44100    30.19300  
C    29.31400   17.32300   30.35100  
H    28.81600   17.99200   31.05800  
H    28.79400   16.37200   30.49500  
H    30.37700   17.18000   30.56000  
S    29.18200   17.89700   28.64300  
C    29.84100   19.50200   29.14800  
H    29.34400   20.18600   28.45600  
H    29.55000   19.69700   30.18300  
H    30.92400   19.54100   29.00100  
O    27.69900   17.94900   28.44500  
C    18.02300   12.10900   29.55100  
H    18.79000   12.22800   30.32100  
H    17.87500   12.96900   28.89300  
H    17.11700   11.90900   30.12900  
S    18.41200   10.62100   28.60200  
C    20.05000   11.26600   28.19800  
H    20.62900   10.42200   27.81200  
H    19.93400   12.12500   27.53200  
H    20.45800   11.54200   29.17300  
O    17.69800   10.73800   27.29200  
C    20.18400   14.57300   33.56500  
H    19.83400   14.78600   32.55200  
H    20.90700   13.75400   33.53500  
H    19.31800   14.27700   34.16300  
S    20.83000   16.13300   34.20800  
C    21.08200   15.47100   35.87000  
H    21.72800   14.59700   35.75800  
H    21.70800   16.10200   36.50600  
H    20.19300   15.13000   36.40700  
O    19.58900   16.96900   34.25700  
C    17.96400   22.22800   23.93700  
H    18.98800   22.47000   23.64100  
H    17.29200   22.89700   23.39400  
H    17.79700   22.39300   25.00400  
S    17.51600   20.54400   23.45800  
C    17.51300   20.90300   21.68700  
H    18.39000   21.50600   21.43900  
H    17.47700   19.96400   21.12800  
H    16.66300   21.53700   21.42400  
O    16.03800   20.57200   23.69800  
C    22.55400   22.29800   29.64500  
H    22.62400   23.13400   30.34500  
H    22.91400   21.34400   30.03800  
H    23.07700   22.56300   28.72300  
S    20.80300   22.25700   29.20000  
C    20.99700   21.22900   27.72700  
H    20.01800   21.22500   27.24000  
H    21.71800   21.75200   27.09400  
H    21.34100   20.23400   28.02200  
O    20.50300   23.62700   28.67700  
C    26.15500   18.72600   32.87600  
H    27.23000   18.91400   32.83400  
H    25.59500   19.56700   32.46000  
H    25.74900   18.44400   33.85100  
S    25.81600   17.18600   31.99400  
C    24.02000   17.32000   32.14800  
H    23.61600   18.16300   31.58300  
H    23.60100   16.37500   31.79400  
H    23.76700   17.30900   33.21200  
O    26.10600   16.18300   33.06700  
C    16.37300   14.57200   32.94900  
H    17.20600   13.90100   33.17500  
H    16.00600   15.06200   33.85400  
H    15.57600   14.05100   32.41200  
S    16.97500   15.89400   31.87400  
C    15.58600   17.00600   32.19200  
H    14.67200   16.41500   32.08900  
H    15.60500   17.44100   33.19400  
H    15.66100   17.83800   31.48700  
O    16.58400   15.28800   30.56300  
C    21.74600   9.22600    34.78900  
H    21.33000   8.25700    34.50200  
H    21.05100   10.00800   34.47300  
H    22.70400   9.32400    34.27200  
S    22.06400   9.31100    36.56500  
C    23.62900   8.40900    36.59000  
H    24.48500   9.01500    36.28100  
H    23.82400   7.97300    37.57300  
H    23.38500   7.61300    35.88100  
O    21.09700   8.36300    37.20300  
C    25.28200   17.41800   26.02300  
H    25.26300   16.78800   26.91500  
H    26.20700   18.00000   26.00200  
H    24.31200   17.91800   25.95500  
S    25.15400   16.28500   24.62100  
C    26.80400   15.61600   24.92700  
H    27.12400   15.10900   24.01200  
H    27.48800   16.45600   25.07100  
H    26.82200   15.01500   25.84000  
O    25.28500   17.23200   23.46900  
C    18.20600   7.33400    30.32400  
H    17.95700   6.81800    31.25400  
H    17.73200   8.31600    30.25300  
H    17.91400   6.69900    29.48300  
S    19.99200   7.49100    30.10100  
C    20.19500   8.98600    31.09700  
H    19.95400   8.63600    32.10400  
H    21.26400   9.18400    30.98800  
H    19.55500   9.79600    30.73800  
O    20.12700   7.91000    28.67000  
C    15.66100   18.82300   28.62000  
H    15.09200   19.27700   29.43600  
H    14.94300   18.80600   27.79600  
H    16.09300   17.87700   28.95600  
S    16.95800   19.99300   28.15700  
C    17.43600   19.02700   26.70700  
H    17.41100   17.97600   27.00500  
H    16.65600   19.14500   25.95100  
H    18.43900   19.31400   26.37900  
O    18.13700   19.83500   29.06600  
C    25.35400   12.11500   36.47600  
H    26.29200   12.27100   35.93700  
H    25.14100   12.88000   37.22700  
H    25.34400   11.19000   37.05800  
S    24.02900   12.05100   35.24900  
C    24.29700   13.71200   34.59000  
H    25.32200   14.03900   34.40000  
H    23.67700   13.64900   33.69200  
H    23.68700   14.39500   35.18700  
O    22.85600   12.35600   36.12800  
C    26.18900   21.17600   25.48100  
H    27.19000   20.96000   25.09900  
H    25.60900   20.25500   25.38500  
H    25.81500   21.90100   24.75300  
S    26.25200   21.71300   27.20500  
C    25.04700   20.55300   27.88900  
H    24.81700   20.87400   28.90800  
H    24.23200   20.48800   27.16300  
H    25.45000   19.54100   27.97700  
O    25.47400   22.99100   27.14600  
C    29.44300   6.50100    31.00900  
H    30.34000   7.03300    31.33500  
H    28.63100   6.78700    31.68300  
H    29.58100   5.41700    31.05200  
S    28.75900   6.91900    29.38900  
C    27.85200   8.42800    29.79800  
H    27.23700   8.19600    30.67100  
H    28.50000   9.26300    30.07600  
H    27.17400   8.75400    29.00500  
O    27.66500   5.92200    29.16500  
C    28.16000   13.47400   27.73200  
H    28.51300   14.50900   27.72000  
H    28.93200   12.90300   28.25400  
H    28.31000   13.11300   26.71100  
S    26.54800   13.14700   28.47800  
C    26.98400   13.96400   30.03000  
H    26.10600   14.05900   30.67400  
H    27.66600   13.28200   30.54400  
H    27.47200   14.88900   29.71200  
O    26.66000   11.68600   28.78700  
C    29.01200   10.05700   26.90900  
H    28.38900   10.73100   27.50100  
H    29.17000   9.18000    27.54300  
H    29.98400   10.50700   26.68900  
S    28.18700   9.38700    25.44700  
C    26.75100   8.59600    26.20500  
H    26.26600   9.26900    26.91700  
H    26.03500   8.32100    25.42700  
H    27.25300   7.76500    26.70700  
O    29.05900   8.19900    25.18500  
C    24.73600   11.69200   23.64900  
H    25.69100   12.22300   23.60300  
H    24.78300   10.75600   23.08700  
H    23.88000   12.31600   23.38000  
S    24.45800   11.19400   25.36300  
C    22.74300   10.62400   25.35200  
H    22.23400   11.13600   24.53200  
H    22.81400   9.58500    25.02000  
H    22.40700   10.73400   26.38600  
O    24.20000   12.50900   26.03200  
$end

$rem
JOBTYPE  SP
METHOD  B3LYP
BASIS  6-31+G(D)
SYMMETRY  FALSE
SYM_IGNORE  TRUE
MEM_TOTAL  16000
MEM_STATIC  8000
MAX_SUB_FILE_NUM  16000
BASIS_LIN_DEP_THRESH  6
THRESH  14
SCF_CONVERGENCE  8
GEN_SCFMAN  TRUE
SCF_GUESS  FRAGMO
FD_MAT_VEC_PROD  FALSE
XC_GRID  000075000302
NL_GRID  1
MAX_SCF_CYCLES  200
FRGM_METHOD  STOLL
SCFMI_MODE  1
$end

$development
almo_efield  1
$end

$rem_frgm
SCF_CONVERGENCE  4
$end

--------------------------------------------------------------
 ----------------------------------------------------------------
             Standard Nuclear Orientation (Angstroms)
    I     Atom           X                Y                Z
 ----------------------------------------------------------------
    1      C      21.0050000000    14.9740000000    29.1130000000
    2      C      22.5060000000    15.0190000000    29.4420000000
    3      C      23.1510000000    16.1810000000    28.6670000000
    4      C      22.3850000000    17.4840000000    28.9450000000
    5      C      20.8600000000    17.5240000000    28.7490000000
    6      C      20.2040000000    16.2670000000    29.3430000000
    7      H      24.1920000000    16.3240000000    28.9830000000
    8      H      22.5960000000    15.2140000000    30.5170000000
    9      H      20.8980000000    14.6950000000    28.0570000000
   10      H      20.6050000000    14.1750000000    29.7480000000
   11      H      22.6150000000    17.8480000000    29.9540000000
   12      H      22.7160000000    18.2330000000    28.2150000000
   13      H      20.4830000000    18.4360000000    29.2270000000
   14      H      20.7460000000    17.5410000000    27.6590000000
   15      H      20.0820000000    16.4050000000    30.4250000000
   16      H      19.2090000000    16.0470000000    28.9370000000
   17      H      23.1910000000    16.0000000000    27.5860000000
   18      N      23.0790000000    13.6850000000    29.2730000000
   19      H      23.3920000000    13.4090000000    28.3510000000
   20      C      23.0730000000    12.7790000000    30.3130000000
   21      H      23.4650000000    11.7850000000    30.0320000000
   22      O      22.7830000000    13.0330000000    31.4690000000
   23      C      23.5890000000    20.3600000000    23.1220000000
   24      H      23.4660000000    20.7130000000    22.0950000000
   25      H      24.3160000000    21.0680000000    23.5260000000
   26      H      23.9390000000    19.3250000000    23.1600000000
   27      S      22.1410000000    20.5050000000    24.1940000000
   28      C      22.0690000000    22.2730000000    24.5620000000
   29      H      21.1650000000    22.4550000000    25.1470000000
   30      H      22.9960000000    22.4060000000    25.1260000000
   31      H      21.9950000000    22.8060000000    23.6110000000
   32      O      22.6560000000    19.8660000000    25.4460000000
   33      C      20.4050000000    19.8000000000    32.5060000000
   34      H      20.9350000000    19.0460000000    33.0920000000
   35      H      20.2100000000    19.5020000000    31.4720000000
   36      H      21.0240000000    20.6970000000    32.5840000000
   37      S      18.8660000000    20.1970000000    33.3660000000
   38      C      17.7020000000    19.9980000000    31.9980000000
   39      H      17.8130000000    20.7990000000    31.2630000000
   40      H      17.8890000000    19.0320000000    31.5220000000
   41      H      16.6830000000    19.9530000000    32.3910000000
   42      O      18.9980000000    21.6530000000    33.6850000000
   43      C      27.5890000000    21.3460000000    30.6900000000
   44      H      27.2950000000    20.5080000000    30.0530000000
   45      H      28.5110000000    21.7420000000    30.2550000000
   46      H      27.7970000000    20.9410000000    31.6840000000
   47      S      26.3080000000    22.6190000000    30.6760000000
   48      C      27.1320000000    23.6430000000    31.9170000000
   49      H      27.3300000000    23.0820000000    32.8340000000
   50      H      28.0750000000    24.0230000000    31.5160000000
   51      H      26.4390000000    24.4500000000    32.1650000000
   52      O      25.2160000000    21.9770000000    31.4740000000
   53      C      17.0260000000     8.8080000000    33.5620000000
   54      H      16.3980000000     8.3970000000    34.3570000000
   55      H      16.8250000000     8.3170000000    32.6060000000
   56      H      18.0690000000     8.6680000000    33.8560000000
   57      S      16.8630000000    10.6010000000    33.4010000000
   58      C      15.3950000000    10.5900000000    32.3480000000
   59      H      14.5480000000    10.0300000000    32.7540000000
   60      H      15.0170000000    11.6080000000    32.2240000000
   61      H      15.6100000000    10.3430000000    31.3050000000
   62      O      17.8510000000    10.9410000000    32.3290000000
   63      C      14.1450000000    12.6260000000    29.4920000000
   64      H      14.7640000000    11.7360000000    29.3580000000
   65      H      14.8040000000    13.4630000000    29.7370000000
   66      H      13.5660000000    12.4060000000    30.3930000000
   67      S      12.9890000000    12.8710000000    28.1250000000
   68      C      13.1340000000    14.6710000000    28.2020000000
   69      H      12.5730000000    15.1410000000    27.3900000000
   70      H      12.8850000000    15.0940000000    29.1780000000
   71      H      14.1820000000    14.9170000000    28.0120000000
   72      O      11.5770000000    12.6570000000    28.5730000000
   73      C      24.7960000000    21.6570000000    35.3960000000
   74      H      24.6250000000    21.8410000000    36.4590000000
   75      H      25.7100000000    21.0610000000    35.3340000000
   76      H      24.8910000000    22.6610000000    34.9740000000
   77      S      23.5350000000    20.6900000000    34.5350000000
   78      C      22.1860000000    21.1200000000    35.6570000000
   79      H      22.1480000000    22.2120000000    35.7080000000
   80      H      21.2800000000    20.7880000000    35.1440000000
   81      H      22.3640000000    20.6510000000    36.6280000000
   82      O      23.7350000000    19.2640000000    34.9450000000
   83      C      27.1700000000    11.4840000000    33.1010000000
   84      H      27.6080000000    11.4880000000    34.1030000000
   85      H      27.9940000000    11.5360000000    32.3850000000
   86      H      26.4560000000    12.3010000000    32.9690000000
   87      S      26.2670000000     9.9440000000    32.8240000000
   88      C      24.9620000000    10.6050000000    31.7620000000
   89      H      24.4410000000     9.7180000000    31.3920000000
   90      H      24.3500000000    11.2370000000    32.4100000000
   91      H      25.3600000000    11.2730000000    30.9940000000
   92      O      25.5160000000     9.7340000000    34.1020000000
   93      C      16.5680000000    13.0430000000    25.3300000000
   94      H      16.1830000000    12.9840000000    26.3510000000
   95      H      17.2800000000    12.2200000000    25.2250000000
   96      H      17.1170000000    13.9840000000    25.2340000000
   97      S      15.1880000000    12.8930000000    24.1740000000
   98      C      14.8790000000    11.1310000000    24.4300000000
   99      H      14.4070000000    11.0180000000    25.4090000000
  100      H      14.2170000000    10.7930000000    23.6290000000
  101      H      15.8800000000    10.6960000000    24.3710000000
  102      O      15.6860000000    13.0350000000    22.7690000000
  103      C      19.7200000000    14.4760000000    23.9930000000
  104      H      18.9330000000    13.7980000000    23.6520000000
  105      H      20.6360000000    14.2990000000    23.4240000000
  106      H      19.9840000000    14.3130000000    25.0410000000
  107      S      19.0440000000    16.1340000000    23.7510000000
  108      C      20.3520000000    17.1280000000    24.5030000000
  109      H      21.3070000000    17.0790000000    23.9730000000
  110      H      19.9100000000    18.1210000000    24.6150000000
  111      H      20.4850000000    16.6700000000    25.4860000000
  112      O      17.9190000000    16.2460000000    24.7330000000
  113      C      23.6490000000     9.1690000000    28.3200000000
  114      H      22.9120000000     9.1690000000    29.1270000000
  115      H      24.2960000000    10.0470000000    28.2520000000
  116      H      23.2280000000     8.9510000000    27.3350000000
  117      S      24.4600000000     7.6110000000    28.7470000000
  118      C      23.3100000000     6.5970000000    27.7900000000
  119      H      23.3990000000     5.5180000000    27.9390000000
  120      H      22.2940000000     6.8360000000    28.1140000000
  121      H      23.1640000000     6.8160000000    26.7290000000
  122      O      24.1110000000     7.4410000000    30.1930000000
  123      C      29.3140000000    17.3230000000    30.3510000000
  124      H      28.8160000000    17.9920000000    31.0580000000
  125      H      28.7940000000    16.3720000000    30.4950000000
  126      H      30.3770000000    17.1800000000    30.5600000000
  127      S      29.1820000000    17.8970000000    28.6430000000
  128      C      29.8410000000    19.5020000000    29.1480000000
  129      H      29.3440000000    20.1860000000    28.4560000000
  130      H      29.5500000000    19.6970000000    30.1830000000
  131      H      30.9240000000    19.5410000000    29.0010000000
  132      O      27.6990000000    17.9490000000    28.4450000000
  133      C      18.0230000000    12.1090000000    29.5510000000
  134      H      18.7900000000    12.2280000000    30.3210000000
  135      H      17.8750000000    12.9690000000    28.8930000000
  136      H      17.1170000000    11.9090000000    30.1290000000
  137      S      18.4120000000    10.6210000000    28.6020000000
  138      C      20.0500000000    11.2660000000    28.1980000000
  139      H      20.6290000000    10.4220000000    27.8120000000
  140      H      19.9340000000    12.1250000000    27.5320000000
  141      H      20.4580000000    11.5420000000    29.1730000000
  142      O      17.6980000000    10.7380000000    27.2920000000
  143      C      20.1840000000    14.5730000000    33.5650000000
  144      H      19.8340000000    14.7860000000    32.5520000000
  145      H      20.9070000000    13.7540000000    33.5350000000
  146      H      19.3180000000    14.2770000000    34.1630000000
  147      S      20.8300000000    16.1330000000    34.2080000000
  148      C      21.0820000000    15.4710000000    35.8700000000
  149      H      21.7280000000    14.5970000000    35.7580000000
  150      H      21.7080000000    16.1020000000    36.5060000000
  151      H      20.1930000000    15.1300000000    36.4070000000
  152      O      19.5890000000    16.9690000000    34.2570000000
  153      C      17.9640000000    22.2280000000    23.9370000000
  154      H      18.9880000000    22.4700000000    23.6410000000
  155      H      17.2920000000    22.8970000000    23.3940000000
  156      H      17.7970000000    22.3930000000    25.0040000000
  157      S      17.5160000000    20.5440000000    23.4580000000
  158      C      17.5130000000    20.9030000000    21.6870000000
  159      H      18.3900000000    21.5060000000    21.4390000000
  160      H      17.4770000000    19.9640000000    21.1280000000
  161      H      16.6630000000    21.5370000000    21.4240000000
  162      O      16.0380000000    20.5720000000    23.6980000000
  163      C      22.5540000000    22.2980000000    29.6450000000
  164      H      22.6240000000    23.1340000000    30.3450000000
  165      H      22.9140000000    21.3440000000    30.0380000000
  166      H      23.0770000000    22.5630000000    28.7230000000
  167      S      20.8030000000    22.2570000000    29.2000000000
  168      C      20.9970000000    21.2290000000    27.7270000000
  169      H      20.0180000000    21.2250000000    27.2400000000
  170      H      21.7180000000    21.7520000000    27.0940000000
  171      H      21.3410000000    20.2340000000    28.0220000000
  172      O      20.5030000000    23.6270000000    28.6770000000
  173      C      26.1550000000    18.7260000000    32.8760000000
  174      H      27.2300000000    18.9140000000    32.8340000000
  175      H      25.5950000000    19.5670000000    32.4600000000
  176      H      25.7490000000    18.4440000000    33.8510000000
  177      S      25.8160000000    17.1860000000    31.9940000000
  178      C      24.0200000000    17.3200000000    32.1480000000
  179      H      23.6160000000    18.1630000000    31.5830000000
  180      H      23.6010000000    16.3750000000    31.7940000000
  181      H      23.7670000000    17.3090000000    33.2120000000
  182      O      26.1060000000    16.1830000000    33.0670000000
  183      C      16.3730000000    14.5720000000    32.9490000000
  184      H      17.2060000000    13.9010000000    33.1750000000
  185      H      16.0060000000    15.0620000000    33.8540000000
  186      H      15.5760000000    14.0510000000    32.4120000000
  187      S      16.9750000000    15.8940000000    31.8740000000
  188      C      15.5860000000    17.0060000000    32.1920000000
  189      H      14.6720000000    16.4150000000    32.0890000000
  190      H      15.6050000000    17.4410000000    33.1940000000
  191      H      15.6610000000    17.8380000000    31.4870000000
  192      O      16.5840000000    15.2880000000    30.5630000000
  193      C      21.7460000000     9.2260000000    34.7890000000
  194      H      21.3300000000     8.2570000000    34.5020000000
  195      H      21.0510000000    10.0080000000    34.4730000000
  196      H      22.7040000000     9.3240000000    34.2720000000
  197      S      22.0640000000     9.3110000000    36.5650000000
  198      C      23.6290000000     8.4090000000    36.5900000000
  199      H      24.4850000000     9.0150000000    36.2810000000
  200      H      23.8240000000     7.9730000000    37.5730000000
  201      H      23.3850000000     7.6130000000    35.8810000000
  202      O      21.0970000000     8.3630000000    37.2030000000
  203      C      25.2820000000    17.4180000000    26.0230000000
  204      H      25.2630000000    16.7880000000    26.9150000000
  205      H      26.2070000000    18.0000000000    26.0020000000
  206      H      24.3120000000    17.9180000000    25.9550000000
  207      S      25.1540000000    16.2850000000    24.6210000000
  208      C      26.8040000000    15.6160000000    24.9270000000
  209      H      27.1240000000    15.1090000000    24.0120000000
  210      H      27.4880000000    16.4560000000    25.0710000000
  211      H      26.8220000000    15.0150000000    25.8400000000
  212      O      25.2850000000    17.2320000000    23.4690000000
  213      C      18.2060000000     7.3340000000    30.3240000000
  214      H      17.9570000000     6.8180000000    31.2540000000
  215      H      17.7320000000     8.3160000000    30.2530000000
  216      H      17.9140000000     6.6990000000    29.4830000000
  217      S      19.9920000000     7.4910000000    30.1010000000
  218      C      20.1950000000     8.9860000000    31.0970000000
  219      H      19.9540000000     8.6360000000    32.1040000000
  220      H      21.2640000000     9.1840000000    30.9880000000
  221      H      19.5550000000     9.7960000000    30.7380000000
  222      O      20.1270000000     7.9100000000    28.6700000000
  223      C      15.6610000000    18.8230000000    28.6200000000
  224      H      15.0920000000    19.2770000000    29.4360000000
  225      H      14.9430000000    18.8060000000    27.7960000000
  226      H      16.0930000000    17.8770000000    28.9560000000
  227      S      16.9580000000    19.9930000000    28.1570000000
  228      C      17.4360000000    19.0270000000    26.7070000000
  229      H      17.4110000000    17.9760000000    27.0050000000
  230      H      16.6560000000    19.1450000000    25.9510000000
  231      H      18.4390000000    19.3140000000    26.3790000000
  232      O      18.1370000000    19.8350000000    29.0660000000
  233      C      25.3540000000    12.1150000000    36.4760000000
  234      H      26.2920000000    12.2710000000    35.9370000000
  235      H      25.1410000000    12.8800000000    37.2270000000
  236      H      25.3440000000    11.1900000000    37.0580000000
  237      S      24.0290000000    12.0510000000    35.2490000000
  238      C      24.2970000000    13.7120000000    34.5900000000
  239      H      25.3220000000    14.0390000000    34.4000000000
  240      H      23.6770000000    13.6490000000    33.6920000000
  241      H      23.6870000000    14.3950000000    35.1870000000
  242      O      22.8560000000    12.3560000000    36.1280000000
  243      C      26.1890000000    21.1760000000    25.4810000000
  244      H      27.1900000000    20.9600000000    25.0990000000
  245      H      25.6090000000    20.2550000000    25.3850000000
  246      H      25.8150000000    21.9010000000    24.7530000000
  247      S      26.2520000000    21.7130000000    27.2050000000
  248      C      25.0470000000    20.5530000000    27.8890000000
  249      H      24.8170000000    20.8740000000    28.9080000000
  250      H      24.2320000000    20.4880000000    27.1630000000
  251      H      25.4500000000    19.5410000000    27.9770000000
  252      O      25.4740000000    22.9910000000    27.1460000000
  253      C      29.4430000000     6.5010000000    31.0090000000
  254      H      30.3400000000     7.0330000000    31.3350000000
  255      H      28.6310000000     6.7870000000    31.6830000000
  256      H      29.5810000000     5.4170000000    31.0520000000
  257      S      28.7590000000     6.9190000000    29.3890000000
  258      C      27.8520000000     8.4280000000    29.7980000000
  259      H      27.2370000000     8.1960000000    30.6710000000
  260      H      28.5000000000     9.2630000000    30.0760000000
  261      H      27.1740000000     8.7540000000    29.0050000000
  262      O      27.6650000000     5.9220000000    29.1650000000
  263      C      28.1600000000    13.4740000000    27.7320000000
  264      H      28.5130000000    14.5090000000    27.7200000000
  265      H      28.9320000000    12.9030000000    28.2540000000
  266      H      28.3100000000    13.1130000000    26.7110000000
  267      S      26.5480000000    13.1470000000    28.4780000000
  268      C      26.9840000000    13.9640000000    30.0300000000
  269      H      26.1060000000    14.0590000000    30.6740000000
  270      H      27.6660000000    13.2820000000    30.5440000000
  271      H      27.4720000000    14.8890000000    29.7120000000
  272      O      26.6600000000    11.6860000000    28.7870000000
  273      C      29.0120000000    10.0570000000    26.9090000000
  274      H      28.3890000000    10.7310000000    27.5010000000
  275      H      29.1700000000     9.1800000000    27.5430000000
  276      H      29.9840000000    10.5070000000    26.6890000000
  277      S      28.1870000000     9.3870000000    25.4470000000
  278      C      26.7510000000     8.5960000000    26.2050000000
  279      H      26.2660000000     9.2690000000    26.9170000000
  280      H      26.0350000000     8.3210000000    25.4270000000
  281      H      27.2530000000     7.7650000000    26.7070000000
  282      O      29.0590000000     8.1990000000    25.1850000000
  283      C      24.7360000000    11.6920000000    23.6490000000
  284      H      25.6910000000    12.2230000000    23.6030000000
  285      H      24.7830000000    10.7560000000    23.0870000000
  286      H      23.8800000000    12.3160000000    23.3800000000
  287      S      24.4580000000    11.1940000000    25.3630000000
  288      C      22.7430000000    10.6240000000    25.3520000000
  289      H      22.2340000000    11.1360000000    24.5320000000
  290      H      22.8140000000     9.5850000000    25.0200000000
  291      H      22.4070000000    10.7340000000    26.3860000000
  292      O      24.2000000000    12.5090000000    26.0320000000
 ----------------------------------------------------------------
 Nuclear Repulsion Energy =       47424.00719158 hartrees
 There are      602 alpha and      602 beta electrons
 Requested basis set is 6-31+G(d)
 There are 962 shells and 2681 basis functions

 Total QAlloc Memory Limit  16000 MB
 Mega-Array Size      7821 MB
 MEM_STATIC part      8000 MB
 A cutoff of  1.0D-14 yielded 173224 shell pairs
 There are   1498494 function pairs
 Smallest overlap matrix eigenvalue = 5.87E-07
 Linear dependence detected in AO basis
 Tighter screening thresholds may be required for diffuse basis sets
 Use S2THRESH > 14 and THRESH = 14 in case of SCF convergence issues
 Number of orthogonalized atomic orbitals = 2679
 Maximum deviation from orthogonality = 1.300E-10

 Scale SEOQF with 1.000000e-03/1.000000e-03/1.000000e-03

 Standard Electronic Orientation quadrupole field applied
 Nucleus-field energy     =    -0.0000007046 hartrees
Attempting to make child job directory: /local/scratch/users/ymao/r7.00_frame_0034_almo_B3LYP_dp.in20210311133731//Frg1/
Attempting to make child job directory: /local/scratch/users/ymao/r7.00_frame_0034_almo_B3LYP_dp.in20210311133731//Frg2/
Creating input file /local/scratch/users/ymao/r7.00_frame_0034_almo_B3LYP_dp.in20210311133731/Frg1.input
using default PutDataFrgm: nothing
calling putenv with: QCSCRATCH=/local/scratch/users/ymao/r7.00_frame_0034_almo_B3LYP_dp.in20210311133731/ 
Spawning Job For Fragment 0
Done Job For Fragment 0
calling putenv with: QCSCRATCH=/local/scratch/users/ymao 
calling putenv with: QCTHREADS=8 
Creating input file /local/scratch/users/ymao/r7.00_frame_0034_almo_B3LYP_dp.in20210311133731/Frg2.input
using default PutDataFrgm: nothing
calling putenv with: QCSCRATCH=/local/scratch/users/ymao/r7.00_frame_0034_almo_B3LYP_dp.in20210311133731/ 
Spawning Job For Fragment 1
Done Job For Fragment 1
calling putenv with: QCSCRATCH=/local/scratch/users/ymao 
calling putenv with: QCTHREADS=8 
 Time for running child jobs:  CPU 0.51 s  wall 22683.17 s

 -----------------------------------------------------------------------
  General SCF calculation program by
  Eric Jon Sundstrom, Paul Horn, Yuezhi Mao, Dmitri Zuev, Alec White,
  David Stuck, Shaama M.S., Shane Yost, Joonho Lee, David Small,
  Daniel Levine, Susi Lehtola, Hugh Burton, Evgeny Epifanovsky,
  Bang C. Huynh
 -----------------------------------------------------------------------
Performing Restricted Closed Shell SCFMI
Doing General SCFMI
 Exchange:     0.2000 Hartree-Fock + 0.0800 Slater + 0.7200 B88
 Correlation:  0.1900 VWN1RPA + 0.8100 LYP
 Using Euler-Maclaurin-Lebedev (75,302) quadrature formula
performing fock build before subrot guess so that all methods have access
Printing subrot_rss_gen Method Specification:
Occupied Subspace Method is 0
Virtual Subspace Method is 0
Energy prior to optimization (guess energy) = -15340.700213354823
Begin Timing: Total SCF Calculation
begin iterations for algorithm: DIIS         
the SCF tolerance is set to 1.00e-08
    1  -15340.7002133548      5.27e-05     00000 
    2  -15340.6885738362      9.50e-05     00000 
    3  -15340.7114157639      1.76e-05     00000 
    4  -15340.7122335156      5.77e-06     00000 
    5  -15340.7123286226      2.93e-06     00000 
    6  -15340.7123478840      1.81e-06     00000 
    7  -15340.7123560525      9.75e-07     00000 
    8  -15340.7123587144      5.10e-07     00000 
    9  -15340.7123593369      2.92e-07     00000 
   10  -15340.7123594526      2.21e-07     00000 
   11  -15340.7123595513      1.20e-07     00000 
   12  -15340.7123595846      6.69e-08     00000 
   13  -15340.7123595959      3.58e-08     00000 
   14  -15340.7123595985      2.36e-08     00000 
   15  -15340.7123595994      1.54e-08     00000 
   16  -15340.7123596002      5.97e-09     00000 Convergence criterion met
write pseudocanon occs and virts to disk
write pseudocanon orbital energies to disk
Timing for Total SCF: 46926.00s (wall), 374073.05s (cpu)
SCFMI Energy  -15340.7123596002
<S^2>            0.00000
 Total energy in the final basis set =   -15340.7123596002
    ==================================================
        The end of Object-Oriented SCFman: SCFMI      
    ==================================================
 
 --------------------------------------------------------------
 
                    Orbital Energies (a.u.)
 --------------------------------------------------------------
 
 Alpha MOs
 -- Occupied --
-89.0479 -89.0391 -89.0303 -89.0282 -89.0271 -89.0180 -89.0167 -89.0137
-89.0082 -89.0067 -89.0062 -89.0061 -89.0049 -89.0022 -89.0017 -89.0016
-88.9998 -88.9978 -88.9959 -88.9949 -88.9932 -88.9929 -88.9844 -88.9700
-88.9695 -88.9670 -88.9650 -19.1682 -19.1569 -19.1556 -19.1399 -19.1385
-19.1356 -19.1343 -19.1339 -19.1231 -19.1210 -19.1207 -19.1192 -19.1184
-19.1175 -19.1170 -19.1147 -19.1121 -19.1116 -19.1116 -19.1110 -19.1102
-19.1083 -19.1082 -19.0938 -19.0912 -19.0908 -19.0867 -19.0836 -14.3910
-10.3169 -10.2644 -10.2598 -10.2548 -10.2524 -10.2514 -10.2501 -10.2463
-10.2438 -10.2423 -10.2399 -10.2384 -10.2383 -10.2363 -10.2328 -10.2322
-10.2277 -10.2269 -10.2263 -10.2246 -10.2240 -10.2239 -10.2239 -10.2239
-10.2235 -10.2228 -10.2220 -10.2215 -10.2207 -10.2206 -10.2206 -10.2188
-10.2178 -10.2166 -10.2161 -10.2155 -10.2155 -10.2139 -10.2114 -10.2106
-10.2099 -10.2090 -10.2073 -10.2055 -10.2043 -10.2027 -10.2022 -10.1988
-10.1980 -10.1965 -10.1960 -10.1958 -10.1957 -10.1937 -10.1917 -10.1914
-10.1887 -10.1880 -10.1880 -10.1875 -10.1854  -8.0939  -8.0844  -8.0772
 -8.0738  -8.0728  -8.0643  -8.0627  -8.0595  -8.0542  -8.0527  -8.0523
 -8.0522  -8.0512  -8.0488  -8.0477  -8.0473  -8.0459  -8.0439  -8.0411
 -8.0403  -8.0390  -8.0388  -8.0308  -8.0162  -8.0155  -8.0133  -8.0114
 -6.0583  -6.0568  -6.0515  -6.0489  -6.0475  -6.0418  -6.0415  -6.0402
 -6.0380  -6.0370  -6.0369  -6.0359  -6.0344  -6.0312  -6.0303  -6.0287
 -6.0274  -6.0270  -6.0257  -6.0238  -6.0227  -6.0215  -6.0203  -6.0182
 -6.0173  -6.0170  -6.0169  -6.0166  -6.0165  -6.0158  -6.0153  -6.0153
 -6.0153  -6.0145  -6.0131  -6.0119  -6.0119  -6.0118  -6.0116  -6.0110
 -6.0105  -6.0102  -6.0102  -6.0100  -6.0095  -6.0089  -6.0087  -6.0082
 -6.0073  -6.0060  -6.0055  -6.0049  -6.0046  -6.0045  -6.0042  -6.0035
 -6.0034  -6.0033  -6.0032  -6.0019  -6.0018  -6.0011  -5.9987  -5.9978
 -5.9966  -5.9962  -5.9950  -5.9939  -5.9882  -5.9806  -5.9798  -5.9793
 -5.9787  -5.9776  -5.9766  -5.9758  -5.9746  -5.9733  -5.9727  -5.9702
 -5.9683  -1.0740  -1.0704  -1.0655  -1.0559  -1.0499  -1.0489  -1.0466
 -1.0422  -1.0331  -1.0317  -1.0315  -1.0314  -1.0303  -1.0276  -1.0260
 -1.0257  -1.0257  -1.0253  -1.0201  -1.0190  -1.0189  -1.0170  -1.0142
 -1.0104  -0.9972  -0.9949  -0.9937  -0.9913  -0.9505  -0.8556  -0.8402
 -0.8389  -0.8313  -0.8271  -0.8220  -0.8188  -0.8174  -0.8100  -0.8089
 -0.8088  -0.8079  -0.8052  -0.8041  -0.8039  -0.8031  -0.8024  -0.8011
 -0.8003  -0.7993  -0.7983  -0.7954  -0.7914  -0.7810  -0.7790  -0.7778
 -0.7739  -0.7731  -0.7700  -0.7684  -0.7629  -0.7603  -0.7597  -0.7559
 -0.7520  -0.7519  -0.7427  -0.7399  -0.7389  -0.7388  -0.7378  -0.7357
 -0.7351  -0.7327  -0.7326  -0.7303  -0.7295  -0.7263  -0.7196  -0.7187
 -0.7173  -0.7172  -0.7141  -0.7069  -0.7057  -0.7035  -0.7018  -0.6620
 -0.6596  -0.6549  -0.6434  -0.6410  -0.6406  -0.6337  -0.6330  -0.6275
 -0.6236  -0.6226  -0.6225  -0.6207  -0.6204  -0.6176  -0.6168  -0.6156
 -0.6144  -0.6137  -0.6129  -0.6126  -0.6102  -0.6071  -0.6046  -0.6041
 -0.5997  -0.5846  -0.5836  -0.5833  -0.5827  -0.5769  -0.5478  -0.5308
 -0.5226  -0.5200  -0.5169  -0.5112  -0.5084  -0.5052  -0.5051  -0.5043
 -0.5037  -0.5008  -0.5003  -0.4988  -0.4978  -0.4970  -0.4956  -0.4951
 -0.4949  -0.4936  -0.4926  -0.4917  -0.4908  -0.4900  -0.4893  -0.4887
 -0.4864  -0.4853  -0.4841  -0.4838  -0.4834  -0.4822  -0.4816  -0.4812
 -0.4802  -0.4793  -0.4781  -0.4779  -0.4777  -0.4773  -0.4763  -0.4758
 -0.4749  -0.4746  -0.4744  -0.4736  -0.4735  -0.4730  -0.4724  -0.4722
 -0.4718  -0.4705  -0.4694  -0.4687  -0.4683  -0.4683  -0.4673  -0.4672
 -0.4664  -0.4660  -0.4648  -0.4644  -0.4641  -0.4636  -0.4625  -0.4623
 -0.4614  -0.4607  -0.4602  -0.4595  -0.4587  -0.4587  -0.4575  -0.4565
 -0.4562  -0.4556  -0.4534  -0.4526  -0.4523  -0.4520  -0.4510  -0.4505
 -0.4503  -0.4499  -0.4496  -0.4474  -0.4470  -0.4457  -0.4454  -0.4443
 -0.4428  -0.4415  -0.4403  -0.4396  -0.4393  -0.4385  -0.4380  -0.4375
 -0.4373  -0.4370  -0.4362  -0.4360  -0.4334  -0.4333  -0.4330  -0.4325
 -0.4322  -0.4322  -0.4314  -0.4308  -0.4295  -0.4289  -0.4258  -0.4245
 -0.4240  -0.4239  -0.4235  -0.4231  -0.4228  -0.4214  -0.4210  -0.4197
 -0.4185  -0.4182  -0.4178  -0.4166  -0.4164  -0.4160  -0.4158  -0.4151
 -0.4140  -0.4137  -0.4134  -0.4131  -0.4128  -0.4126  -0.4118  -0.4110
 -0.4094  -0.4091  -0.4078  -0.4073  -0.4071  -0.4064  -0.4063  -0.4060
 -0.4056  -0.4050  -0.4049  -0.4030  -0.4025  -0.4023  -0.4018  -0.4008
 -0.4000  -0.3990  -0.3975  -0.3962  -0.3941  -0.3927  -0.3914  -0.3894
 -0.3866  -0.3862  -0.3859  -0.3853  -0.3851  -0.3849  -0.3832  -0.3832
 -0.3819  -0.3808  -0.3795  -0.3790  -0.3775  -0.3766  -0.3762  -0.3749
 -0.3742  -0.3734  -0.3731  -0.3701  -0.3684  -0.3682  -0.3677  -0.3675
 -0.3639  -0.3619  -0.3613  -0.3595  -0.3588  -0.3578  -0.3575  -0.3568
 -0.3540  -0.3537  -0.3444  -0.3384  -0.3362  -0.3360  -0.3306  -0.3289
 -0.3262  -0.3250  -0.3200  -0.3163  -0.3015  -0.3003  -0.2997  -0.2958
 -0.2922  -0.2920  -0.2911  -0.2850  -0.2840  -0.2832  -0.2815  -0.2812
 -0.2807  -0.2801  -0.2783  -0.2757  -0.2754  -0.2748  -0.2728  -0.2727
 -0.2703  -0.2693  -0.2689  -0.2685  -0.2679  -0.2677  -0.2667  -0.2615
 -0.2592  -0.2551  -0.2534  -0.2515  -0.2512  -0.2509  -0.2504  -0.2495
 -0.2474  -0.2466  -0.2465  -0.2448  -0.2429  -0.2419  -0.2402  -0.2382
 -0.2369  -0.2360  -0.2330  -0.2325  -0.2307  -0.2220  -0.2114  -0.2079
 -0.2033  -0.1990
 -- Virtual --
 -0.0525  -0.0467  -0.0424  -0.0377  -0.0350  -0.0302  -0.0294  -0.0275
 -0.0263  -0.0254  -0.0247  -0.0228  -0.0213  -0.0198  -0.0190  -0.0176
 -0.0172  -0.0155  -0.0136  -0.0134  -0.0122  -0.0113  -0.0109  -0.0103
 -0.0091  -0.0084  -0.0070  -0.0061  -0.0046  -0.0042  -0.0026  -0.0019
 -0.0007   0.0010   0.0011   0.0018   0.0024   0.0028   0.0040   0.0040
  0.0048   0.0058   0.0060   0.0068   0.0076   0.0085   0.0089   0.0098
  0.0108   0.0110   0.0115   0.0120   0.0123   0.0129   0.0132   0.0137
  0.0141   0.0149   0.0158   0.0169   0.0181   0.0184   0.0196   0.0201
  0.0209   0.0216   0.0226   0.0231   0.0235   0.0236   0.0248   0.0253
  0.0269   0.0275   0.0276   0.0284   0.0294   0.0299   0.0306   0.0313
  0.0322   0.0330   0.0332   0.0334   0.0350   0.0351   0.0357   0.0364
  0.0371   0.0375   0.0383   0.0387   0.0394   0.0397   0.0406   0.0411
  0.0417   0.0423   0.0431   0.0436   0.0447   0.0451   0.0459   0.0468
  0.0469   0.0473   0.0489   0.0491   0.0496   0.0503   0.0507   0.0516
  0.0523   0.0531   0.0537   0.0543   0.0546   0.0553   0.0555   0.0558
  0.0562   0.0572   0.0584   0.0586   0.0590   0.0604   0.0608   0.0613
  0.0617   0.0618   0.0626   0.0635   0.0641   0.0648   0.0652   0.0658
  0.0671   0.0672   0.0675   0.0680   0.0698   0.0702   0.0705   0.0710
  0.0725   0.0728   0.0730   0.0736   0.0740   0.0753   0.0760   0.0763
  0.0768   0.0779   0.0783   0.0788   0.0795   0.0800   0.0803   0.0806
  0.0818   0.0823   0.0826   0.0832   0.0839   0.0843   0.0849   0.0851
  0.0862   0.0868   0.0874   0.0881   0.0883   0.0888   0.0896   0.0900
  0.0915   0.0919   0.0927   0.0929   0.0936   0.0947   0.0951   0.0958
  0.0963   0.0965   0.0974   0.0986   0.0994   0.1000   0.1001   0.1003
  0.1013   0.1018   0.1026   0.1036   0.1047   0.1052   0.1057   0.1059
  0.1064   0.1071   0.1081   0.1082   0.1085   0.1089   0.1091   0.1105
  0.1113   0.1117   0.1124   0.1128   0.1135   0.1141   0.1145   0.1160
  0.1168   0.1170   0.1179   0.1184   0.1185   0.1190   0.1200   0.1202
  0.1207   0.1218   0.1220   0.1224   0.1226   0.1235   0.1244   0.1249
  0.1257   0.1261   0.1267   0.1276   0.1284   0.1285   0.1292   0.1297
  0.1303   0.1307   0.1315   0.1323   0.1326   0.1329   0.1339   0.1348
  0.1351   0.1353   0.1367   0.1373   0.1375   0.1384   0.1386   0.1390
  0.1397   0.1406   0.1409   0.1415   0.1421   0.1434   0.1437   0.1445
  0.1453   0.1462   0.1465   0.1468   0.1477   0.1485   0.1489   0.1499
  0.1504   0.1507   0.1509   0.1515   0.1523   0.1527   0.1536   0.1543
  0.1544   0.1552   0.1556   0.1563   0.1567   0.1573   0.1574   0.1579
  0.1590   0.1595   0.1602   0.1607   0.1612   0.1615   0.1620   0.1628
  0.1635   0.1644   0.1659   0.1659   0.1662   0.1668   0.1677   0.1682
  0.1685   0.1692   0.1696   0.1702   0.1708   0.1714   0.1719   0.1722
  0.1733   0.1738   0.1745   0.1753   0.1756   0.1761   0.1771   0.1778
  0.1780   0.1784   0.1789   0.1798   0.1801   0.1808   0.1809   0.1817
  0.1824   0.1826   0.1836   0.1845   0.1853   0.1856   0.1860   0.1866
  0.1867   0.1883   0.1884   0.1896   0.1903   0.1905   0.1913   0.1921
  0.1924   0.1931   0.1937   0.1951   0.1955   0.1959   0.1964   0.1972
  0.1980   0.1982   0.1986   0.1998   0.1998   0.2003   0.2008   0.2022
  0.2027   0.2029   0.2036   0.2037   0.2046   0.2052   0.2055   0.2064
  0.2071   0.2071   0.2081   0.2085   0.2092   0.2093   0.2102   0.2111
  0.2113   0.2123   0.2128   0.2132   0.2140   0.2144   0.2149   0.2158
  0.2164   0.2164   0.2176   0.2184   0.2186   0.2189   0.2200   0.2200
  0.2215   0.2221   0.2227   0.2232   0.2241   0.2247   0.2257   0.2259
  0.2268   0.2273   0.2286   0.2289   0.2299   0.2309   0.2313   0.2321
  0.2325   0.2330   0.2336   0.2340   0.2355   0.2358   0.2365   0.2372
  0.2375   0.2384   0.2396   0.2398   0.2406   0.2410   0.2422   0.2424
  0.2431   0.2434   0.2446   0.2450   0.2458   0.2469   0.2479   0.2482
  0.2489   0.2493   0.2502   0.2505   0.2512   0.2521   0.2525   0.2530
  0.2542   0.2550   0.2558   0.2562   0.2568   0.2570   0.2581   0.2585
  0.2595   0.2601   0.2612   0.2619   0.2621   0.2637   0.2641   0.2647
  0.2653   0.2657   0.2662   0.2669   0.2677   0.2682   0.2687   0.2690
  0.2700   0.2709   0.2721   0.2730   0.2738   0.2743   0.2748   0.2753
  0.2764   0.2770   0.2776   0.2785   0.2789   0.2802   0.2810   0.2821
  0.2825   0.2836   0.2848   0.2849   0.2855   0.2864   0.2868   0.2877
  0.2893   0.2896   0.2908   0.2914   0.2920   0.2924   0.2925   0.2937
  0.2948   0.2958   0.2970   0.2974   0.2980   0.2989   0.2998   0.3004
  0.3014   0.3020   0.3031   0.3039   0.3044   0.3052   0.3056   0.3062
  0.3066   0.3070   0.3077   0.3087   0.3108   0.3122   0.3128   0.3130
  0.3144   0.3150   0.3160   0.3171   0.3180   0.3183   0.3194   0.3201
  0.3204   0.3212   0.3221   0.3232   0.3245   0.3249   0.3258   0.3266
  0.3276   0.3278   0.3292   0.3305   0.3306   0.3317   0.3326   0.3336
  0.3345   0.3350   0.3360   0.3368   0.3370   0.3391   0.3396   0.3403
  0.3411   0.3417   0.3429   0.3432   0.3439   0.3443   0.3449   0.3460
  0.3472   0.3475   0.3480   0.3487   0.3501   0.3508   0.3521   0.3529
  0.3539   0.3552   0.3558   0.3565   0.3575   0.3581   0.3587   0.3590
  0.3603   0.3617   0.3623   0.3626   0.3633   0.3646   0.3652   0.3665
  0.3674   0.3679   0.3685   0.3690   0.3705   0.3717   0.3723   0.3727
  0.3731   0.3749   0.3756   0.3760   0.3770   0.3777   0.3788   0.3793
  0.3806   0.3809   0.3820   0.3834   0.3840   0.3843   0.3853   0.3862
  0.3876   0.3879   0.3883   0.3907   0.3914   0.3921   0.3925   0.3932
  0.3936   0.3950   0.3954   0.3966   0.3975   0.3988   0.3989   0.3996
  0.4006   0.4022   0.4028   0.4032   0.4042   0.4050   0.4054   0.4070
  0.4073   0.4098   0.4100   0.4114   0.4119   0.4123   0.4140   0.4148
  0.4160   0.4161   0.4165   0.4176   0.4190   0.4203   0.4209   0.4216
  0.4222   0.4234   0.4244   0.4255   0.4264   0.4275   0.4286   0.4290
  0.4305   0.4319   0.4331   0.4340   0.4344   0.4356   0.4361   0.4386
  0.4397   0.4406   0.4421   0.4428   0.4441   0.4453   0.4461   0.4464
  0.4477   0.4500   0.4505   0.4527   0.4537   0.4545   0.4559   0.4572
  0.4584   0.4597   0.4612   0.4622   0.4641   0.4642   0.4649   0.4659
  0.4670   0.4689   0.4695   0.4721   0.4730   0.4737   0.4760   0.4762
  0.4768   0.4794   0.4822   0.4827   0.4840   0.4848   0.4849   0.4877
  0.4907   0.4922   0.4935   0.4954   0.4969   0.4984   0.4991   0.5005
  0.5021   0.5034   0.5059   0.5065   0.5078   0.5084   0.5099   0.5112
  0.5137   0.5170   0.5175   0.5198   0.5207   0.5226   0.5249   0.5291
  0.5297   0.5308   0.5321   0.5334   0.5335   0.5376   0.5389   0.5412
  0.5424   0.5432   0.5440   0.5459   0.5487   0.5512   0.5519   0.5537
  0.5564   0.5576   0.5600   0.5602   0.5632   0.5662   0.5667   0.5677
  0.5690   0.5710   0.5740   0.5752   0.5769   0.5785   0.5807   0.5820
  0.5833   0.5849   0.5858   0.5878   0.5895   0.5899   0.5922   0.5933
  0.5938   0.5944   0.5970   0.5975   0.5995   0.6004   0.6018   0.6023
  0.6035   0.6047   0.6057   0.6070   0.6083   0.6098   0.6107   0.6130
  0.6136   0.6162   0.6168   0.6181   0.6195   0.6204   0.6216   0.6225
  0.6245   0.6253   0.6267   0.6269   0.6281   0.6307   0.6308   0.6312
  0.6320   0.6329   0.6339   0.6354   0.6355   0.6366   0.6376   0.6377
  0.6395   0.6406   0.6416   0.6425   0.6430   0.6450   0.6466   0.6470
  0.6474   0.6484   0.6491   0.6511   0.6526   0.6535   0.6540   0.6547
  0.6549   0.6566   0.6586   0.6593   0.6604   0.6617   0.6625   0.6642
  0.6653   0.6663   0.6677   0.6691   0.6695   0.6702   0.6711   0.6725
  0.6737   0.6749   0.6754   0.6765   0.6768   0.6791   0.6804   0.6821
  0.6833   0.6836   0.6849   0.6860   0.6874   0.6884   0.6887   0.6894
  0.6908   0.6916   0.6922   0.6931   0.6948   0.6961   0.6977   0.6984
  0.6995   0.7011   0.7021   0.7035   0.7050   0.7057   0.7079   0.7099
  0.7102   0.7121   0.7127   0.7147   0.7150   0.7161   0.7169   0.7189
  0.7202   0.7208   0.7222   0.7229   0.7238   0.7248   0.7270   0.7298
  0.7300   0.7308   0.7325   0.7346   0.7354   0.7373   0.7383   0.7388
  0.7397   0.7400   0.7427   0.7433   0.7439   0.7451   0.7480   0.7490
  0.7510   0.7518   0.7532   0.7548   0.7555   0.7570   0.7590   0.7601
  0.7630   0.7632   0.7639   0.7662   0.7664   0.7692   0.7708   0.7717
  0.7721   0.7735   0.7740   0.7768   0.7783   0.7792   0.7800   0.7828
  0.7846   0.7865   0.7877   0.7901   0.7909   0.7925   0.7935   0.7949
  0.7966   0.7976   0.7987   0.7997   0.8020   0.8042   0.8047   0.8064
  0.8076   0.8081   0.8096   0.8105   0.8113   0.8134   0.8138   0.8154
  0.8185   0.8191   0.8199   0.8215   0.8228   0.8250   0.8282   0.8285
  0.8295   0.8298   0.8323   0.8328   0.8340   0.8343   0.8355   0.8388
  0.8399   0.8404   0.8418   0.8435   0.8443   0.8462   0.8475   0.8489
  0.8498   0.8512   0.8520   0.8533   0.8551   0.8563   0.8572   0.8585
  0.8592   0.8596   0.8605   0.8630   0.8643   0.8648   0.8662   0.8669
  0.8679   0.8687   0.8702   0.8710   0.8746   0.8749   0.8756   0.8775
  0.8791   0.8797   0.8802   0.8815   0.8824   0.8834   0.8855   0.8856
  0.8870   0.8887   0.8904   0.8919   0.8928   0.8937   0.8940   0.8949
  0.8964   0.8978   0.9000   0.9000   0.9018   0.9038   0.9060   0.9078
  0.9088   0.9095   0.9109   0.9123   0.9141   0.9154   0.9160   0.9180
  0.9188   0.9201   0.9214   0.9218   0.9226   0.9250   0.9261   0.9271
  0.9286   0.9295   0.9320   0.9322   0.9338   0.9353   0.9374   0.9384
  0.9388   0.9403   0.9404   0.9428   0.9435   0.9441   0.9453   0.9464
  0.9481   0.9493   0.9508   0.9525   0.9535   0.9556   0.9570   0.9574
  0.9581   0.9598   0.9605   0.9611   0.9618   0.9634   0.9662   0.9667
  0.9673   0.9682   0.9690   0.9699   0.9712   0.9714   0.9731   0.9735
  0.9756   0.9762   0.9772   0.9776   0.9782   0.9794   0.9805   0.9814
  0.9832   0.9839   0.9852   0.9868   0.9876   0.9890   0.9902   0.9913
  0.9920   0.9921   0.9944   0.9954   0.9959   0.9966   0.9984   0.9988
  0.9992   1.0008   1.0012   1.0024   1.0039   1.0048   1.0050   1.0059
  1.0080   1.0098   1.0112   1.0122   1.0129   1.0143   1.0158   1.0161
  1.0173   1.0179   1.0183   1.0204   1.0211   1.0224   1.0230   1.0240
  1.0260   1.0265   1.0281   1.0289   1.0301   1.0312   1.0327   1.0337
  1.0348   1.0356   1.0357   1.0364   1.0384   1.0389   1.0401   1.0414
  1.0425   1.0429   1.0458   1.0465   1.0477   1.0491   1.0505   1.0530
  1.0538   1.0562   1.0566   1.0574   1.0590   1.0611   1.0612   1.0640
  1.0648   1.0657   1.0669   1.0683   1.0698   1.0707   1.0732   1.0755
  1.0765   1.0776   1.0779   1.0789   1.0819   1.0830   1.0834   1.0853
  1.0869   1.0877   1.0893   1.0902   1.0911   1.0936   1.0950   1.0971
  1.0986   1.1001   1.1018   1.1040   1.1044   1.1050   1.1054   1.1066
  1.1071   1.1093   1.1121   1.1132   1.1141   1.1155   1.1173   1.1188
  1.1193   1.1212   1.1225   1.1233   1.1250   1.1266   1.1275   1.1278
  1.1295   1.1309   1.1320   1.1324   1.1339   1.1359   1.1371   1.1372
  1.1382   1.1394   1.1411   1.1416   1.1434   1.1439   1.1457   1.1475
  1.1485   1.1508   1.1512   1.1525   1.1537   1.1546   1.1570   1.1585
  1.1588   1.1600   1.1617   1.1619   1.1624   1.1632   1.1655   1.1666
  1.1688   1.1710   1.1722   1.1734   1.1738   1.1765   1.1784   1.1797
  1.1803   1.1822   1.1827   1.1849   1.1864   1.1882   1.1896   1.1925
  1.1932   1.1945   1.1959   1.1976   1.1982   1.1999   1.2012   1.2031
  1.2061   1.2066   1.2087   1.2126   1.2132   1.2159   1.2164   1.2185
  1.2194   1.2197   1.2218   1.2246   1.2270   1.2286   1.2303   1.2315
  1.2338   1.2367   1.2387   1.2416   1.2421   1.2440   1.2451   1.2494
  1.2505   1.2523   1.2537   1.2548   1.2588   1.2601   1.2624   1.2635
  1.2665   1.2701   1.2711   1.2730   1.2755   1.2770   1.2786   1.2821
  1.2836   1.2845   1.2860   1.2878   1.2905   1.2936   1.2942   1.2973
  1.2995   1.3015   1.3038   1.3059   1.3067   1.3124   1.3140   1.3153
  1.3189   1.3212   1.3240   1.3247   1.3259   1.3285   1.3299   1.3309
  1.3324   1.3354   1.3360   1.3373   1.3381   1.3406   1.3416   1.3429
  1.3437   1.3454   1.3475   1.3491   1.3509   1.3541   1.3559   1.3567
  1.3586   1.3588   1.3614   1.3627   1.3647   1.3654   1.3675   1.3690
  1.3708   1.3717   1.3752   1.3766   1.3773   1.3788   1.3805   1.3819
  1.3834   1.3865   1.3870   1.3884   1.3894   1.3906   1.3926   1.3940
  1.3944   1.3956   1.3985   1.3989   1.3997   1.4012   1.4021   1.4038
  1.4062   1.4083   1.4085   1.4098   1.4122   1.4133   1.4158   1.4176
  1.4185   1.4188   1.4209   1.4216   1.4230   1.4239   1.4260   1.4268
  1.4286   1.4292   1.4317   1.4331   1.4348   1.4352   1.4363   1.4375
  1.4391   1.4406   1.4410   1.4433   1.4449   1.4474   1.4493   1.4505
  1.4520   1.4527   1.4551   1.4570   1.4577   1.4601   1.4607   1.4641
  1.4671   1.4682   1.4693   1.4724   1.4743   1.4745   1.4757   1.4771
  1.4786   1.4814   1.4828   1.4858   1.4869   1.4883   1.4901   1.4934
  1.4937   1.4973   1.4980   1.5001   1.5010   1.5022   1.5057   1.5081
  1.5090   1.5107   1.5115   1.5124   1.5167   1.5191   1.5214   1.5239
  1.5262   1.5297   1.5322   1.5329   1.5355   1.5416   1.5459   1.5464
  1.5490   1.5552   1.5556   1.5581   1.5621   1.5650   1.5683   1.5694
  1.5727   1.5807   1.5833   1.5875   1.5919   1.5951   1.6011   1.6047
  1.6072   1.6138   1.6168   1.6211   1.6236   1.6261   1.6307   1.6340
  1.6386   1.6418   1.6436   1.6466   1.6481   1.6525   1.6533   1.6548
  1.6561   1.6580   1.6590   1.6616   1.6639   1.6675   1.6690   1.6705
  1.6720   1.6733   1.6748   1.6755   1.6770   1.6778   1.6802   1.6809
  1.6816   1.6825   1.6844   1.6850   1.6860   1.6876   1.6886   1.6890
  1.6901   1.6911   1.6914   1.6931   1.6948   1.6960   1.6977   1.6991
  1.6991   1.7005   1.7020   1.7026   1.7050   1.7059   1.7065   1.7075
  1.7096   1.7109   1.7114   1.7142   1.7154   1.7160   1.7178   1.7191
  1.7198   1.7208   1.7216   1.7230   1.7249   1.7253   1.7271   1.7279
  1.7291   1.7299   1.7304   1.7315   1.7332   1.7352   1.7380   1.7395
  1.7417   1.7426   1.7458   1.7472   1.7491   1.7511   1.7522   1.7528
  1.7534   1.7560   1.7564   1.7575   1.7601   1.7605   1.7619   1.7632
  1.7643   1.7659   1.7681   1.7696   1.7717   1.7738   1.7749   1.7765
  1.7808   1.7821   1.7832   1.7865   1.7875   1.7902   1.7912   1.7931
  1.7950   1.7981   1.7994   1.8023   1.8058   1.8077   1.8107   1.8118
  1.8167   1.8185   1.8251   1.8283   1.8299   1.8300   1.8334   1.8355
  1.8365   1.8412   1.8423   1.8474   1.8510   1.8511   1.8531   1.8551
  1.8604   1.8622   1.8645   1.8680   1.8696   1.8703   1.8726   1.8755
  1.8758   1.8774   1.8803   1.8821   1.8825   1.8851   1.8861   1.8869
  1.8888   1.8921   1.8933   1.8945   1.8953   1.8964   1.8978   1.8993
  1.8998   1.9010   1.9019   1.9030   1.9033   1.9041   1.9044   1.9059
  1.9060   1.9068   1.9089   1.9093   1.9117   1.9127   1.9133   1.9143
  1.9154   1.9166   1.9182   1.9193   1.9205   1.9214   1.9227   1.9239
  1.9263   1.9284   1.9307   1.9323   1.9349   1.9376   1.9393   1.9412
  1.9418   1.9430   1.9458   1.9486   1.9488   1.9522   1.9551   1.9588
  1.9602   1.9638   1.9659   1.9706   1.9723   1.9753   1.9801   1.9880
  1.9882   1.9934   2.0011   2.0070   2.0162   2.0179   2.0251   2.0304
  2.0382   2.0398   2.0402   2.0470   2.0484   2.0496   2.0515   2.0561
  2.0569   2.0576   2.0587   2.0600   2.0609   2.0619   2.0630   2.0642
  2.0651   2.0661   2.0671   2.0708   2.0713   2.0723   2.0754   2.0762
  2.0768   2.0780   2.0791   2.0821   2.0839   2.0855   2.0868   2.0877
  2.0895   2.0913   2.0915   2.0923   2.0939   2.0941   2.0963   2.0971
  2.0977   2.0981   2.0999   2.1029   2.1049   2.1085   2.1089   2.1111
  2.1147   2.1149   2.1174   2.1191   2.1205   2.1282   2.1335   2.1345
  2.1394   2.1402   2.1430   2.1452   2.1586   2.1610   2.1621   2.1663
  2.1695   2.1714   2.1724   2.1859   2.1867   2.1900   2.1924   2.1953
  2.1969   2.1988   2.1993   2.2017   2.2024   2.2030   2.2049   2.2058
  2.2078   2.2082   2.2097   2.2105   2.2120   2.2146   2.2157   2.2186
  2.2196   2.2231   2.2241   2.2260   2.2272   2.2287   2.2292   2.2310
  2.2320   2.2338   2.2347   2.2351   2.2375   2.2383   2.2395   2.2412
  2.2427   2.2436   2.2444   2.2460   2.2480   2.2490   2.2511   2.2515
  2.2517   2.2521   2.2540   2.2545   2.2550   2.2552   2.2561   2.2567
  2.2569   2.2581   2.2594   2.2603   2.2614   2.2619   2.2630   2.2639
  2.2651   2.2662   2.2669   2.2675   2.2687   2.2692   2.2703   2.2711
  2.2717   2.2725   2.2744   2.2747   2.2756   2.2762   2.2788   2.2794
  2.2805   2.2807   2.2815   2.2828   2.2836   2.2848   2.2866   2.2879
  2.2888   2.2891   2.2902   2.2913   2.2920   2.2929   2.2942   2.2946
  2.2951   2.2964   2.2975   2.2998   2.3003   2.3018   2.3024   2.3029
  2.3039   2.3055   2.3072   2.3075   2.3080   2.3107   2.3111   2.3115
  2.3126   2.3149   2.3170   2.3177   2.3193   2.3212   2.3215   2.3233
  2.3246   2.3252   2.3268   2.3275   2.3290   2.3302   2.3319   2.3329
  2.3350   2.3364   2.3380   2.3391   2.3421   2.3430   2.3440   2.3466
  2.3476   2.3499   2.3526   2.3539   2.3543   2.3563   2.3568   2.3584
  2.3592   2.3609   2.3623   2.3650   2.3658   2.3686   2.3700   2.3719
  2.3733   2.3756   2.3772   2.3789   2.3813   2.3837   2.3856   2.3870
  2.3884   2.3905   2.3952   2.4011   2.4268   2.4358   2.4870   2.4960
  2.5204   2.5553   2.6531   2.6987   2.7260   2.7716   2.8020   2.8031
  2.8183   2.8231   2.8277   2.8290   2.8322   2.8354   2.8391   2.8403
  2.8424   2.8429   2.8455   2.8472   2.8491   2.8532   2.8546   2.8551
  2.8576   2.8594   2.8608   2.8623   2.8644   2.8695   2.8733   2.8776
  2.8835   2.8865   2.8891   2.8918   2.8990   2.9320   3.0621   3.2193
  3.9399   3.9524   3.9546   3.9570   3.9579   3.9601   3.9629   3.9655
  3.9677   3.9699   3.9735   3.9766   3.9782   3.9845   3.9852   3.9881
  3.9892   3.9913   3.9924   3.9950   3.9994   4.0018   4.0047   4.0054
  4.0111   4.0164   4.0174   4.1842   4.2039   4.2106   4.2137   4.2210
  4.2275   4.2331   4.2364   4.2389   4.2403   4.2441   4.2468   4.2477
  4.2519   4.2536   4.2568   4.2596   4.2611   4.2639   4.2658   4.2715
  4.2735   4.2757   4.2784   4.2794   4.2816   4.2841   4.2861   4.2885
  4.2886   4.2918   4.2922   4.2939   4.2977   4.3015   4.3033   4.3058
  4.3064   4.3091   4.3108   4.3136   4.3164   4.3197   4.3214   4.3253
  4.3281   4.3300   4.3319   4.3338   4.3359   4.3409   4.3429   4.3451
  4.3484   4.3544   4.3576   4.3590   4.3622   4.3638   4.3692   4.3759
  4.3827   4.3876   4.3907   4.3957   4.4031   4.4035   4.4087   4.4178
  4.4199   4.4225   4.4271   4.4352   4.4416   4.4525   4.4700   4.4722
  4.4954   4.5051   4.5107   4.5233   4.5260   4.5432   4.5439   4.5679
  4.5934   4.6862   4.7057   4.7236   4.8561
 --------------------------------------------------------------
 
          Ground-State Mulliken Net Atomic Charges

     Atom                 Charge (a.u.)
  ----------------------------------------
      1 C                    -0.130498
      2 C                    -0.386754
      3 C                    -0.645050
      4 C                    -0.254278
      5 C                    -0.424503
      6 C                    -0.473813
      7 H                     0.215295
      8 H                     0.203215
      9 H                     0.195510
     10 H                     0.208780
     11 H                     0.171869
     12 H                     0.215068
     13 H                     0.238788
     14 H                     0.195548
     15 H                     0.201428
     16 H                     0.231751
     17 H                     0.202651
     18 N                    -0.415878
     19 H                     0.468023
     20 C                     0.309405
     21 H                     0.147946
     22 O                    -0.474504
     23 C                    -0.668710
     24 H                     0.240355
     25 H                     0.219099
     26 H                     0.324117
     27 S                     0.457256
     28 C                    -0.731084
     29 H                     0.277915
     30 H                     0.291016
     31 H                     0.239288
     32 O                    -0.619414
     33 C                    -1.001575
     34 H                     0.274222
     35 H                     0.255780
     36 H                     0.268324
     37 S                     1.059315
     38 C                    -0.971545
     39 H                     0.304201
     40 H                     0.254008
     41 H                     0.227775
     42 O                    -0.713218
     43 C                    -0.940787
     44 H                     0.304640
     45 H                     0.246687
     46 H                     0.258850
     47 S                     0.725541
     48 C                    -0.816845
     49 H                     0.258462
     50 H                     0.234483
     51 H                     0.263777
     52 O                    -0.645321
     53 C                    -0.836853
     54 H                     0.251968
     55 H                     0.245579
     56 H                     0.262873
     57 S                     0.946938
     58 C                    -0.804356
     59 H                     0.239578
     60 H                     0.251775
     61 H                     0.267755
     62 O                    -0.748878
     63 C                    -0.890550
     64 H                     0.237832
     65 H                     0.300209
     66 H                     0.254419
     67 S                     0.887362
     68 C                    -0.870212
     69 H                     0.254116
     70 H                     0.257373
     71 H                     0.249360
     72 O                    -0.716321
     73 C                    -1.049348
     74 H                     0.250088
     75 H                     0.247417
     76 H                     0.245384
     77 S                     1.216260
     78 C                    -0.831348
     79 H                     0.235383
     80 H                     0.278478
     81 H                     0.260976
     82 O                    -0.742177
     83 C                    -0.893227
     84 H                     0.263934
     85 H                     0.231037
     86 H                     0.260771
     87 S                     0.898518
     88 C                    -0.838956
     89 H                     0.298414
     90 H                     0.315317
     91 H                     0.269026
     92 O                    -0.656160
     93 C                    -0.867435
     94 H                     0.244893
     95 H                     0.263419
     96 H                     0.293054
     97 S                     0.841639
     98 C                    -0.774107
     99 H                     0.240810
    100 H                     0.248606
    101 H                     0.244140
    102 O                    -0.708264
    103 C                    -0.829185
    104 H                     0.289033
    105 H                     0.233618
    106 H                     0.250151
    107 S                     0.698113
    108 C                    -0.689824
    109 H                     0.239006
    110 H                     0.260566
    111 H                     0.249211
    112 O                    -0.655568
    113 C                    -1.169217
    114 H                     0.280279
    115 H                     0.281913
    116 H                     0.229235
    117 S                     1.347862
    118 C                    -1.151684
    119 H                     0.266496
    120 H                     0.317676
    121 H                     0.239208
    122 O                    -0.649596
    123 C                    -0.843252
    124 H                     0.248602
    125 H                     0.253205
    126 H                     0.242222
    127 S                     0.879050
    128 C                    -0.854811
    129 H                     0.266292
    130 H                     0.249746
    131 H                     0.256718
    132 O                    -0.674399
    133 C                    -0.587455
    134 H                     0.251743
    135 H                     0.275795
    136 H                     0.260772
    137 S                     0.190231
    138 C                    -0.563295
    139 H                     0.260609
    140 H                     0.263497
    141 H                     0.226801
    142 O                    -0.606069
    143 C                    -0.867915
    144 H                     0.249662
    145 H                     0.277687
    146 H                     0.247924
    147 S                     0.799970
    148 C                    -0.795177
    149 H                     0.275693
    150 H                     0.257261
    151 H                     0.255680
    152 O                    -0.696922
    153 C                    -0.887762
    154 H                     0.218167
    155 H                     0.260995
    156 H                     0.270158
    157 S                     1.139114
    158 C                    -0.996805
    159 H                     0.218631
    160 H                     0.251499
    161 H                     0.277581
    162 O                    -0.744409
    163 C                    -0.772438
    164 H                     0.260311
    165 H                     0.244489
    166 H                     0.263335
    167 S                     0.938159
    168 C                    -0.986678
    169 H                     0.238914
    170 H                     0.242549
    171 H                     0.260530
    172 O                    -0.699103
    173 C                    -1.047471
    174 H                     0.198194
    175 H                     0.286391
    176 H                     0.312067
    177 S                     0.897459
    178 C                    -0.853291
    179 H                     0.222723
    180 H                     0.255079
    181 H                     0.325710
    182 O                    -0.689841
    183 C                    -0.879010
    184 H                     0.260912
    185 H                     0.244876
    186 H                     0.256415
    187 S                     0.853197
    188 C                    -0.895625
    189 H                     0.250685
    190 H                     0.257807
    191 H                     0.252965
    192 O                    -0.640396
    193 C                    -0.913718
    194 H                     0.243076
    195 H                     0.254716
    196 H                     0.285854
    197 S                     0.963462
    198 C                    -0.828410
    199 H                     0.263562
    200 H                     0.252016
    201 H                     0.240889
    202 O                    -0.745335
    203 C                    -0.990793
    204 H                     0.251752
    205 H                     0.264956
    206 H                     0.299874
    207 S                     1.096362
    208 C                    -0.969376
    209 H                     0.248175
    210 H                     0.248718
    211 H                     0.245690
    212 O                    -0.705969
    213 C                    -0.882181
    214 H                     0.230500
    215 H                     0.256632
    216 H                     0.265093
    217 S                     0.922953
    218 C                    -0.746660
    219 H                     0.234957
    220 H                     0.255854
    221 H                     0.285819
    222 O                    -0.683506
    223 C                    -0.846055
    224 H                     0.241207
    225 H                     0.250757
    226 H                     0.286263
    227 S                     0.796962
    228 C                    -0.797012
    229 H                     0.273820
    230 H                     0.283901
    231 H                     0.234130
    232 O                    -0.688498
    233 C                    -0.753244
    234 H                     0.217683
    235 H                     0.264413
    236 H                     0.257882
    237 S                     0.920206
    238 C                    -1.127999
    239 H                     0.265988
    240 H                     0.301015
    241 H                     0.268883
    242 O                    -0.689320
    243 C                    -1.147264
    244 H                     0.242178
    245 H                     0.281104
    246 H                     0.264809
    247 S                     1.253734
    248 C                    -1.095287
    249 H                     0.265791
    250 H                     0.328410
    251 H                     0.287327
    252 O                    -0.679873
    253 C                    -0.849463
    254 H                     0.231559
    255 H                     0.245196
    256 H                     0.268099
    257 S                     0.941195
    258 C                    -1.037845
    259 H                     0.271131
    260 H                     0.240282
    261 H                     0.305608
    262 O                    -0.695739
    263 C                    -1.127799
    264 H                     0.254737
    265 H                     0.282443
    266 H                     0.285750
    267 S                     0.999364
    268 C                    -0.915440
    269 H                     0.297715
    270 H                     0.269580
    271 H                     0.216994
    272 O                    -0.678910
    273 C                    -0.827889
    274 H                     0.275701
    275 H                     0.267891
    276 H                     0.247245
    277 S                     0.853742
    278 C                    -0.873874
    279 H                     0.263921
    280 H                     0.241354
    281 H                     0.303673
    282 O                    -0.712218
    283 C                    -0.886050
    284 H                     0.265165
    285 H                     0.245485
    286 H                     0.256635
    287 S                     0.689828
    288 C                    -0.735534
    289 H                     0.249444
    290 H                     0.242084
    291 H                     0.269570
    292 O                    -0.653873
  ----------------------------------------
  Sum of atomic charges =     0.000000

 -----------------------------------------------------------------
                    Cartesian Multipole Moments
 -----------------------------------------------------------------
    Charge (ESU x 10^10)
                 0.0000
    Dipole Moment (Debye)
         X      23.3936      Y       8.5968      Z      -2.9131
       Tot      25.0929
    Quadrupole Moments (Debye-Ang)
        XX     105.4801     XY     672.0540     YY    -822.3053
        XZ     601.0674     YZ     191.4471     ZZ   -1192.0267
    Octopole Moments (Debye-Ang^2)
       XXX  -25398.8333    XXY   12284.0915    XYY   -8941.1028
       YYY  -42307.5956    XXZ    1808.7892    XYZ   18187.2177
       YYZ  -25612.2374    XZZ   -7067.9335    YZZ  -10564.2405
       ZZZ  -98256.0339
    Hexadecapole Moments (Debye-Ang^3)
      XXXX ************   XXXY  -43238.8970   XXYY -221673.7366
      XYYY -752035.0628   YYYY ************   XXXZ -742849.9157
      XXYZ  337269.6083   XYYZ -292735.5210   YYYZ ************
      XXZZ -501024.5216   XYZZ  177469.0570   YYZZ ************
      XZZZ ************   YZZZ ************   ZZZZ ************
 -----------------------------------------------------------------
Archival summary:
[...]
    2   0.0069396   0.0132112   0.0278154   0.0013539  -0.0434645  -0.0000900
    3   0.0037480   0.0224375  -0.0170246   0.0156631   0.0325126  -0.0026101
          139         140         141         142         143         144
    1   0.0159754  -0.0017080   0.0261009  -0.0516603  -0.0070422  -0.0139364
    2  -0.0215282   0.0221335   0.0144410   0.0062043  -0.0047335   0.0071201
    3  -0.0162113  -0.0223198   0.0195691  -0.0972912  -0.0013642  -0.0321295
          145         146         147         148         149         150
    1   0.0145669  -0.0262231   0.0457101   0.0030339   0.0124093   0.0092542
    2  -0.0201897  -0.0053272   0.0169921  -0.0052587  -0.0346169   0.0300191
    3   0.0034743   0.0205352  -0.0222707   0.0111400   0.0047234   0.0187220
          151         152         153         154         155         156
    1  -0.0312767  -0.0907299  -0.0006558   0.0319089  -0.0230786  -0.0038833
    2  -0.0021573   0.0647410   0.0079896   0.0096864   0.0193663   0.0028640
    3   0.0117464   0.0034676   0.0010126  -0.0041639  -0.0120730   0.0309723
          157         158         159         160         161         162
    1   0.0318778  -0.0015816   0.0307785  -0.0013309  -0.0327667  -0.1097212
    2  -0.0371884   0.0027955   0.0116213  -0.0245763   0.0109341   0.0009576
    3   0.0148837  -0.0078354  -0.0157181  -0.0185097   0.0014285   0.0167735
          163         164         165         166         167         168
    1   0.0064320   0.0099432   0.0115665   0.0226335  -0.0331194   0.0024382
    2   0.0031441   0.0185890  -0.0222794   0.0124168  -0.0298583  -0.0015383
    3  -0.0019743   0.0234081   0.0183876  -0.0223258   0.0428630  -0.0049607
          169         170         171         172         173         174
    1  -0.0269946   0.0215241   0.0072805  -0.0250783  -0.0048810   0.0307221
    2  -0.0079718   0.0072411  -0.0340548   0.1010259   0.0065567   0.0061458
    3  -0.0108080  -0.0162312  -0.0005919  -0.0356042   0.0077833   0.0088487
          175         176         177         178         179         180
    1  -0.0151703  -0.0053869   0.0171358  -0.0095540  -0.0196814  -0.0157271
    2   0.0297436   0.0048279   0.0010234   0.0022444   0.0290478  -0.0245300
    3  -0.0118763   0.0352889  -0.0528046   0.0040446  -0.0164246  -0.0206417
          181         182         183         184         185         186
    1  -0.0052607   0.0227056  -0.0031739   0.0188711  -0.0122066  -0.0208712
    2   0.0158395  -0.0710509  -0.0042466  -0.0215401   0.0042667  -0.0105472
    3   0.0323774   0.0786799   0.0040313   0.0059333   0.0332407  -0.0188356
          187         188         189         190         191         192
    1   0.0496546  -0.0063602  -0.0282281   0.0031986  -0.0038843  -0.0265521
    2   0.0201307   0.0049331  -0.0118810   0.0131968   0.0202211  -0.0443870
    3   0.0127976   0.0011235  -0.0110109   0.0315443  -0.0227842  -0.0975199
          193         194         195         196         197         198
    1   0.0009329  -0.0131762  -0.0180729   0.0277022   0.0048300   0.0064419
    2  -0.0043239  -0.0338503   0.0234051   0.0043736   0.0612208  -0.0059538
    3  -0.0064859   0.0011676  -0.0037997  -0.0184809   0.0231002  -0.0017840
          199         200         201         202         203         204
    1   0.0248654  -0.0018466   0.0114640  -0.0719374  -0.0047457  -0.0006360
    2   0.0117526  -0.0113369  -0.0322559  -0.0677340   0.0027471  -0.0130844
    3  -0.0181591   0.0299458  -0.0178839   0.0499608   0.0058435   0.0352002
          205         206         207         208         209         210
    1   0.0201280  -0.0232854  -0.0412258   0.0062708   0.0104898   0.0197981
    2   0.0197753   0.0321951  -0.0368667  -0.0004906  -0.0208711   0.0248969
    3  -0.0018759   0.0065956   0.0106827  -0.0001151  -0.0213698   0.0011699
          211         212         213         214         215         216
    1  -0.0030607   0.0070844  -0.0078821  -0.0075232  -0.0144019  -0.0150909
    2  -0.0240678   0.0680866  -0.0000779  -0.0164448   0.0253110  -0.0150908
    3   0.0204032  -0.0850554  -0.0025650   0.0272076  -0.0064688  -0.0248947
          217         218         219         220         221         222
    1   0.0288719  -0.0002146  -0.0042912   0.0300972  -0.0179481   0.0099146
    2  -0.0431530   0.0055530   0.0043635   0.0130740   0.0186485   0.0278075
    3   0.0258057   0.0003045   0.0341403   0.0044112  -0.0008370  -0.1061763
          223         224         225         226         227         228
    1  -0.0032439  -0.0148379  -0.0194508   0.0106346  -0.0218406  -0.0000761
    2  -0.0049674   0.0112414  -0.0131329  -0.0317435   0.0504212  -0.0083505
    3   0.0033650   0.0272691  -0.0266684   0.0027939  -0.0174464  -0.0062542
          229         230         231         232         233         234
    1   0.0099561  -0.0165985   0.0264309   0.0879938   0.0043372   0.0339385
    2  -0.0334112   0.0034508   0.0058431  -0.0083186   0.0001120   0.0023038
    3   0.0019731  -0.0314925  -0.0090080   0.0663432   0.0070284  -0.0037408
          235         236         237         238         239         240
    1  -0.0094554   0.0055778   0.0060780   0.0022163   0.0297290  -0.0009856
    2   0.0293177  -0.0308498  -0.0411266   0.0091871   0.0190311   0.0124336
    3   0.0150609   0.0120166  -0.0324316   0.0033157  -0.0063145  -0.0285745
          241         242         243         244         245         246
    1  -0.0018980  -0.0857251  -0.0017021   0.0322477  -0.0189822  -0.0158976
    2   0.0197148   0.0187899  -0.0059771  -0.0095802  -0.0247141   0.0316549
    3   0.0337194   0.0687170  -0.0098487  -0.0081568  -0.0053507  -0.0037642
          247         248         249         250         251         252
    1   0.0478559  -0.0093525  -0.0172070  -0.0351499   0.0168601  -0.0558972
    2  -0.0038821  -0.0079306   0.0116908   0.0016403  -0.0315168   0.0953213
    3   0.0228650  -0.0002468   0.0232725  -0.0117429   0.0017034  -0.0043470
          253         254         255         256         257         258
    1  -0.0015345   0.0296686  -0.0211467   0.0026642   0.0420505  -0.0074365
    2  -0.0026970   0.0157727  -0.0023391  -0.0300884   0.0096181   0.0056890
    3   0.0092936   0.0029372   0.0291347  -0.0011534  -0.0447314   0.0051940
          259         260         261         262         263         264
    1  -0.0229651   0.0203586  -0.0144272  -0.0802598   0.0108831   0.0027664
    2  -0.0078647   0.0259439   0.0043085  -0.0746073   0.0003928   0.0330970
    3   0.0220271   0.0047463  -0.0236784  -0.0192566  -0.0041308   0.0002822
          265         266         267         268         269         270
    1   0.0168815  -0.0114114  -0.0485893   0.0030073  -0.0212870   0.0245381
    2  -0.0180819  -0.0114481   0.0265939   0.0015103   0.0133898  -0.0171254
    3   0.0241982  -0.0320874  -0.0285238   0.0053166   0.0145046   0.0121950
          271         272         273         274         275         276
    1   0.0076309   0.0043499  -0.0005094  -0.0227091   0.0127120   0.0261243
    2   0.0331363  -0.1058838   0.0004139   0.0208261  -0.0253820   0.0088988
    3   0.0055057   0.0202420   0.0116237   0.0165430   0.0143766  -0.0138606
          277         278         279         280         281         282
    1  -0.0124404  -0.0021161  -0.0149294  -0.0163978   0.0002313   0.0646168
    2   0.0376693  -0.0043210   0.0191919  -0.0155016  -0.0339734  -0.0876987
    3  -0.0392507   0.0084722   0.0212932  -0.0210119   0.0117812  -0.0203044
          283         284         285         286         287         288
    1  -0.0022050   0.0239389   0.0028635  -0.0196276   0.0340921  -0.0053113
    2   0.0025276   0.0163081  -0.0216514   0.0229445  -0.0363468  -0.0019983
    3  -0.0054767  -0.0025906  -0.0294312  -0.0123633   0.0206204  -0.0011162
          289         290         291         292
    1  -0.0260154  -0.0123755  -0.0162509  -0.0226044
    2   0.0231044  -0.0363896   0.0100775   0.0993656
    3  -0.0099816  -0.0023916   0.0222906   0.0548519
  --- DONE ESP SUMMARY ---
Archival summary:
1\1\n0072.mhg0\SP\ProcedureUnspecified\6-31+G*\272754h22\ymao\FriMar1210:52:002021FriMar1210:52:002021\0\\#,ProcedureUnspecified,6-31+G*,\\0,1\S\O,1,1.49751\C,1,1.8061,2,101.251\H,3,1.09294,1,109.79,2,-38.0071,0\H,3,1.09328,1,116.642,2,74.9792,0\H,3,1.09361,1,117.644,2,-158.966,0\C,1,1.80729,2,104.229,3,-96.3709,0\H,7,1.09291,1,105.802,2,28.526,0\H,7,1.093,1,110.578,2,-86.0132,0\H,7,1.09311,1,103.911,2,147.453,0\H,10,2.13543,7,139.233,1,-160.128,0\C,11,1.09341,10,148.229,7,-175.461,0\H,12,1.09275,11,108.882,10,-127.945,0\H,12,1.09335,11,103.321,10,111.067,0\S,12,1.8067,11,111.474,10,-10.0509,0\O,15,1.49706,12,102.031,11,56.6923,0\C,15,1.80702,12,89.5041,11,168.642,0\H,17,1.09258,15,102.307,12,-148.469,0\H,17,1.09267,15,109.032,12,-30.2607,0\H,17,1.09363,15,110.809,12,94.241,0\H,19,2.29494,17,108.018,15,-126.463,0\C,21,1.09367,19,94.1001,17,122.851,0\H,22,1.09291,21,105.818,19,-51.3599,0\H,22,1.09331,21,109.594,19,64.017,0\S,22,1.80601,21,109.856,19,-170.288,0\O,25,1.49714,22,102.179,21,-172.035,0\C,25,1.80766,22,94.0511,21,-68.7308,0\H,27,1.09225,25,106.571,22,-172.981,0\H,27,1.09291,25,109.778,22,65.585,0\H,27,1.09308,25,111.578,22,-55.6997,0\H,2,2.35696,1,109.73,3,-19.0567,0\C,31,1.09219,2,164.628,1,-146.212,0\H,32,1.09347,31,111.232,2,-174.438,0\H,32,1.09364,31,105.251,2,-57.065,0\S,32,1.80748,31,114.005,2,55.9526,0\O,35,1.49679,32,99.781,31,-160.365,0\C,35,1.8062,32,100.706,31,-57.1957,0\H,37,1.0925,35,109.416,32,168.072,0\H,37,1.09296,35,99.2395,32,-70.1609,0\H,37,1.09321,35,110.882,32,47.6269,0\H,40,2.3344,37,105.913,35,-94.1494,0\C,41,1.09307,40,162.933,37,28.3559,0\H,42,1.09278,41,107.086,40,-158.836,0\H,42,1.09289,41,108.932,40,85.7516,0\S,42,1.80749,41,113.333,40,-41.5539,0\O,45,1.497,42,102.895,41,-59.6983,0\C,45,1.80748,42,100.379,41,-167.733,0\H,47,1.09266,45,117.741,42,-80.3519,0\H,47,1.09335,45,102.179,42,36.9336,0\H,47,1.09359,45,108.194,42,152.082,0\H,24,2.39848,22,134.749,21,-133.423,0\C,51,1.09212,24,113.367,22,-55.6617,0\H,52,1.09267,51,110.937,24,-5.39966,0\H,52,1.09315,51,116.378,24,-132.655,0\S,52,1.80678,51,108.218,24,117.797,0\O,55,1.49714,52,100.65,51,83.5073,0\C,55,1.80756,52,94.6834,51,-174.94,0\H,57,1.09229,55,112.374,52,66.5343,0\H,57,1.09266,55,106.816,52,-171.533,0\H,57,1.09372,55,108.178,52,-61.7362,0\Gh,58,1.93775,57,120.03,55,107.377,0\Gh,61,1.09703,58,159.301,57,-56.0439,0\Gh,62,1.09702,61,108.798,58,-88.4791,0\Gh,62,1.53683,61,110.072,58,29.6136,0\Gh,64,1.09678,62,109.657,61,-161.372,0\Gh,64,1.09726,62,108.076,61,-46.599,0\Gh,62,1.53806,61,108.449,58,162.101,0\Gh,67,1.09608,62,103.312,61,158.426,0\Gh,67,1.09652,62,107.877,61,38.9637,0\Gh,67,1.53728,62,110.646,61,-83.1291,0\Gh,70,1.09693,67,114.083,62,-158.974,0\Gh,70,1.09757,67,108.998,62,81.7521,0\Gh,70,1.53829,67,114.037,62,-39.1553,0\Gh,73,1.09619,70,109.636,67,167.161,0\Gh,73,1.09746,70,107.866,67,-73.4724,0\Gh,73,1.53729,70,116.86,67,48.3068,0\Gh,76,1.09624,73,107.171,70,63.0138,0\Gh,76,1.46166,73,109.348,70,175.265,0\Gh,78,1.01204,76,118.39,73,85.958,0\Gh,78,1.3793,76,120.704,73,-87.7908,0\Gh,80,1.10484,78,113.431,76,175.574,0\Gh,80,1.21859,78,125.408,76,-10.4999,0\H,81,2.186,80,113.977,78,112.461,0\C,83,1.09291,81,97.8577,80,101.885,0\H,84,1.09264,83,105.497,81,-65.4541,0\H,84,1.09321,83,115.572,81,61.1584,0\S,84,1.8077,83,111.927,81,-179.708,0\O,87,1.49713,84,100.991,83,151.079,0\C,87,1.80658,84,98.0025,83,45.2005,0\H,89,1.09286,87,108.48,84,-95.9823,0\H,89,1.09303,87,106.986,84,25.2593,0\H,89,1.09356,87,110.109,84,146.816,0\H,65,2.31611,64,105.19,62,97.6957,0\C,93,1.09221,65,116.642,64,-133.419,0\H,94,1.09306,93,109.727,65,160.359,0\H,94,1.0934,93,107.405,65,27.8414,0\S,94,1.80712,93,105.708,65,-78.3799,0\O,97,1.49702,94,101.198,93,-176.243,0\C,97,1.80657,94,92.0672,93,-68.9328,0\H,99,1.09279,97,108.02,94,-47.6942,0\H,99,1.0932,97,111.105,94,70.0955,0\H,99,1.09393,97,107.285,94,-162.107,0\H,69,2.3283,67,106.857,62,66.1451,0\C,103,1.09334,69,136.592,67,144.71,0\H,104,1.09273,103,112.598,69,-176.729,0\H,104,1.09345,103,113.487,69,-51.5642,0\S,104,1.8067,103,109.367,69,66.0627,0\O,107,1.49681,104,104.918,103,173.055,0\C,107,1.80713,104,96.2941,103,65.6246,0\H,109,1.09261,107,103.721,104,163.287,0\H,109,1.09263,107,105.159,104,48.9498,0\H,109,1.09278,107,112.827,104,-72.1095,0\H,105,2.14262,104,120.873,103,122.675,0\C,113,1.09205,105,102.618,104,-142.518,0\H,114,1.09269,113,109.2,105,-166.62,0\H,114,1.09321,113,113.91,105,-34.3779,0\S,114,1.80733,113,107.763,105,76.7586,0\O,117,1.49701,114,105.128,113,-79.2346,0\C,117,1.80746,114,103.365,113,175.549,0\H,119,1.09225,117,105.18,114,37.6511,0\H,119,1.09292,117,116.184,114,-74.6506,0\H,119,1.09324,117,108.169,114,158.439,0\H,120,2.10865,119,160.814,117,80.0853,0\C,123,1.09338,120,111.633,119,5.59093,0\H,124,1.09264,123,108.593,120,-3.90169,0\H,124,1.09297,123,102.217,120,108.722,0\S,124,1.8068,123,116.754,120,-129.813,0\O,127,1.49735,124,101.418,123,11.0585,0\C,127,1.80706,124,98.4607,123,115.723,0\H,129,1.09284,127,112.273,124,74.7149,0\H,129,1.09284,127,107.742,124,-169.02,0\H,129,1.0934,127,106.492,124,-40.7049,0\H,68,2.35557,67,157.394,62,90.8022,0\C,133,1.09259,68,133.508,67,176.643,0\H,134,1.09268,133,109.753,68,-25.0401,0\H,134,1.09331,133,108.121,68,102.812,0\S,134,1.80677,133,103.413,68,-136.047,0\O,137,1.4975,134,103.284,133,56.6467,0\C,137,1.80679,134,100.267,133,-51.788,0\H,139,1.09277,137,113.111,134,-65.8013,0\H,139,1.09296,137,110.834,134,52.8562,0\H,139,1.09331,137,104.95,134,174.385,0\H,92,2.38925,89,118.942,87,-86.8864,0\C,143,1.09302,92,143.556,89,57.1891,0\H,144,1.09291,143,113.032,92,70.9653,0\H,144,1.09298,143,113.965,92,-171.894,0\S,144,1.807,143,107.426,92,-49.2652,0\O,147,1.4972,144,99.7072,143,-159.745,0\C,147,1.80694,144,96.1039,143,-60.2912,0\H,149,1.09254,147,118.535,144,43.7291,0\H,149,1.09306,147,99.3528,144,167.683,0\H,149,1.09316,147,107.001,144,-89.1033,0\H,152,2.05049,149,138.309,147,-54.3122,0\C,153,1.09258,152,132.239,149,-141.195,0\H,154,1.09295,153,100.535,152,-51.6922,0\H,154,1.09315,153,106.359,152,-167.557,0\S,154,1.80665,153,106.337,152,67.1481,0\O,157,1.49712,154,106.865,153,159.209,0\C,157,1.80676,154,93.4906,153,56.1964,0\H,159,1.09272,157,106.03,154,172.964,0\H,159,1.09288,157,114.852,154,-66.0815,0\H,159,1.09324,157,108.804,154,57.2215,0\H,162,2.36179,159,121.51,157,122.835,0\C,163,1.09325,162,132.077,159,-87.6522,0\H,164,1.09262,163,111.097,162,-58.7992,0\H,164,1.09317,163,111.38,162,175.502,0\S,164,1.80713,163,108.551,162,57.4405,0\O,167,1.49627,164,97.925,163,95.3647,0\C,167,1.80748,164,95.1295,163,-162.057,0\H,169,1.09252,167,113.138,164,71.9589,0\H,169,1.0931,167,107.582,164,-170.453,0\H,169,1.09329,167,107.056,164,-47.4316,0\H,142,2.41561,139,106.806,137,-68.5113,0\C,173,1.09366,142,111.63,139,-148.773,0\H,174,1.09277,173,107.778,142,149.163,0\H,174,1.0933,173,108.201,142,34.7489,0\S,174,1.80644,173,113.5,142,-90.123,0\O,177,1.4974,174,109.786,173,57.3236,0\C,177,1.80711,174,96.946,173,167.567,0\H,179,1.0927,177,107.555,174,73.3456,0\H,179,1.09274,177,107.538,174,-166.698,0\H,179,1.09303,177,102.932,174,-47.0592,0\O,54,2.43422,52,128.406,51,135.147,0\S,183,1.49719,54,107.957,52,-32.0463,0\C,184,1.80654,183,98.9967,54,-171.359,0\H,185,1.09281,184,104.786,183,-84.5942,0\H,185,1.09293,184,109.149,183,39.0042,0\H,185,1.09385,184,107.009,183,161.747,0\C,184,1.80735,183,106.615,54,-72.7,0\H,189,1.09228,184,116.393,183,-75.6837,0\H,189,1.09291,184,105.349,183,41.5766,0\H,189,1.09322,184,111.599,183,165.755,0\H,145,2.46419,144,125.613,143,-93.2031,0\C,193,1.09337,145,132.3,144,-112.991,0\H,194,1.09289,193,109.61,145,-71.6314,0\H,194,1.09354,193,113.26,145,165.859,0\S,194,1.8065,193,113.427,145,53.6836,0\O,197,1.49694,194,103.74,193,-172.059,0\C,197,1.80625,194,98.2001,193,79.1682,0\H,199,1.09288,197,111.528,194,79.888,0\H,199,1.09289,197,111.259,194,-158.882,0\H,199,1.093,197,107.852,194,-37.0697,0\H,69,2.50018,67,141.591,62,-66.5164,0\C,203,1.09361,69,161.032,67,35.9123,0\H,204,1.09216,203,113.936,69,-32.9705,0\H,204,1.09264,203,113.092,69,86.4242,0\S,204,1.80713,203,110.975,69,-155.175,0\O,207,1.49637,204,103.892,203,-115.94,0\C,207,1.80719,204,99.4448,203,-3.55083,0\H,209,1.09277,207,111.285,204,-70.6117,0\H,209,1.09302,207,108.468,204,50.1864,0\H,209,1.09309,207,109.44,204,165.69,0\O,210,2.42097,209,109.396,207,126.601,0\S,213,1.49709,210,113.803,209,108.352,0\C,214,1.80669,213,102.857,210,-173.827,0\H,215,1.09264,214,107.98,213,-175.955,0\H,215,1.09272,214,106.818,213,70.3734,0\H,215,1.0936,214,110.063,213,-49.9864,0\C,214,1.80706,213,109.958,210,-75.9679,0\H,219,1.0929,214,110.824,213,-36.0109,0\H,219,1.09306,214,106.761,213,-166.446,0\H,219,1.0935,214,107.209,213,83.5749,0\H,40,2.50368,37,152.581,35,157.278,0\C,223,1.09276,40,104.441,37,22.2311,0\H,224,1.09289,223,116.438,40,159.708,0\H,224,1.09316,223,109.401,40,-69.3423,0\S,224,1.8076,223,116.205,40,45.8666,0\O,227,1.4972,224,102.793,223,102.647,0\C,227,1.80736,224,94.1869,223,-148.422,0\H,229,1.09286,227,108.171,224,-53.8987,0\H,229,1.09287,227,115.462,224,-170.586,0\H,229,1.09316,227,119.111,224,55.1917,0\H,226,2.18031,224,111.971,223,-47.9843,0\C,233,1.09277,226,102.342,224,138.098,0\H,234,1.09253,233,121.316,226,158.084,0\H,234,1.09306,233,113.769,226,32.2938,0\S,234,1.80728,233,104.73,226,-80.4709,0\O,237,1.49778,234,96.6706,233,-51.8394,0\C,237,1.8064,234,103.133,233,-155.881,0\H,239,1.09277,237,104.979,234,-71.9693,0\H,239,1.09292,237,105.688,234,48.1031,0\H,239,1.09366,237,107.948,234,169.686,0\H,233,2.30046,226,84.8545,224,-77.4761,0\C,243,1.09388,233,121.547,226,148.488,0\H,244,1.09237,243,108.192,233,-94.7462,0\H,244,1.09311,243,116.583,233,33.3865,0\S,244,1.80618,243,106.464,233,154.839,0\O,247,1.49652,244,102.062,243,-86.6221,0\C,247,1.80723,244,91.0676,243,165.726,0\H,249,1.09292,247,111.155,244,71.2591,0\H,249,1.09312,247,107.783,244,-167.521,0\H,249,1.09332,247,107.965,244,-56.6184,0\H,251,2.47111,249,150.813,247,28.7139,0\C,253,1.0932,251,115.518,249,124.622,0\H,254,1.09297,253,99.8006,251,55.2674,0\H,254,1.09355,253,113.007,251,165.774,0\S,254,1.80664,253,113.432,251,-61.6395,0\O,257,1.49697,254,96.9085,253,27.2825,0\C,257,1.80758,254,96.8429,253,-77.0436,0\H,259,1.09265,257,103.718,254,159.492,0\H,259,1.09331,257,112.697,254,-84.2872,0\H,259,1.09335,257,110.548,254,40.8207,0\H,262,2.31437,259,135.376,257,125.796,0\C,263,1.09232,262,107.632,259,-114.237,0\H,264,1.09272,263,112.393,262,-8.41504,0\H,264,1.09351,263,108.639,262,-131.466,0\S,264,1.8067,263,111.807,262,115.923,0\O,267,1.49718,264,103.381,263,167.133,0\C,267,1.80783,264,96.5957,263,-84.057,0\H,269,1.09263,267,101.815,264,-177.932,0\H,269,1.09297,267,111.478,264,-56.0712,0\H,269,1.09299,267,102.593,264,66.6304,0\H,255,2.46876,254,126.049,253,39.0005,0\C,273,1.09336,255,111.406,254,-81.0563,0\H,274,1.09234,273,103.723,255,49.1125,0\H,274,1.0931,273,106.776,255,-64.8807,0\S,274,1.80694,273,108.175,255,168.591,0\O,277,1.49674,274,110.959,273,-2.22444,0\C,277,1.80747,274,92.9507,273,101.656,0\H,279,1.09248,277,113.914,274,-56.9104,0\H,279,1.09312,277,107.075,274,60.7509,0\H,279,1.09314,277,110.816,274,175.247,0\H,113,2.64719,105,136.977,104,1.19101,0\C,283,1.09305,113,127.96,105,11.7747,0\H,284,1.09252,283,111.977,113,25.6204,0\H,284,1.0927,283,107.82,113,143.54,0\S,284,1.80721,283,111.516,113,-99.7146,0\O,287,1.49762,284,100.647,283,-168.534,0\C,287,1.80702,284,94.3042,283,-68.8076,0\H,289,1.09253,287,110.641,284,-70.5632,0\H,289,1.09281,287,109.312,284,43.9274,0\H,289,1.09339,287,109.299,284,167.579,0\\\@

 Total job time:  59.94s(wall), 213.74s(cpu) 
 Fri Mar 12 10:52:00 2021

        *************************************************************
        *                                                           *
        *  Thank you very much for using Q-Chem.  Have a nice day.  *
        *                                                           *
        *************************************************************


