                  Welcome to Q-Chem
     A Quantum Leap Into The Future Of Chemistry


 Q-Chem 5.2 (devel), Q-Chem, Inc., Pleasanton, CA (2019)

 Yihan Shao,  Zhengting Gan,  E. Epifanovsky,  A. T. B. Gilbert,  M. Wormit,  
 J. Kussmann,  A. W. Lange,  A. Behn,  Jia Deng,  Xintian Feng,  D. Ghosh,  
 M. Goldey,  P. R. Horn,  L. D. Jacobson,  I. Kaliman,  T. Kus,  A. Landau,  
 Jie Liu,  E. I. Proynov,  R. M. Richard,  R. P. Steele,  E. J. Sundstrom,  
 H. L. Woodcock III,  P. M. Zimmerman,  D. Zuev,  B. Alam,  B. Albrecht,  
 E. Alguire,  S. A. Baeppler,  D. Barton,  Z. Benda,  Y. A. Bernard,  
 E. J. Berquist,  K. B. Bravaya,  H. Burton,  K. Carter-Fenk,  D. Casanova,  
 Chun-Min Chang,  Yunqing Chen,  A. Chien,  K. D. Closser,  M. P. Coons,  
 S. Coriani,  S. Dasgupta,  A. L. Dempwolff,  M. Diedenhofen,  Hainam Do,  
 R. G. Edgar,  Po-Tung Fang,  S. Faraji,  S. Fatehi,  Qingguo Feng,  
 J. Fosso-Tande,  J. Gayvert,  Qinghui Ge,  A. Ghysels,  G. Gidofalvi,  
 J. Gomes,  J. Gonthier,  A. Gunina,  D. Hait,  M. W. D. Hanson-Heine,  
 P. H. P. Harbach,  A. W. Hauser,  M. F. Herbst,  J. E. Herr,  
 E. G. Hohenstein,  Z. C. Holden,  Kerwin Hui,  B. C. Huynh,  T.-C. Jagau,  
 Hyunjun Ji,  B. Kaduk,  K. Khistyaev,  Jaehoon Kim,  P. Klunzinger,  K. Koh,  
 D. Kosenkov,  L. Koulias,  T. Kowalczyk,  C. M. Krauter,  A. Kunitsa,  
 Ka Un Lao,  A. Laurent,  K. V. Lawler,  Joonho Lee,  D. Lefrancois,  
 S. Lehtola,  D. S. Levine,  Yi-Pei Li,  You-Sheng Lin,  Fenglai Liu,  
 Kuan-Yu Liu,  E. Livshits,  M. Loipersberger,  A. Luenser,  P. Manohar,  
 E. Mansoor,  S. F. Manzer,  Shan-Ping Mao,  Yuezhi Mao,  N. Mardirossian,  
 A. V. Marenich,  T. Markovich,  L. A. Martinez-Martinez,  S. A. Maurer,  
 N. J. Mayhall,  S. C. McKenzie,  J.-M. Mewes,  P. Morgante,  A. F. Morrison,  
 J. W. Mullinax,  K. Nanda,  T. S. Nguyen-Beck,  R. Olivares-Amaya,  
 J. A. Parkhill,  S. K. Paul,  F. Pavosevic,  Zheng Pei,  T. M. Perrine,  
 F. Plasser,  P. Pokhilko,  S. Prager,  A. Prociuk,  E. Ramos,  B. Rana,  
 D. R. Rehn,  F. Rob,  M. Scheurer,  M. Schneider,  N. Sergueev,  
 S. M. Sharada,  S. Sharma,  D. W. Small,  T. Stauch,  C. J. Stein,  
 T. Stein,  Yu-Chuan Su,  S. P. Veccham,  Zhen Tao,  A. J. W. Thom,  
 A. Tkatchenko,  T. Tsuchimochi,  N. M. Tubman,  L. Vogt,  M. L. Vidal,  
 O. Vydrov,  M. A. Watson,  J. Wenzel,  M. de Wergifosse,  T. A. Wesolowski,  
 A. White,  J. Witte,  A. Yamada,  Jun Yang,  K. Yao,  S. Yeganeh,  
 S. R. Yost,  Zhi-Qiang You,  A. Zech,  Igor Ying Zhang,  Xing Zhang,  
 Yan Zhao,  Ying Zhu,  B. R. Brooks,  G. K. L. Chan,  C. J. Cramer,  
 M. S. Gordon,  W. J. Hehre,  A. Klamt,  M. W. Schmidt,  C. D. Sherrill,  
 D. G. Truhlar,  A. Aspuru-Guzik,  R. Baer,  A. T. Bell,  N. A. Besley,  
 Jeng-Da Chai,  A. E. DePrince, III,  R. A. DiStasio Jr.,  A. Dreuw,  
 B. D. Dunietz,  T. R. Furlani,  Chao-Ping Hsu,  Yousung Jung,  Jing Kong,  
 D. S. Lambrecht,  WanZhen Liang,  C. Ochsenfeld,  V. A. Rassolov,  
 L. V. Slipchenko,  J. E. Subotnik,  T. Van Voorhis,  J. M. Herbert,  
 A. I. Krylov,  P. M. W. Gill,  M. Head-Gordon

 Contributors to earlier versions of Q-Chem not listed above: 
 R. D. Adamson,  B. Austin,  J. Baker,  G. J. O. Beran,  K. Brandhorst,  
 S. T. Brown,  E. F. C. Byrd,  A. K. Chakraborty,  C.-L. Cheng,  
 Siu Hung Chien,  D. M. Chipman,  D. L. Crittenden,  H. Dachsel,  
 R. J. Doerksen,  A. D. Dutoi,  L. Fusti-Molnar,  W. A. Goddard III,  
 A. Golubeva-Zadorozhnaya,  S. R. Gwaltney,  G. Hawkins,  A. Heyden,  
 S. Hirata,  G. Kedziora,  F. J. Keil,  C. Kelley,  Jihan Kim,  R. A. King,  
 R. Z. Khaliullin,  P. P. Korambath,  W. Kurlancheek,  A. M. Lee,  M. S. Lee,  
 S. V. Levchenko,  Ching Yeh Lin,  D. Liotard,  R. C. Lochan,  I. Lotan,  
 P. E. Maslen,  N. Nair,  D. P. O'Neill,  D. Neuhauser,  E. Neuscamman,  
 C. M. Oana,  R. Olson,  B. Peters,  R. Peverati,  P. A. Pieniazek,  
 Y. M. Rhee,  J. Ritchie,  M. A. Rohrdanz,  E. Rosta,  N. J. Russ,  
 H. F. Schaefer III,  N. E. Schultz,  N. Shenvi,  A. C. Simmonett,  A. Sodt,  
 D. Stuck,  K. S. Thanthiriwatte,  V. Vanovschi,  Tao Wang,  A. Warshel,  
 C. F. Williams,  Q. Wu,  X. Xu,  W. Zhang

 Please cite Q-Chem as follows:
 Y. Shao et al., Mol. Phys. 113, 184-215 (2015)
 DOI: 10.1080/00268976.2014.952696

 Q-Chem 5.2.2 for Intel X86 EM64T Linux

 Parts of Q-Chem use Armadillo 9.800.1 (Horizon Scraper).
 http://arma.sourceforge.net/

 Q-Chem begins on Thu Mar 11 13:37:48 2021  

Host: n0099.mhg0
0

     Scratch files written to /local/scratch/users/ymao/r7.00_frame_0028_almo_B3LYP_dp.in20210311133745//

Checking the input file for inconsistencies... 	...done.

--------------------------------------------------------------
User input:
--------------------------------------------------------------
$molecule
0 1
--
0 1
C    23.69700   15.40300   28.16600  
C    23.96200   14.51100   26.94200  
C    25.44600   14.57700   26.54500  
C    26.34600   14.29700   27.76000  
C    25.98200   15.08000   29.03200  
C    24.49900   14.81100   29.33600  
H    25.59400   13.92500   25.67500  
H    23.76100   13.44900   27.12800  
H    24.17400   16.35200   27.88900  
H    22.62300   15.57000   28.31400  
H    26.23400   13.22000   27.93500  
H    27.39500   14.37800   27.45100  
H    26.55400   14.65900   29.86800  
H    26.28800   16.13200   28.98100  
H    24.24100   13.76600   29.54700  
H    24.28300   15.36100   30.26100  
H    25.64000   15.59600   26.18900  
N    23.18900   14.90100   25.76300  
H    22.87200   15.86200   25.79700  
C    22.93700   14.07000   24.69200  
H    22.43400   14.55100   23.83400  
O    23.28300   12.90100   24.68900  
--
0 1
C    20.07000   17.86300   29.80000  
H    19.43700   17.20800   30.40400  
H    21.11300   17.57700   29.96200  
H    19.92500   18.89500   30.12800  
S    19.68600   17.75900   28.03700  
C    20.91100   18.84800   27.27800  
H    21.07200   19.76800   27.84700  
H    21.73900   18.19100   27.00100  
H    20.49400   19.13500   26.31000  
O    18.41600   18.52700   27.84800  
C    18.99100   19.56000   21.38900  
H    19.31900   20.05100   20.47000  
H    19.86000   19.17400   21.92900  
H    18.29200   18.72600   21.28700  
S    18.55700   20.80800   22.62200  
C    19.99700   21.85100   22.30000  
H    20.27600   22.42100   23.19000  
H    20.92900   21.28200   22.25900  
H    19.81600   22.47500   21.42100  
O    18.99900   20.22200   23.92700  
C    28.55000   10.93300   26.69200  
H    28.45000   11.85100   27.27700  
H    28.15700   11.21200   25.71000  
H    28.07600   10.04400   27.11500  
S    30.32600   10.60100   26.67600  
C    30.18400   9.22400    25.51400  
H    31.20500   8.89500    25.30400  
H    29.61700   8.40800    25.96900  
H    29.68300   9.53000    24.59200  
O    30.57600   9.72000    27.86000  
C    16.82700   11.30900   19.02300  
H    16.68000   10.22700   19.07500  
H    15.94600   11.95000   18.93700  
H    17.33800   11.49700   18.07500  
S    17.83200   11.93400   20.38800  
C    16.57700   11.63900   21.65500  
H    16.67100   12.35700   22.47300  
H    15.63000   11.69500   21.11300  
H    16.84300   10.63300   21.98900  
O    17.91900   13.42000   20.22900  
C    24.63400   18.57800   35.36200  
H    24.57600   17.80200   36.12900  
H    24.11800   19.48600   35.68500  
H    24.15200   18.16700   34.47100  
S    26.36200   18.96500   35.00400  
C    26.69100   19.19600   36.76600  
H    26.29600   20.16900   37.07000  
H    26.21800   18.35200   37.27400  
H    27.77100   19.10000   36.90500  
O    26.23400   20.36900   34.49900  
C    23.87400   10.29100   34.78600  
H    23.22600   9.46900    35.10000  
H    24.46300   9.93900    33.93600  
H    24.38900   10.55200   35.71400  
S    22.75000   11.64900   34.38700  
C    22.41200   11.15200   32.68300  
H    21.72100   10.30600   32.71000  
H    21.93200   11.97400   32.14600  
H    23.43100   11.04600   32.30400  
O    23.69000   12.80100   34.21100  
C    18.90800   9.91300    31.02700  
H    18.95600   10.66400   30.23500  
H    17.89900   9.49800    31.09600  
H    19.26300   10.22600   32.01300  
S    19.72100   8.36000    30.59100  
C    21.02300   8.95500    29.48900  
H    21.36800   9.94300    29.80600  
H    21.87100   8.26600    29.45600  
H    20.60400   9.11800    28.49300  
O    18.77800   7.72000    29.62000  
C    28.44200   20.58200   31.71800  
H    27.43800   20.79400   32.09600  
H    29.04200   20.58800   32.63200  
H    28.74800   21.27300   30.92800  
S    28.48000   18.97800   30.88700  
C    30.18800   19.00300   30.29600  
H    30.59000   17.98700   30.26200  
H    30.22400   19.33300   29.25500  
H    30.79900   19.71700   30.85300  
O    27.76800   19.16800   29.58400  
C    31.55400   15.27800   23.16800  
H    31.52500   15.45200   22.09000  
H    30.57800   15.49100   23.61300  
H    32.33900   15.97600   23.47200  
S    31.81800   13.52500   23.51500  
C    30.07800   13.03800   23.50900  
H    29.72300   13.27700   22.50300  
H    29.84300   11.97100   23.54200  
H    29.52100   13.53700   24.30600  
O    32.10400   13.46500   24.98300  
C    21.28800   15.30700   34.23000  
H    22.35800   15.26800   34.44900  
H    20.86100   15.87500   35.06100  
H    20.98600   14.27000   34.05900  
S    20.94400   16.13300   32.66100  
C    21.77000   14.96200   31.56100  
H    22.70300   14.61900   32.01700  
H    21.06200   14.13400   31.47900  
H    21.80800   15.38800   30.55500  
O    21.69800   17.41600   32.82700  
C    30.17600   13.11200   32.89000  
H    30.85400   12.43900   33.42100  
H    29.94300   13.95200   33.54900  
H    29.30000   12.55800   32.54000  
S    30.98900   13.86900   31.46500  
C    29.75400   15.17200   31.26200  
H    29.75100   16.03700   31.93000  
H    30.07500   15.53700   30.28300  
H    28.78300   14.67300   31.20300  
O    30.56500   12.92400   30.38400  
C    24.53600   14.03600   20.75800  
H    25.60900   14.11500   20.56900  
H    24.28800   14.22200   21.80700  
H    24.23700   13.05600   20.37800  
S    23.52100   15.18100   19.79700  
C    24.92200   15.74300   18.80400  
H    25.20400   15.05900   17.99900  
H    24.52600   16.65400   18.35000  
H    25.72300   16.05900   19.47800  
O    23.31800   16.39800   20.64400  
C    25.20400   21.95600   29.67300  
H    25.08700   23.02500   29.87200  
H    25.93300   21.53900   30.37400  
H    25.26600   21.59200   28.64500  
S    23.65700   21.29200   30.32800  
C    23.94900   19.54100   29.99100  
H    23.97000   19.42300   28.90400  
H    24.92600   19.41600   30.46400  
H    23.16800   18.90600   30.41700  
O    22.67600   21.63300   29.25000  
C    29.77500   17.93400   24.44200  
H    30.68100   17.32400   24.48200  
H    29.47700   18.11200   23.40600  
H    29.94000   18.91600   24.89300  
S    28.36700   17.09400   25.20200  
C    28.92800   16.97700   26.91600  
H    29.21200   15.92500   26.99700  
H    29.64500   17.72800   27.25700  
H    28.01900   17.04400   27.52000  
O    28.57900   15.74100   24.59800  
C    25.35400   18.36500   23.30400  
H    25.13600   18.75100   22.30500  
H    25.60900   19.30000   23.80900  
H    26.10800   17.57500   23.34800  
S    23.82700   17.67200   23.97800  
C    22.85600   19.07000   23.37200  
H    23.39100   20.01100   23.52300  
H    22.61000   18.99100   22.31000  
H    21.93000   19.13800   23.94900  
O    24.10200   17.88800   25.43300  
C    16.60100   9.97700    25.28200  
H    16.02100   9.81200    24.37000  
H    16.07300   9.57100    26.14800  
H    16.93100   11.01500   25.37100  
S    18.09600   9.03100    24.91400  
C    18.94000   9.52600    26.43300  
H    19.95600   9.13500    26.33300  
H    18.99400   10.61300   26.52800  
H    18.33800   9.01600    27.18900  
O    18.74100   9.85100    23.84100  
C    24.42300   22.67700   25.61400  
H    25.05100   22.26700   24.81900  
H    24.83700   23.62700   25.96000  
H    24.38500   22.00400   26.47400  
S    22.72500   22.87200   25.02800  
C    21.99300   21.32000   25.59600  
H    21.05700   21.11600   25.07100  
H    22.73800   20.53100   25.46500  
H    21.79700   21.42700   26.66600  
O    22.80700   22.62200   23.55400  
C    20.85200   12.27800   21.98300  
H    21.60800   12.91300   22.45200  
H    20.38100   12.89900   21.21600  
H    20.23400   12.01600   22.84500  
S    21.54700   10.74100   21.33600  
C    22.07200   10.28200   23.00400  
H    21.13800   10.19700   23.56500  
H    22.53500   9.29200    22.99200  
H    22.76500   11.08500   23.27000  
O    22.76800   11.15600   20.57500  
C    17.90100   13.62000   28.93900  
H    17.37400   14.48600   29.34800  
H    17.47200   13.23400   28.01100  
H    17.86000   12.83900   29.70300  
S    19.66300   14.01800   28.90500  
C    19.72500   14.44300   27.15000  
H    20.79100   14.46400   26.90800  
H    19.12500   13.76000   26.54300  
H    19.28900   15.43900   27.04200  
O    20.40400   12.73100   28.71700  
C    27.78000   18.10500   20.04400  
H    28.11700   18.49500   21.00800  
H    28.01000   18.82900   19.25800  
H    26.68800   18.09300   20.04100  
S    28.43800   16.49900   19.54200  
C    27.88400   15.64200   21.03400  
H    28.51900   15.94200   21.87100  
H    26.86400   15.94100   21.28800  
H    27.84700   14.58300   20.76500  
O    29.90200   16.62400   19.82600  
C    25.28200   15.16900   33.34900  
H    25.08100   14.19000   32.90600  
H    24.63000   15.29900   34.21600  
H    25.03400   15.89900   32.57500  
S    27.03200   15.06300   33.78800  
C    26.87300   14.74000   35.55900  
H    27.84100   14.60100   36.04600  
H    26.37800   15.63500   35.94500  
H    26.16200   13.96700   35.86100  
O    27.56300   16.46300   33.80500  
C    29.56400   22.35800   28.20600  
H    30.12700   21.46300   28.48400  
H    30.12000   23.28800   28.34900  
H    28.71200   22.35400   28.89000  
S    28.88400   22.11800   26.54900  
C    27.77000   20.74700   26.93100  
H    28.43800   19.91400   27.16600  
H    27.14300   21.01100   27.78700  
H    27.22200   20.45700   26.03100  
O    30.06200   21.44500   25.91600  
C    26.50800   12.15400   31.82900  
H    25.90900   12.40400   30.94900  
H    25.92000   12.13600   32.74900  
H    27.31000   12.89500   31.88400  
S    27.10100   10.46000   31.61900  
C    28.05500   10.90200   30.15000  
H    28.18700   10.05200   29.47600  
H    27.71300   11.80400   29.63500  
H    29.02300   11.21600   30.54800  
O    25.89600   9.77200    31.05700  
C    24.49100   10.02800   28.50800  
H    23.98300   9.06200    28.45800  
H    25.53400   9.78200    28.72500  
H    23.98100   10.66200   29.23800  
S    24.42900   10.69700   26.83100  
C    22.63500   10.53400   26.68800  
H    22.32100   9.49500    26.55200  
H    22.21200   10.88100   27.63500  
H    22.40700   11.17300   25.83200  
O    24.77100   9.54400    25.93900  
C    35.25100   15.74700   28.77800  
H    35.75000   14.82900   28.45600  
H    35.28400   16.58800   28.08200  
H    35.76100   16.12200   29.66900  
S    33.62500   15.20000   29.34700  
C    32.97400   14.74500   27.72400  
H    33.82100   14.21000   27.28700  
H    32.10100   14.09500   27.82500  
H    32.65900   15.62100   27.15100  
O    32.88800   16.45300   29.70100  
C    25.41700   10.48200   22.15600  
H    25.67500   9.62400    21.53000  
H    24.83100   10.20300   23.03500  
H    24.82400   11.16700   21.54400  
S    27.02700   11.10400   22.69200  
C    26.52800   12.49800   23.72800  
H    25.92600   12.20700   24.59300  
H    27.34200   13.11700   24.11400  
H    25.94700   13.21900   23.14700  
O    27.48700   11.83400   21.46900  
C    18.37000   16.85800   24.49200  
H    18.20000   15.82400   24.80600  
H    18.41100   17.40400   25.43800  
H    17.61000   17.24300   23.80700  
S    20.02900   17.01400   23.79500  
C    19.86500   15.55700   22.73900  
H    19.46400   14.70500   23.29500  
H    19.23600   15.78700   21.87400  
H    20.88700   15.35700   22.40900  
O    20.84900   16.51500   24.94500  
$end

$rem
JOBTYPE  SP
METHOD  B3LYP
BASIS  6-31+G(D)
SYMMETRY  FALSE
SYM_IGNORE  TRUE
MEM_TOTAL  16000
MEM_STATIC  8000
MAX_SUB_FILE_NUM  16000
BASIS_LIN_DEP_THRESH  6
THRESH  14
SCF_CONVERGENCE  8
GEN_SCFMAN  TRUE
SCF_GUESS  FRAGMO
FD_MAT_VEC_PROD  FALSE
XC_GRID  000075000302
NL_GRID  1
MAX_SCF_CYCLES  200
FRGM_METHOD  STOLL
SCFMI_MODE  1
$end

$development
almo_efield  1
$end

$rem_frgm
SCF_CONVERGENCE  4
$end

--------------------------------------------------------------
 ----------------------------------------------------------------
             Standard Nuclear Orientation (Angstroms)
    I     Atom           X                Y                Z
 ----------------------------------------------------------------
    1      C      23.6970000000    15.4030000000    28.1660000000
    2      C      23.9620000000    14.5110000000    26.9420000000
    3      C      25.4460000000    14.5770000000    26.5450000000
    4      C      26.3460000000    14.2970000000    27.7600000000
    5      C      25.9820000000    15.0800000000    29.0320000000
    6      C      24.4990000000    14.8110000000    29.3360000000
    7      H      25.5940000000    13.9250000000    25.6750000000
    8      H      23.7610000000    13.4490000000    27.1280000000
    9      H      24.1740000000    16.3520000000    27.8890000000
   10      H      22.6230000000    15.5700000000    28.3140000000
   11      H      26.2340000000    13.2200000000    27.9350000000
   12      H      27.3950000000    14.3780000000    27.4510000000
   13      H      26.5540000000    14.6590000000    29.8680000000
   14      H      26.2880000000    16.1320000000    28.9810000000
   15      H      24.2410000000    13.7660000000    29.5470000000
   16      H      24.2830000000    15.3610000000    30.2610000000
   17      H      25.6400000000    15.5960000000    26.1890000000
   18      N      23.1890000000    14.9010000000    25.7630000000
   19      H      22.8720000000    15.8620000000    25.7970000000
   20      C      22.9370000000    14.0700000000    24.6920000000
   21      H      22.4340000000    14.5510000000    23.8340000000
   22      O      23.2830000000    12.9010000000    24.6890000000
   23      C      20.0700000000    17.8630000000    29.8000000000
   24      H      19.4370000000    17.2080000000    30.4040000000
   25      H      21.1130000000    17.5770000000    29.9620000000
   26      H      19.9250000000    18.8950000000    30.1280000000
   27      S      19.6860000000    17.7590000000    28.0370000000
   28      C      20.9110000000    18.8480000000    27.2780000000
   29      H      21.0720000000    19.7680000000    27.8470000000
   30      H      21.7390000000    18.1910000000    27.0010000000
   31      H      20.4940000000    19.1350000000    26.3100000000
   32      O      18.4160000000    18.5270000000    27.8480000000
   33      C      18.9910000000    19.5600000000    21.3890000000
   34      H      19.3190000000    20.0510000000    20.4700000000
   35      H      19.8600000000    19.1740000000    21.9290000000
   36      H      18.2920000000    18.7260000000    21.2870000000
   37      S      18.5570000000    20.8080000000    22.6220000000
   38      C      19.9970000000    21.8510000000    22.3000000000
   39      H      20.2760000000    22.4210000000    23.1900000000
   40      H      20.9290000000    21.2820000000    22.2590000000
   41      H      19.8160000000    22.4750000000    21.4210000000
   42      O      18.9990000000    20.2220000000    23.9270000000
   43      C      28.5500000000    10.9330000000    26.6920000000
   44      H      28.4500000000    11.8510000000    27.2770000000
   45      H      28.1570000000    11.2120000000    25.7100000000
   46      H      28.0760000000    10.0440000000    27.1150000000
   47      S      30.3260000000    10.6010000000    26.6760000000
   48      C      30.1840000000     9.2240000000    25.5140000000
   49      H      31.2050000000     8.8950000000    25.3040000000
   50      H      29.6170000000     8.4080000000    25.9690000000
   51      H      29.6830000000     9.5300000000    24.5920000000
   52      O      30.5760000000     9.7200000000    27.8600000000
   53      C      16.8270000000    11.3090000000    19.0230000000
   54      H      16.6800000000    10.2270000000    19.0750000000
   55      H      15.9460000000    11.9500000000    18.9370000000
   56      H      17.3380000000    11.4970000000    18.0750000000
   57      S      17.8320000000    11.9340000000    20.3880000000
   58      C      16.5770000000    11.6390000000    21.6550000000
   59      H      16.6710000000    12.3570000000    22.4730000000
   60      H      15.6300000000    11.6950000000    21.1130000000
   61      H      16.8430000000    10.6330000000    21.9890000000
   62      O      17.9190000000    13.4200000000    20.2290000000
   63      C      24.6340000000    18.5780000000    35.3620000000
   64      H      24.5760000000    17.8020000000    36.1290000000
   65      H      24.1180000000    19.4860000000    35.6850000000
   66      H      24.1520000000    18.1670000000    34.4710000000
   67      S      26.3620000000    18.9650000000    35.0040000000
   68      C      26.6910000000    19.1960000000    36.7660000000
   69      H      26.2960000000    20.1690000000    37.0700000000
   70      H      26.2180000000    18.3520000000    37.2740000000
   71      H      27.7710000000    19.1000000000    36.9050000000
   72      O      26.2340000000    20.3690000000    34.4990000000
   73      C      23.8740000000    10.2910000000    34.7860000000
   74      H      23.2260000000     9.4690000000    35.1000000000
   75      H      24.4630000000     9.9390000000    33.9360000000
   76      H      24.3890000000    10.5520000000    35.7140000000
   77      S      22.7500000000    11.6490000000    34.3870000000
   78      C      22.4120000000    11.1520000000    32.6830000000
   79      H      21.7210000000    10.3060000000    32.7100000000
   80      H      21.9320000000    11.9740000000    32.1460000000
   81      H      23.4310000000    11.0460000000    32.3040000000
   82      O      23.6900000000    12.8010000000    34.2110000000
   83      C      18.9080000000     9.9130000000    31.0270000000
   84      H      18.9560000000    10.6640000000    30.2350000000
   85      H      17.8990000000     9.4980000000    31.0960000000
   86      H      19.2630000000    10.2260000000    32.0130000000
   87      S      19.7210000000     8.3600000000    30.5910000000
   88      C      21.0230000000     8.9550000000    29.4890000000
   89      H      21.3680000000     9.9430000000    29.8060000000
   90      H      21.8710000000     8.2660000000    29.4560000000
   91      H      20.6040000000     9.1180000000    28.4930000000
   92      O      18.7780000000     7.7200000000    29.6200000000
   93      C      28.4420000000    20.5820000000    31.7180000000
   94      H      27.4380000000    20.7940000000    32.0960000000
   95      H      29.0420000000    20.5880000000    32.6320000000
   96      H      28.7480000000    21.2730000000    30.9280000000
   97      S      28.4800000000    18.9780000000    30.8870000000
   98      C      30.1880000000    19.0030000000    30.2960000000
   99      H      30.5900000000    17.9870000000    30.2620000000
  100      H      30.2240000000    19.3330000000    29.2550000000
  101      H      30.7990000000    19.7170000000    30.8530000000
  102      O      27.7680000000    19.1680000000    29.5840000000
  103      C      31.5540000000    15.2780000000    23.1680000000
  104      H      31.5250000000    15.4520000000    22.0900000000
  105      H      30.5780000000    15.4910000000    23.6130000000
  106      H      32.3390000000    15.9760000000    23.4720000000
  107      S      31.8180000000    13.5250000000    23.5150000000
  108      C      30.0780000000    13.0380000000    23.5090000000
  109      H      29.7230000000    13.2770000000    22.5030000000
  110      H      29.8430000000    11.9710000000    23.5420000000
  111      H      29.5210000000    13.5370000000    24.3060000000
  112      O      32.1040000000    13.4650000000    24.9830000000
  113      C      21.2880000000    15.3070000000    34.2300000000
  114      H      22.3580000000    15.2680000000    34.4490000000
  115      H      20.8610000000    15.8750000000    35.0610000000
  116      H      20.9860000000    14.2700000000    34.0590000000
  117      S      20.9440000000    16.1330000000    32.6610000000
  118      C      21.7700000000    14.9620000000    31.5610000000
  119      H      22.7030000000    14.6190000000    32.0170000000
  120      H      21.0620000000    14.1340000000    31.4790000000
  121      H      21.8080000000    15.3880000000    30.5550000000
  122      O      21.6980000000    17.4160000000    32.8270000000
  123      C      30.1760000000    13.1120000000    32.8900000000
  124      H      30.8540000000    12.4390000000    33.4210000000
  125      H      29.9430000000    13.9520000000    33.5490000000
  126      H      29.3000000000    12.5580000000    32.5400000000
  127      S      30.9890000000    13.8690000000    31.4650000000
  128      C      29.7540000000    15.1720000000    31.2620000000
  129      H      29.7510000000    16.0370000000    31.9300000000
  130      H      30.0750000000    15.5370000000    30.2830000000
  131      H      28.7830000000    14.6730000000    31.2030000000
  132      O      30.5650000000    12.9240000000    30.3840000000
  133      C      24.5360000000    14.0360000000    20.7580000000
  134      H      25.6090000000    14.1150000000    20.5690000000
  135      H      24.2880000000    14.2220000000    21.8070000000
  136      H      24.2370000000    13.0560000000    20.3780000000
  137      S      23.5210000000    15.1810000000    19.7970000000
  138      C      24.9220000000    15.7430000000    18.8040000000
  139      H      25.2040000000    15.0590000000    17.9990000000
  140      H      24.5260000000    16.6540000000    18.3500000000
  141      H      25.7230000000    16.0590000000    19.4780000000
  142      O      23.3180000000    16.3980000000    20.6440000000
  143      C      25.2040000000    21.9560000000    29.6730000000
  144      H      25.0870000000    23.0250000000    29.8720000000
  145      H      25.9330000000    21.5390000000    30.3740000000
  146      H      25.2660000000    21.5920000000    28.6450000000
  147      S      23.6570000000    21.2920000000    30.3280000000
  148      C      23.9490000000    19.5410000000    29.9910000000
  149      H      23.9700000000    19.4230000000    28.9040000000
  150      H      24.9260000000    19.4160000000    30.4640000000
  151      H      23.1680000000    18.9060000000    30.4170000000
  152      O      22.6760000000    21.6330000000    29.2500000000
  153      C      29.7750000000    17.9340000000    24.4420000000
  154      H      30.6810000000    17.3240000000    24.4820000000
  155      H      29.4770000000    18.1120000000    23.4060000000
  156      H      29.9400000000    18.9160000000    24.8930000000
  157      S      28.3670000000    17.0940000000    25.2020000000
  158      C      28.9280000000    16.9770000000    26.9160000000
  159      H      29.2120000000    15.9250000000    26.9970000000
  160      H      29.6450000000    17.7280000000    27.2570000000
  161      H      28.0190000000    17.0440000000    27.5200000000
  162      O      28.5790000000    15.7410000000    24.5980000000
  163      C      25.3540000000    18.3650000000    23.3040000000
  164      H      25.1360000000    18.7510000000    22.3050000000
  165      H      25.6090000000    19.3000000000    23.8090000000
  166      H      26.1080000000    17.5750000000    23.3480000000
  167      S      23.8270000000    17.6720000000    23.9780000000
  168      C      22.8560000000    19.0700000000    23.3720000000
  169      H      23.3910000000    20.0110000000    23.5230000000
  170      H      22.6100000000    18.9910000000    22.3100000000
  171      H      21.9300000000    19.1380000000    23.9490000000
  172      O      24.1020000000    17.8880000000    25.4330000000
  173      C      16.6010000000     9.9770000000    25.2820000000
  174      H      16.0210000000     9.8120000000    24.3700000000
  175      H      16.0730000000     9.5710000000    26.1480000000
  176      H      16.9310000000    11.0150000000    25.3710000000
  177      S      18.0960000000     9.0310000000    24.9140000000
  178      C      18.9400000000     9.5260000000    26.4330000000
  179      H      19.9560000000     9.1350000000    26.3330000000
  180      H      18.9940000000    10.6130000000    26.5280000000
  181      H      18.3380000000     9.0160000000    27.1890000000
  182      O      18.7410000000     9.8510000000    23.8410000000
  183      C      24.4230000000    22.6770000000    25.6140000000
  184      H      25.0510000000    22.2670000000    24.8190000000
  185      H      24.8370000000    23.6270000000    25.9600000000
  186      H      24.3850000000    22.0040000000    26.4740000000
  187      S      22.7250000000    22.8720000000    25.0280000000
  188      C      21.9930000000    21.3200000000    25.5960000000
  189      H      21.0570000000    21.1160000000    25.0710000000
  190      H      22.7380000000    20.5310000000    25.4650000000
  191      H      21.7970000000    21.4270000000    26.6660000000
  192      O      22.8070000000    22.6220000000    23.5540000000
  193      C      20.8520000000    12.2780000000    21.9830000000
  194      H      21.6080000000    12.9130000000    22.4520000000
  195      H      20.3810000000    12.8990000000    21.2160000000
  196      H      20.2340000000    12.0160000000    22.8450000000
  197      S      21.5470000000    10.7410000000    21.3360000000
  198      C      22.0720000000    10.2820000000    23.0040000000
  199      H      21.1380000000    10.1970000000    23.5650000000
  200      H      22.5350000000     9.2920000000    22.9920000000
  201      H      22.7650000000    11.0850000000    23.2700000000
  202      O      22.7680000000    11.1560000000    20.5750000000
  203      C      17.9010000000    13.6200000000    28.9390000000
  204      H      17.3740000000    14.4860000000    29.3480000000
  205      H      17.4720000000    13.2340000000    28.0110000000
  206      H      17.8600000000    12.8390000000    29.7030000000
  207      S      19.6630000000    14.0180000000    28.9050000000
  208      C      19.7250000000    14.4430000000    27.1500000000
  209      H      20.7910000000    14.4640000000    26.9080000000
  210      H      19.1250000000    13.7600000000    26.5430000000
  211      H      19.2890000000    15.4390000000    27.0420000000
  212      O      20.4040000000    12.7310000000    28.7170000000
  213      C      27.7800000000    18.1050000000    20.0440000000
  214      H      28.1170000000    18.4950000000    21.0080000000
  215      H      28.0100000000    18.8290000000    19.2580000000
  216      H      26.6880000000    18.0930000000    20.0410000000
  217      S      28.4380000000    16.4990000000    19.5420000000
  218      C      27.8840000000    15.6420000000    21.0340000000
  219      H      28.5190000000    15.9420000000    21.8710000000
  220      H      26.8640000000    15.9410000000    21.2880000000
  221      H      27.8470000000    14.5830000000    20.7650000000
  222      O      29.9020000000    16.6240000000    19.8260000000
  223      C      25.2820000000    15.1690000000    33.3490000000
  224      H      25.0810000000    14.1900000000    32.9060000000
  225      H      24.6300000000    15.2990000000    34.2160000000
  226      H      25.0340000000    15.8990000000    32.5750000000
  227      S      27.0320000000    15.0630000000    33.7880000000
  228      C      26.8730000000    14.7400000000    35.5590000000
  229      H      27.8410000000    14.6010000000    36.0460000000
  230      H      26.3780000000    15.6350000000    35.9450000000
  231      H      26.1620000000    13.9670000000    35.8610000000
  232      O      27.5630000000    16.4630000000    33.8050000000
  233      C      29.5640000000    22.3580000000    28.2060000000
  234      H      30.1270000000    21.4630000000    28.4840000000
  235      H      30.1200000000    23.2880000000    28.3490000000
  236      H      28.7120000000    22.3540000000    28.8900000000
  237      S      28.8840000000    22.1180000000    26.5490000000
  238      C      27.7700000000    20.7470000000    26.9310000000
  239      H      28.4380000000    19.9140000000    27.1660000000
  240      H      27.1430000000    21.0110000000    27.7870000000
  241      H      27.2220000000    20.4570000000    26.0310000000
  242      O      30.0620000000    21.4450000000    25.9160000000
  243      C      26.5080000000    12.1540000000    31.8290000000
  244      H      25.9090000000    12.4040000000    30.9490000000
  245      H      25.9200000000    12.1360000000    32.7490000000
  246      H      27.3100000000    12.8950000000    31.8840000000
  247      S      27.1010000000    10.4600000000    31.6190000000
  248      C      28.0550000000    10.9020000000    30.1500000000
  249      H      28.1870000000    10.0520000000    29.4760000000
  250      H      27.7130000000    11.8040000000    29.6350000000
  251      H      29.0230000000    11.2160000000    30.5480000000
  252      O      25.8960000000     9.7720000000    31.0570000000
  253      C      24.4910000000    10.0280000000    28.5080000000
  254      H      23.9830000000     9.0620000000    28.4580000000
  255      H      25.5340000000     9.7820000000    28.7250000000
  256      H      23.9810000000    10.6620000000    29.2380000000
  257      S      24.4290000000    10.6970000000    26.8310000000
  258      C      22.6350000000    10.5340000000    26.6880000000
  259      H      22.3210000000     9.4950000000    26.5520000000
  260      H      22.2120000000    10.8810000000    27.6350000000
  261      H      22.4070000000    11.1730000000    25.8320000000
  262      O      24.7710000000     9.5440000000    25.9390000000
  263      C      35.2510000000    15.7470000000    28.7780000000
  264      H      35.7500000000    14.8290000000    28.4560000000
  265      H      35.2840000000    16.5880000000    28.0820000000
  266      H      35.7610000000    16.1220000000    29.6690000000
  267      S      33.6250000000    15.2000000000    29.3470000000
  268      C      32.9740000000    14.7450000000    27.7240000000
  269      H      33.8210000000    14.2100000000    27.2870000000
  270      H      32.1010000000    14.0950000000    27.8250000000
  271      H      32.6590000000    15.6210000000    27.1510000000
  272      O      32.8880000000    16.4530000000    29.7010000000
  273      C      25.4170000000    10.4820000000    22.1560000000
  274      H      25.6750000000     9.6240000000    21.5300000000
  275      H      24.8310000000    10.2030000000    23.0350000000
  276      H      24.8240000000    11.1670000000    21.5440000000
  277      S      27.0270000000    11.1040000000    22.6920000000
  278      C      26.5280000000    12.4980000000    23.7280000000
  279      H      25.9260000000    12.2070000000    24.5930000000
  280      H      27.3420000000    13.1170000000    24.1140000000
  281      H      25.9470000000    13.2190000000    23.1470000000
  282      O      27.4870000000    11.8340000000    21.4690000000
  283      C      18.3700000000    16.8580000000    24.4920000000
  284      H      18.2000000000    15.8240000000    24.8060000000
  285      H      18.4110000000    17.4040000000    25.4380000000
  286      H      17.6100000000    17.2430000000    23.8070000000
  287      S      20.0290000000    17.0140000000    23.7950000000
  288      C      19.8650000000    15.5570000000    22.7390000000
  289      H      19.4640000000    14.7050000000    23.2950000000
  290      H      19.2360000000    15.7870000000    21.8740000000
  291      H      20.8870000000    15.3570000000    22.4090000000
  292      O      20.8490000000    16.5150000000    24.9450000000
 ----------------------------------------------------------------
 Nuclear Repulsion Energy =       48052.76936803 hartrees
 There are      602 alpha and      602 beta electrons
 Requested basis set is 6-31+G(d)
 There are 962 shells and 2681 basis functions

 Total QAlloc Memory Limit  16000 MB
 Mega-Array Size      7821 MB
 MEM_STATIC part      8000 MB
 A cutoff of  1.0D-14 yielded 178846 shell pairs
 There are   1541179 function pairs
 Smallest overlap matrix eigenvalue = 4.52E-07
 Linear dependence detected in AO basis
 Tighter screening thresholds may be required for diffuse basis sets
 Use S2THRESH > 14 and THRESH = 14 in case of SCF convergence issues
 Number of orthogonalized atomic orbitals = 2679
 Maximum deviation from orthogonality = 1.001E-10

 Scale SEOQF with 1.000000e-03/1.000000e-03/1.000000e-03

 Standard Electronic Orientation quadrupole field applied
 Nucleus-field energy     =    -0.0000004894 hartrees
Attempting to make child job directory: /local/scratch/users/ymao/r7.00_frame_0028_almo_B3LYP_dp.in20210311133745//Frg1/
Attempting to make child job directory: /local/scratch/users/ymao/r7.00_frame_0028_almo_B3LYP_dp.in20210311133745//Frg2/
Creating input file /local/scratch/users/ymao/r7.00_frame_0028_almo_B3LYP_dp.in20210311133745/Frg1.input
using default PutDataFrgm: nothing
calling putenv with: QCSCRATCH=/local/scratch/users/ymao/r7.00_frame_0028_almo_B3LYP_dp.in20210311133745/ 
Spawning Job For Fragment 0
Done Job For Fragment 0
calling putenv with: QCSCRATCH=/local/scratch/users/ymao 
calling putenv with: QCTHREADS=8 
Creating input file /local/scratch/users/ymao/r7.00_frame_0028_almo_B3LYP_dp.in20210311133745/Frg2.input
using default PutDataFrgm: nothing
calling putenv with: QCSCRATCH=/local/scratch/users/ymao/r7.00_frame_0028_almo_B3LYP_dp.in20210311133745/ 
Spawning Job For Fragment 1
Done Job For Fragment 1
calling putenv with: QCSCRATCH=/local/scratch/users/ymao 
calling putenv with: QCTHREADS=8 
 Time for running child jobs:  CPU 0.90 s  wall 26791.81 s

 -----------------------------------------------------------------------
  General SCF calculation program by
  Eric Jon Sundstrom, Paul Horn, Yuezhi Mao, Dmitri Zuev, Alec White,
  David Stuck, Shaama M.S., Shane Yost, Joonho Lee, David Small,
  Daniel Levine, Susi Lehtola, Hugh Burton, Evgeny Epifanovsky,
  Bang C. Huynh
 -----------------------------------------------------------------------
Performing Restricted Closed Shell SCFMI
Doing General SCFMI
 Exchange:     0.2000 Hartree-Fock + 0.0800 Slater + 0.7200 B88
 Correlation:  0.1900 VWN1RPA + 0.8100 LYP
 Using Euler-Maclaurin-Lebedev (75,302) quadrature formula
performing fock build before subrot guess so that all methods have access
Printing subrot_rss_gen Method Specification:
Occupied Subspace Method is 0
Virtual Subspace Method is 0
Energy prior to optimization (guess energy) = -15340.668527565475
Begin Timing: Total SCF Calculation
begin iterations for algorithm: DIIS         
the SCF tolerance is set to 1.00e-08
    1  -15340.6685275655      4.83e-05     00000 
    2  -15340.6692553260      6.98e-05     00000 
    3  -15340.6817409321      1.93e-05     00000 
    4  -15340.6825934223      8.05e-06     00000 
    5  -15340.6827850791      3.25e-06     00000 
    6  -15340.6828137522      2.09e-06     00000 
    7  -15340.6828257207      1.36e-06     00000 
    8  -15340.6828308388      8.03e-07     00000 
    9  -15340.6828326127      4.66e-07     00000 
   10  -15340.6828330719      3.43e-07     00000 
   11  -15340.6828333094      2.46e-07     00000 
   12  -15340.6828334521      1.43e-07     00000 
   13  -15340.6828335011      7.88e-08     00000 
   14  -15340.6828335165      4.94e-08     00000 
   15  -15340.6828335212      3.89e-08     00000 
   16  -15340.6828335249      1.99e-08     00000 
   17  -15340.6828335262      1.05e-08     00000 
   18  -15340.6828335263      6.64e-09     00000 Convergence criterion met
write pseudocanon occs and virts to disk
write pseudocanon orbital energies to disk
Timing for Total SCF: 57328.00s (wall), 454294.12s (cpu)
SCFMI Energy  -15340.6828335263
<S^2>            0.00000
 Total energy in the final basis set =   -15340.6828335263
    ==================================================
        The end of Object-Oriented SCFman: SCFMI      
    ==================================================
 
 --------------------------------------------------------------
 
                    Orbital Energies (a.u.)
 --------------------------------------------------------------
 
 Alpha MOs
 -- Occupied --
-89.0359 -89.0227 -89.0182 -89.0176 -89.0156 -89.0146 -89.0052 -89.0022
-89.0022 -89.0013 -89.0004 -89.0001 -88.9989 -88.9973 -88.9953 -88.9944
-88.9934 -88.9923 -88.9919 -88.9903 -88.9870 -88.9849 -88.9840 -88.9810
-88.9781 -88.9740 -88.9727 -19.1508 -19.1350 -19.1339 -19.1339 -19.1292
-19.1276 -19.1263 -19.1204 -19.1201 -19.1197 -19.1192 -19.1135 -19.1121
-19.1117 -19.1116 -19.1113 -19.1109 -19.1094 -19.1048 -19.1028 -19.1027
-19.1013 -19.1008 -19.1002 -19.0968 -19.0853 -19.0820 -19.0812 -14.3551
-10.2909 -10.2545 -10.2507 -10.2450 -10.2435 -10.2399 -10.2394 -10.2373
-10.2372 -10.2296 -10.2274 -10.2274 -10.2261 -10.2243 -10.2239 -10.2237
-10.2234 -10.2217 -10.2209 -10.2208 -10.2202 -10.2196 -10.2185 -10.2155
-10.2153 -10.2148 -10.2144 -10.2142 -10.2135 -10.2124 -10.2121 -10.2120
-10.2118 -10.2110 -10.2101 -10.2089 -10.2084 -10.2056 -10.2049 -10.2040
-10.2021 -10.1994 -10.1990 -10.1988 -10.1988 -10.1978 -10.1969 -10.1968
-10.1967 -10.1962 -10.1960 -10.1955 -10.1906 -10.1902 -10.1876 -10.1873
-10.1869 -10.1843 -10.1838 -10.1812 -10.1762  -8.0825  -8.0692  -8.0637
 -8.0637  -8.0622  -8.0612  -8.0510  -8.0484  -8.0479  -8.0477  -8.0466
 -8.0462  -8.0453  -8.0436  -8.0419  -8.0401  -8.0397  -8.0387  -8.0379
 -8.0368  -8.0334  -8.0314  -8.0305  -8.0266  -8.0236  -8.0195  -8.0188
 -6.0469  -6.0455  -6.0399  -6.0335  -6.0320  -6.0281  -6.0280  -6.0271
 -6.0269  -6.0269  -6.0265  -6.0253  -6.0251  -6.0245  -6.0210  -6.0208
 -6.0196  -6.0185  -6.0154  -6.0140  -6.0128  -6.0123  -6.0119  -6.0115
 -6.0111  -6.0108  -6.0108  -6.0103  -6.0097  -6.0096  -6.0093  -6.0087
 -6.0083  -6.0079  -6.0068  -6.0061  -6.0056  -6.0055  -6.0051  -6.0048
 -6.0045  -6.0041  -6.0038  -6.0037  -6.0032  -6.0030  -6.0028  -6.0027
 -6.0021  -6.0016  -6.0012  -6.0010  -6.0008  -5.9999  -5.9993  -5.9978
 -5.9974  -5.9972  -5.9966  -5.9962  -5.9959  -5.9955  -5.9947  -5.9943
 -5.9940  -5.9935  -5.9911  -5.9906  -5.9894  -5.9887  -5.9881  -5.9880
 -5.9868  -5.9841  -5.9840  -5.9828  -5.9826  -5.9819  -5.9811  -5.9769
 -5.9763  -1.0629  -1.0490  -1.0463  -1.0437  -1.0403  -1.0389  -1.0374
 -1.0325  -1.0311  -1.0302  -1.0264  -1.0263  -1.0247  -1.0243  -1.0226
 -1.0225  -1.0218  -1.0213  -1.0181  -1.0151  -1.0115  -1.0113  -1.0107
 -1.0092  -1.0079  -0.9983  -0.9960  -0.9932  -0.9208  -0.8382  -0.8377
 -0.8266  -0.8219  -0.8193  -0.8156  -0.8146  -0.8108  -0.8057  -0.8038
 -0.8014  -0.8013  -0.8004  -0.7992  -0.7991  -0.7987  -0.7958  -0.7951
 -0.7927  -0.7904  -0.7890  -0.7883  -0.7872  -0.7872  -0.7842  -0.7726
 -0.7702  -0.7658  -0.7654  -0.7537  -0.7504  -0.7502  -0.7482  -0.7471
 -0.7458  -0.7442  -0.7345  -0.7324  -0.7312  -0.7296  -0.7289  -0.7270
 -0.7268  -0.7247  -0.7242  -0.7239  -0.7230  -0.7199  -0.7184  -0.7168
 -0.7145  -0.7108  -0.7097  -0.7048  -0.7021  -0.7005  -0.6977  -0.6470
 -0.6399  -0.6354  -0.6338  -0.6299  -0.6288  -0.6278  -0.6243  -0.6202
 -0.6191  -0.6173  -0.6147  -0.6129  -0.6126  -0.6122  -0.6111  -0.6106
 -0.6096  -0.6064  -0.6055  -0.6036  -0.6014  -0.5981  -0.5975  -0.5957
 -0.5943  -0.5882  -0.5876  -0.5863  -0.5861  -0.5767  -0.5338  -0.5272
 -0.5096  -0.5036  -0.5009  -0.5004  -0.4990  -0.4979  -0.4968  -0.4962
 -0.4941  -0.4925  -0.4918  -0.4915  -0.4909  -0.4902  -0.4900  -0.4883
 -0.4876  -0.4857  -0.4847  -0.4835  -0.4816  -0.4808  -0.4804  -0.4793
 -0.4787  -0.4786  -0.4769  -0.4765  -0.4759  -0.4755  -0.4749  -0.4745
 -0.4740  -0.4738  -0.4728  -0.4726  -0.4718  -0.4715  -0.4704  -0.4697
 -0.4680  -0.4674  -0.4671  -0.4669  -0.4657  -0.4649  -0.4645  -0.4636
 -0.4630  -0.4621  -0.4617  -0.4611  -0.4609  -0.4598  -0.4598  -0.4596
 -0.4593  -0.4591  -0.4587  -0.4583  -0.4582  -0.4577  -0.4574  -0.4562
 -0.4561  -0.4553  -0.4551  -0.4540  -0.4528  -0.4523  -0.4520  -0.4519
 -0.4513  -0.4505  -0.4499  -0.4481  -0.4470  -0.4462  -0.4452  -0.4449
 -0.4448  -0.4444  -0.4435  -0.4430  -0.4425  -0.4402  -0.4399  -0.4395
 -0.4375  -0.4370  -0.4366  -0.4357  -0.4347  -0.4343  -0.4324  -0.4315
 -0.4314  -0.4308  -0.4305  -0.4302  -0.4297  -0.4291  -0.4283  -0.4274
 -0.4264  -0.4259  -0.4258  -0.4250  -0.4242  -0.4237  -0.4228  -0.4223
 -0.4220  -0.4206  -0.4205  -0.4179  -0.4179  -0.4177  -0.4170  -0.4156
 -0.4150  -0.4125  -0.4123  -0.4121  -0.4113  -0.4102  -0.4091  -0.4087
 -0.4083  -0.4077  -0.4065  -0.4063  -0.4056  -0.4043  -0.4040  -0.4030
 -0.4017  -0.4015  -0.4009  -0.4005  -0.4004  -0.4002  -0.3990  -0.3981
 -0.3955  -0.3946  -0.3944  -0.3942  -0.3930  -0.3921  -0.3911  -0.3908
 -0.3890  -0.3885  -0.3880  -0.3877  -0.3862  -0.3849  -0.3848  -0.3842
 -0.3832  -0.3828  -0.3824  -0.3802  -0.3788  -0.3781  -0.3777  -0.3773
 -0.3759  -0.3754  -0.3750  -0.3723  -0.3717  -0.3705  -0.3692  -0.3680
 -0.3670  -0.3658  -0.3652  -0.3646  -0.3635  -0.3632  -0.3616  -0.3598
 -0.3594  -0.3593  -0.3581  -0.3562  -0.3555  -0.3539  -0.3533  -0.3517
 -0.3496  -0.3491  -0.3488  -0.3456  -0.3370  -0.3354  -0.3318  -0.3251
 -0.3234  -0.3164  -0.3126  -0.2950  -0.2936  -0.2928  -0.2909  -0.2884
 -0.2835  -0.2826  -0.2822  -0.2802  -0.2759  -0.2759  -0.2746  -0.2722
 -0.2718  -0.2707  -0.2703  -0.2699  -0.2681  -0.2673  -0.2656  -0.2645
 -0.2619  -0.2619  -0.2609  -0.2607  -0.2603  -0.2593  -0.2560  -0.2542
 -0.2520  -0.2516  -0.2480  -0.2474  -0.2472  -0.2450  -0.2430  -0.2425
 -0.2417  -0.2415  -0.2401  -0.2399  -0.2386  -0.2376  -0.2371  -0.2342
 -0.2331  -0.2302  -0.2275  -0.2268  -0.2266  -0.2252  -0.2224  -0.2149
 -0.2119  -0.2076
 -- Virtual --
 -0.0461  -0.0340  -0.0329  -0.0318  -0.0287  -0.0250  -0.0194  -0.0149
 -0.0146  -0.0138  -0.0132  -0.0126  -0.0121  -0.0101  -0.0090  -0.0083
 -0.0071  -0.0067  -0.0052  -0.0046  -0.0036  -0.0032  -0.0024  -0.0020
 -0.0012  -0.0008  -0.0004   0.0005   0.0010   0.0022   0.0031   0.0039
  0.0041   0.0049   0.0057   0.0068   0.0070   0.0076   0.0081   0.0092
  0.0097   0.0111   0.0117   0.0123   0.0128   0.0131   0.0148   0.0155
  0.0159   0.0164   0.0172   0.0177   0.0184   0.0191   0.0194   0.0201
  0.0210   0.0216   0.0219   0.0222   0.0231   0.0237   0.0252   0.0257
  0.0262   0.0273   0.0278   0.0281   0.0290   0.0294   0.0302   0.0306
  0.0310   0.0323   0.0331   0.0332   0.0339   0.0353   0.0359   0.0361
  0.0366   0.0371   0.0380   0.0385   0.0390   0.0399   0.0402   0.0414
  0.0417   0.0426   0.0431   0.0435   0.0439   0.0446   0.0448   0.0458
  0.0470   0.0472   0.0476   0.0481   0.0487   0.0488   0.0502   0.0507
  0.0511   0.0515   0.0518   0.0530   0.0542   0.0546   0.0552   0.0556
  0.0563   0.0570   0.0576   0.0581   0.0585   0.0588   0.0594   0.0603
  0.0609   0.0614   0.0619   0.0626   0.0629   0.0635   0.0644   0.0652
  0.0654   0.0666   0.0668   0.0673   0.0679   0.0691   0.0696   0.0700
  0.0704   0.0723   0.0728   0.0733   0.0735   0.0745   0.0750   0.0760
  0.0762   0.0767   0.0774   0.0777   0.0784   0.0790   0.0802   0.0809
  0.0817   0.0822   0.0833   0.0835   0.0842   0.0848   0.0859   0.0864
  0.0868   0.0873   0.0879   0.0884   0.0886   0.0890   0.0909   0.0915
  0.0921   0.0926   0.0938   0.0941   0.0943   0.0957   0.0958   0.0967
  0.0969   0.0970   0.0978   0.0987   0.0994   0.0996   0.0997   0.1013
  0.1018   0.1022   0.1031   0.1033   0.1045   0.1051   0.1055   0.1068
  0.1070   0.1073   0.1075   0.1089   0.1097   0.1099   0.1105   0.1109
  0.1111   0.1122   0.1129   0.1138   0.1143   0.1147   0.1163   0.1171
  0.1176   0.1184   0.1186   0.1192   0.1199   0.1207   0.1213   0.1219
  0.1220   0.1229   0.1238   0.1244   0.1250   0.1262   0.1266   0.1273
  0.1274   0.1286   0.1294   0.1299   0.1304   0.1311   0.1323   0.1324
  0.1335   0.1342   0.1347   0.1352   0.1355   0.1358   0.1368   0.1371
  0.1376   0.1380   0.1387   0.1389   0.1397   0.1407   0.1411   0.1418
  0.1420   0.1432   0.1437   0.1438   0.1450   0.1450   0.1454   0.1462
  0.1470   0.1478   0.1483   0.1491   0.1493   0.1500   0.1508   0.1511
  0.1515   0.1523   0.1535   0.1540   0.1545   0.1545   0.1549   0.1556
  0.1563   0.1568   0.1575   0.1576   0.1587   0.1592   0.1596   0.1602
  0.1610   0.1614   0.1623   0.1630   0.1633   0.1635   0.1645   0.1649
  0.1652   0.1658   0.1662   0.1677   0.1679   0.1683   0.1687   0.1696
  0.1700   0.1707   0.1711   0.1720   0.1725   0.1730   0.1739   0.1743
  0.1749   0.1755   0.1761   0.1763   0.1772   0.1779   0.1783   0.1793
  0.1795   0.1800   0.1805   0.1812   0.1817   0.1827   0.1832   0.1838
  0.1839   0.1845   0.1854   0.1858   0.1863   0.1867   0.1878   0.1883
  0.1896   0.1901   0.1907   0.1909   0.1916   0.1917   0.1933   0.1934
  0.1937   0.1944   0.1952   0.1957   0.1965   0.1970   0.1980   0.1982
  0.1992   0.2003   0.2005   0.2008   0.2013   0.2024   0.2026   0.2038
  0.2041   0.2051   0.2059   0.2066   0.2070   0.2072   0.2080   0.2085
  0.2091   0.2095   0.2102   0.2107   0.2119   0.2129   0.2136   0.2143
  0.2147   0.2149   0.2155   0.2161   0.2171   0.2173   0.2183   0.2191
  0.2198   0.2203   0.2205   0.2213   0.2219   0.2220   0.2222   0.2235
  0.2239   0.2247   0.2253   0.2269   0.2273   0.2274   0.2278   0.2283
  0.2291   0.2295   0.2307   0.2311   0.2318   0.2326   0.2331   0.2333
  0.2341   0.2346   0.2352   0.2357   0.2368   0.2370   0.2377   0.2385
  0.2391   0.2396   0.2409   0.2413   0.2418   0.2425   0.2430   0.2437
  0.2446   0.2451   0.2457   0.2464   0.2476   0.2482   0.2491   0.2493
  0.2498   0.2507   0.2513   0.2522   0.2526   0.2529   0.2537   0.2551
  0.2554   0.2572   0.2572   0.2577   0.2585   0.2588   0.2601   0.2610
  0.2612   0.2618   0.2623   0.2630   0.2635   0.2645   0.2654   0.2661
  0.2665   0.2676   0.2685   0.2692   0.2700   0.2703   0.2722   0.2726
  0.2734   0.2750   0.2753   0.2760   0.2766   0.2776   0.2785   0.2789
  0.2793   0.2800   0.2805   0.2807   0.2828   0.2833   0.2840   0.2845
  0.2860   0.2862   0.2867   0.2877   0.2882   0.2893   0.2900   0.2911
  0.2919   0.2922   0.2923   0.2941   0.2949   0.2957   0.2974   0.2979
  0.2986   0.2994   0.2997   0.3000   0.3010   0.3021   0.3028   0.3037
  0.3043   0.3054   0.3058   0.3063   0.3072   0.3075   0.3088   0.3099
  0.3108   0.3118   0.3123   0.3134   0.3139   0.3149   0.3154   0.3158
  0.3166   0.3171   0.3180   0.3182   0.3194   0.3207   0.3214   0.3218
  0.3220   0.3238   0.3255   0.3264   0.3267   0.3273   0.3286   0.3292
  0.3297   0.3309   0.3314   0.3322   0.3335   0.3351   0.3352   0.3364
  0.3372   0.3377   0.3387   0.3397   0.3402   0.3412   0.3420   0.3428
  0.3440   0.3446   0.3451   0.3455   0.3471   0.3486   0.3489   0.3495
  0.3502   0.3512   0.3516   0.3528   0.3540   0.3546   0.3550   0.3559
  0.3575   0.3581   0.3585   0.3606   0.3608   0.3620   0.3623   0.3631
  0.3639   0.3644   0.3649   0.3656   0.3664   0.3683   0.3687   0.3703
  0.3708   0.3711   0.3722   0.3728   0.3746   0.3755   0.3759   0.3764
  0.3769   0.3777   0.3789   0.3795   0.3813   0.3816   0.3821   0.3833
  0.3849   0.3856   0.3859   0.3873   0.3879   0.3891   0.3904   0.3912
  0.3917   0.3928   0.3928   0.3946   0.3955   0.3964   0.3968   0.3974
  0.3986   0.4003   0.4014   0.4022   0.4029   0.4041   0.4046   0.4052
  0.4064   0.4071   0.4075   0.4086   0.4102   0.4107   0.4122   0.4133
  0.4139   0.4153   0.4157   0.4165   0.4171   0.4181   0.4195   0.4205
  0.4213   0.4222   0.4225   0.4235   0.4244   0.4246   0.4259   0.4268
  0.4284   0.4297   0.4303   0.4311   0.4324   0.4334   0.4340   0.4347
  0.4365   0.4376   0.4385   0.4390   0.4395   0.4416   0.4420   0.4427
  0.4438   0.4441   0.4457   0.4462   0.4483   0.4494   0.4504   0.4511
  0.4534   0.4535   0.4550   0.4566   0.4586   0.4591   0.4597   0.4610
  0.4620   0.4631   0.4637   0.4650   0.4655   0.4672   0.4679   0.4700
  0.4712   0.4719   0.4727   0.4740   0.4767   0.4773   0.4787   0.4797
  0.4813   0.4825   0.4852   0.4858   0.4867   0.4887   0.4900   0.4914
  0.4932   0.4946   0.4950   0.4989   0.4993   0.5014   0.5016   0.5028
  0.5032   0.5043   0.5063   0.5068   0.5087   0.5092   0.5117   0.5138
  0.5147   0.5158   0.5171   0.5191   0.5223   0.5239   0.5253   0.5259
  0.5271   0.5297   0.5310   0.5336   0.5343   0.5352   0.5374   0.5380
  0.5413   0.5419   0.5441   0.5461   0.5473   0.5479   0.5481   0.5516
  0.5521   0.5542   0.5557   0.5571   0.5575   0.5602   0.5605   0.5635
  0.5645   0.5666   0.5683   0.5690   0.5702   0.5723   0.5744   0.5750
  0.5763   0.5770   0.5794   0.5801   0.5830   0.5834   0.5843   0.5855
  0.5867   0.5873   0.5881   0.5896   0.5916   0.5921   0.5936   0.5962
  0.5978   0.5982   0.5991   0.6005   0.6016   0.6027   0.6038   0.6052
  0.6081   0.6085   0.6100   0.6110   0.6119   0.6130   0.6145   0.6162
  0.6173   0.6182   0.6195   0.6212   0.6219   0.6226   0.6244   0.6255
  0.6262   0.6278   0.6289   0.6300   0.6314   0.6323   0.6337   0.6343
  0.6362   0.6372   0.6390   0.6401   0.6403   0.6427   0.6429   0.6430
  0.6439   0.6449   0.6459   0.6475   0.6478   0.6485   0.6501   0.6521
  0.6527   0.6535   0.6553   0.6558   0.6566   0.6572   0.6590   0.6598
  0.6611   0.6622   0.6633   0.6642   0.6649   0.6658   0.6687   0.6690
  0.6701   0.6710   0.6722   0.6735   0.6748   0.6760   0.6765   0.6775
  0.6796   0.6805   0.6814   0.6821   0.6836   0.6842   0.6847   0.6851
  0.6858   0.6869   0.6894   0.6896   0.6918   0.6929   0.6936   0.6943
  0.6959   0.6972   0.6979   0.6985   0.6990   0.7008   0.7024   0.7046
  0.7060   0.7070   0.7075   0.7081   0.7085   0.7102   0.7129   0.7134
  0.7149   0.7154   0.7163   0.7174   0.7185   0.7202   0.7232   0.7234
  0.7242   0.7272   0.7278   0.7311   0.7318   0.7323   0.7334   0.7353
  0.7380   0.7382   0.7407   0.7410   0.7429   0.7444   0.7453   0.7483
  0.7484   0.7499   0.7519   0.7534   0.7548   0.7565   0.7574   0.7596
  0.7613   0.7628   0.7661   0.7664   0.7680   0.7694   0.7698   0.7711
  0.7733   0.7756   0.7775   0.7777   0.7790   0.7811   0.7819   0.7840
  0.7862   0.7873   0.7890   0.7892   0.7906   0.7954   0.7958   0.7972
  0.7980   0.8001   0.8017   0.8028   0.8034   0.8060   0.8069   0.8077
  0.8100   0.8126   0.8127   0.8147   0.8149   0.8170   0.8184   0.8200
  0.8213   0.8225   0.8240   0.8249   0.8267   0.8291   0.8305   0.8311
  0.8333   0.8340   0.8351   0.8369   0.8383   0.8397   0.8399   0.8423
  0.8430   0.8448   0.8466   0.8474   0.8483   0.8494   0.8504   0.8514
  0.8535   0.8548   0.8567   0.8587   0.8591   0.8598   0.8610   0.8619
  0.8629   0.8656   0.8658   0.8674   0.8687   0.8700   0.8714   0.8726
  0.8734   0.8746   0.8759   0.8770   0.8789   0.8797   0.8814   0.8819
  0.8837   0.8847   0.8855   0.8865   0.8875   0.8894   0.8910   0.8924
  0.8933   0.8939   0.8958   0.8965   0.8973   0.8981   0.8989   0.8997
  0.9024   0.9025   0.9048   0.9057   0.9084   0.9091   0.9098   0.9107
  0.9118   0.9132   0.9155   0.9161   0.9172   0.9178   0.9187   0.9191
  0.9206   0.9231   0.9245   0.9254   0.9266   0.9273   0.9281   0.9291
  0.9294   0.9311   0.9325   0.9343   0.9356   0.9356   0.9368   0.9384
  0.9394   0.9407   0.9414   0.9429   0.9443   0.9454   0.9470   0.9499
  0.9509   0.9524   0.9530   0.9533   0.9554   0.9560   0.9575   0.9588
  0.9595   0.9610   0.9626   0.9633   0.9642   0.9649   0.9665   0.9669
  0.9677   0.9687   0.9696   0.9714   0.9721   0.9735   0.9739   0.9741
  0.9759   0.9771   0.9784   0.9801   0.9812   0.9823   0.9829   0.9843
  0.9858   0.9863   0.9881   0.9885   0.9897   0.9915   0.9919   0.9927
  0.9938   0.9945   0.9951   0.9957   0.9971   0.9975   0.9995   1.0005
  1.0021   1.0029   1.0036   1.0043   1.0058   1.0067   1.0078   1.0091
  1.0100   1.0114   1.0122   1.0139   1.0146   1.0162   1.0165   1.0182
  1.0187   1.0202   1.0208   1.0217   1.0220   1.0248   1.0261   1.0273
  1.0278   1.0304   1.0316   1.0323   1.0337   1.0339   1.0346   1.0356
  1.0360   1.0366   1.0390   1.0403   1.0414   1.0428   1.0445   1.0452
  1.0467   1.0488   1.0496   1.0510   1.0530   1.0546   1.0558   1.0571
  1.0576   1.0588   1.0607   1.0628   1.0637   1.0638   1.0649   1.0658
  1.0671   1.0696   1.0703   1.0708   1.0723   1.0734   1.0745   1.0757
  1.0777   1.0781   1.0812   1.0832   1.0843   1.0860   1.0879   1.0888
  1.0899   1.0918   1.0924   1.0960   1.0967   1.0972   1.0994   1.1012
  1.1031   1.1038   1.1053   1.1073   1.1082   1.1082   1.1100   1.1109
  1.1124   1.1134   1.1150   1.1160   1.1176   1.1186   1.1196   1.1213
  1.1218   1.1226   1.1231   1.1248   1.1265   1.1266   1.1276   1.1290
  1.1302   1.1317   1.1328   1.1340   1.1361   1.1381   1.1392   1.1403
  1.1408   1.1434   1.1449   1.1454   1.1456   1.1479   1.1487   1.1514
  1.1514   1.1524   1.1533   1.1546   1.1561   1.1577   1.1597   1.1604
  1.1619   1.1640   1.1647   1.1659   1.1666   1.1684   1.1695   1.1709
  1.1729   1.1735   1.1738   1.1769   1.1786   1.1802   1.1816   1.1841
  1.1848   1.1873   1.1886   1.1896   1.1906   1.1914   1.1924   1.1951
  1.1967   1.1985   1.1994   1.2001   1.2019   1.2024   1.2057   1.2062
  1.2087   1.2090   1.2116   1.2120   1.2140   1.2177   1.2193   1.2198
  1.2233   1.2238   1.2248   1.2258   1.2289   1.2307   1.2331   1.2372
  1.2376   1.2388   1.2402   1.2406   1.2431   1.2447   1.2466   1.2478
  1.2499   1.2532   1.2547   1.2562   1.2569   1.2596   1.2622   1.2626
  1.2654   1.2676   1.2694   1.2711   1.2733   1.2764   1.2795   1.2801
  1.2807   1.2831   1.2850   1.2878   1.2905   1.2924   1.2950   1.2962
  1.2978   1.3011   1.3045   1.3053   1.3073   1.3085   1.3104   1.3111
  1.3157   1.3173   1.3181   1.3212   1.3233   1.3238   1.3260   1.3264
  1.3290   1.3312   1.3331   1.3345   1.3365   1.3394   1.3429   1.3444
  1.3449   1.3457   1.3483   1.3489   1.3521   1.3559   1.3573   1.3582
  1.3594   1.3616   1.3634   1.3655   1.3666   1.3687   1.3702   1.3707
  1.3723   1.3744   1.3762   1.3784   1.3812   1.3820   1.3828   1.3837
  1.3863   1.3873   1.3874   1.3897   1.3901   1.3911   1.3924   1.3940
  1.3949   1.3970   1.3980   1.3993   1.3995   1.4026   1.4033   1.4052
  1.4070   1.4090   1.4101   1.4127   1.4137   1.4138   1.4168   1.4177
  1.4188   1.4211   1.4222   1.4242   1.4252   1.4255   1.4268   1.4291
  1.4322   1.4332   1.4345   1.4351   1.4379   1.4394   1.4403   1.4405
  1.4421   1.4461   1.4470   1.4490   1.4502   1.4524   1.4529   1.4536
  1.4556   1.4574   1.4587   1.4592   1.4607   1.4631   1.4646   1.4648
  1.4671   1.4700   1.4711   1.4717   1.4732   1.4745   1.4768   1.4788
  1.4795   1.4847   1.4862   1.4875   1.4896   1.4908   1.4932   1.4964
  1.4978   1.5007   1.5038   1.5049   1.5077   1.5088   1.5120   1.5152
  1.5160   1.5173   1.5199   1.5231   1.5274   1.5286   1.5302   1.5331
  1.5346   1.5366   1.5385   1.5416   1.5433   1.5444   1.5478   1.5520
  1.5546   1.5555   1.5586   1.5592   1.5618   1.5675   1.5701   1.5737
  1.5775   1.5807   1.5846   1.5863   1.5881   1.5943   1.6000   1.6035
  1.6051   1.6088   1.6099   1.6156   1.6218   1.6260   1.6281   1.6297
  1.6347   1.6374   1.6437   1.6449   1.6462   1.6506   1.6513   1.6566
  1.6570   1.6590   1.6598   1.6646   1.6658   1.6682   1.6693   1.6713
  1.6729   1.6771   1.6774   1.6789   1.6794   1.6818   1.6823   1.6832
  1.6857   1.6866   1.6871   1.6878   1.6886   1.6904   1.6913   1.6924
  1.6936   1.6949   1.6959   1.6979   1.6990   1.7002   1.7018   1.7042
  1.7056   1.7063   1.7074   1.7086   1.7100   1.7101   1.7118   1.7132
  1.7140   1.7160   1.7166   1.7187   1.7199   1.7213   1.7224   1.7239
  1.7252   1.7267   1.7269   1.7275   1.7286   1.7295   1.7303   1.7307
  1.7327   1.7343   1.7348   1.7361   1.7380   1.7388   1.7397   1.7399
  1.7409   1.7428   1.7442   1.7454   1.7486   1.7492   1.7511   1.7519
  1.7531   1.7548   1.7563   1.7580   1.7589   1.7599   1.7606   1.7618
  1.7631   1.7639   1.7651   1.7704   1.7712   1.7732   1.7763   1.7779
  1.7786   1.7815   1.7830   1.7841   1.7861   1.7875   1.7892   1.7908
  1.7921   1.7947   1.7979   1.7983   1.8006   1.8035   1.8056   1.8072
  1.8087   1.8113   1.8156   1.8159   1.8175   1.8222   1.8223   1.8247
  1.8261   1.8282   1.8315   1.8340   1.8365   1.8442   1.8486   1.8495
  1.8533   1.8566   1.8583   1.8604   1.8629   1.8636   1.8644   1.8651
  1.8704   1.8712   1.8728   1.8751   1.8758   1.8768   1.8783   1.8796
  1.8806   1.8826   1.8835   1.8847   1.8868   1.8889   1.8902   1.8905
  1.8914   1.8932   1.8942   1.8953   1.8966   1.8985   1.9000   1.9006
  1.9019   1.9033   1.9049   1.9061   1.9076   1.9089   1.9119   1.9128
  1.9142   1.9153   1.9162   1.9175   1.9191   1.9198   1.9200   1.9215
  1.9226   1.9253   1.9267   1.9284   1.9297   1.9303   1.9332   1.9343
  1.9351   1.9374   1.9399   1.9422   1.9447   1.9470   1.9491   1.9496
  1.9515   1.9559   1.9577   1.9585   1.9613   1.9647   1.9654   1.9679
  1.9739   1.9752   1.9757   1.9776   1.9895   1.9922   2.0000   2.0052
  2.0108   2.0195   2.0306   2.0350   2.0442   2.0463   2.0482   2.0507
  2.0534   2.0549   2.0572   2.0583   2.0589   2.0594   2.0601   2.0612
  2.0633   2.0642   2.0650   2.0659   2.0668   2.0687   2.0709   2.0725
  2.0740   2.0749   2.0763   2.0779   2.0782   2.0792   2.0813   2.0846
  2.0851   2.0861   2.0868   2.0896   2.0910   2.0921   2.0941   2.0944
  2.0953   2.0961   2.0970   2.0974   2.0985   2.1002   2.1015   2.1036
  2.1046   2.1080   2.1141   2.1155   2.1164   2.1213   2.1226   2.1264
  2.1271   2.1296   2.1334   2.1360   2.1401   2.1426   2.1454   2.1486
  2.1541   2.1571   2.1581   2.1681   2.1685   2.1695   2.1714   2.1730
  2.1794   2.1816   2.1824   2.1852   2.1873   2.1900   2.1942   2.1954
  2.1964   2.2019   2.2084   2.2096   2.2103   2.2134   2.2145   2.2165
  2.2181   2.2192   2.2243   2.2261   2.2276   2.2285   2.2305   2.2321
  2.2324   2.2343   2.2353   2.2361   2.2373   2.2376   2.2389   2.2398
  2.2402   2.2427   2.2441   2.2464   2.2477   2.2483   2.2487   2.2502
  2.2507   2.2516   2.2535   2.2555   2.2562   2.2572   2.2579   2.2586
  2.2601   2.2614   2.2623   2.2631   2.2640   2.2652   2.2664   2.2670
  2.2680   2.2688   2.2695   2.2710   2.2720   2.2745   2.2757   2.2765
  2.2773   2.2784   2.2786   2.2790   2.2794   2.2824   2.2832   2.2836
  2.2838   2.2847   2.2851   2.2876   2.2882   2.2894   2.2899   2.2914
  2.2924   2.2932   2.2937   2.2950   2.2953   2.2968   2.2970   2.2980
  2.2990   2.2998   2.3003   2.3010   2.3018   2.3022   2.3030   2.3041
  2.3048   2.3052   2.3069   2.3083   2.3085   2.3093   2.3103   2.3124
  2.3132   2.3158   2.3174   2.3183   2.3190   2.3203   2.3211   2.3222
  2.3225   2.3238   2.3243   2.3257   2.3261   2.3278   2.3282   2.3306
  2.3311   2.3330   2.3346   2.3351   2.3360   2.3370   2.3386   2.3408
  2.3428   2.3439   2.3453   2.3460   2.3476   2.3482   2.3504   2.3512
  2.3535   2.3548   2.3573   2.3596   2.3615   2.3624   2.3648   2.3668
  2.3691   2.3738   2.3747   2.3787   2.3799   2.3832   2.3842   2.3902
  2.3933   2.3939   2.3974   2.3988   2.4040   2.4078   2.4115   2.4148
  2.4184   2.4271   2.4373   2.4413   2.4609   2.4758   2.4959   2.5520
  2.5605   2.5861   2.6732   2.7211   2.7536   2.7727   2.8093   2.8266
  2.8272   2.8324   2.8362   2.8381   2.8421   2.8436   2.8445   2.8483
  2.8494   2.8508   2.8521   2.8550   2.8561   2.8578   2.8616   2.8627
  2.8661   2.8697   2.8712   2.8734   2.8761   2.8770   2.8789   2.8858
  2.8910   2.8940   2.9038   2.9093   2.9155   2.9733   3.1150   3.2826
  3.9438   3.9540   3.9560   3.9572   3.9625   3.9641   3.9651   3.9686
  3.9757   3.9769   3.9805   3.9813   3.9875   3.9888   3.9900   3.9926
  3.9937   3.9972   4.0038   4.0117   4.0132   4.0164   4.0176   4.0205
  4.0292   4.0410   4.0459   4.2067   4.2148   4.2243   4.2372   4.2383
  4.2459   4.2494   4.2504   4.2524   4.2555   4.2577   4.2593   4.2604
  4.2648   4.2658   4.2662   4.2695   4.2748   4.2762   4.2780   4.2828
  4.2841   4.2856   4.2875   4.2917   4.2928   4.2942   4.2958   4.3016
  4.3027   4.3056   4.3080   4.3094   4.3108   4.3171   4.3189   4.3199
  4.3230   4.3242   4.3247   4.3263   4.3288   4.3337   4.3343   4.3375
  4.3383   4.3432   4.3445   4.3482   4.3495   4.3559   4.3589   4.3619
  4.3654   4.3663   4.3680   4.3734   4.3750   4.3826   4.3872   4.3894
  4.3948   4.3987   4.4019   4.4050   4.4095   4.4156   4.4199   4.4208
  4.4244   4.4336   4.4497   4.4582   4.4612   4.4722   4.4730   4.5115
  4.5200   4.5249   4.5434   4.5502   4.5658   4.6268   4.6630   4.6988
  4.7118   4.7378   4.7906   4.8291   4.9193
 --------------------------------------------------------------
 
          Ground-State Mulliken Net Atomic Charges

     Atom                 Charge (a.u.)
  ----------------------------------------
      1 C                    -0.393804
      2 C                    -0.428689
      3 C                     0.103344
      4 C                    -0.722128
      5 C                    -0.424492
      6 C                    -0.456451
      7 H                     0.201360
      8 H                     0.214908
      9 H                     0.248138
     10 H                     0.178089
     11 H                     0.209141
     12 H                     0.210076
     13 H                     0.185861
     14 H                     0.231284
     15 H                     0.210458
     16 H                     0.180113
     17 H                     0.230384
     18 N                    -0.429852
     19 H                     0.485437
     20 C                     0.377682
     21 H                     0.150532
     22 O                    -0.561389
     23 C                    -1.040730
     24 H                     0.247974
     25 H                     0.236345
     26 H                     0.288568
     27 S                     1.042618
     28 C                    -0.888289
     29 H                     0.277921
     30 H                     0.294549
     31 H                     0.307332
     32 O                    -0.640860
     33 C                    -0.722534
     34 H                     0.242511
     35 H                     0.251676
     36 H                     0.243927
     37 S                     0.940755
     38 C                    -0.903160
     39 H                     0.280927
     40 H                     0.292836
     41 H                     0.223844
     42 O                    -0.757414
     43 C                    -0.952387
     44 H                     0.252883
     45 H                     0.260415
     46 H                     0.258703
     47 S                     1.021040
     48 C                    -0.882772
     49 H                     0.247236
     50 H                     0.263910
     51 H                     0.224980
     52 O                    -0.737628
     53 C                    -0.877554
     54 H                     0.240086
     55 H                     0.246301
     56 H                     0.260591
     57 S                     0.986469
     58 C                    -0.841420
     59 H                     0.254780
     60 H                     0.229190
     61 H                     0.260891
     62 O                    -0.712432
     63 C                    -0.848924
     64 H                     0.204196
     65 H                     0.270906
     66 H                     0.278357
     67 S                     0.986968
     68 C                    -0.832905
     69 H                     0.268339
     70 H                     0.205488
     71 H                     0.241475
     72 O                    -0.746366
     73 C                    -0.819853
     74 H                     0.246082
     75 H                     0.273274
     76 H                     0.259854
     77 S                     0.679610
     78 C                    -0.629916
     79 H                     0.225630
     80 H                     0.255644
     81 H                     0.277427
     82 O                    -0.737121
     83 C                    -0.825176
     84 H                     0.272808
     85 H                     0.260480
     86 H                     0.218045
     87 S                     0.796862
     88 C                    -0.773834
     89 H                     0.261739
     90 H                     0.262082
     91 H                     0.274773
     92 O                    -0.752925
     93 C                    -0.699825
     94 H                     0.300402
     95 H                     0.257671
     96 H                     0.234030
     97 S                     0.531363
     98 C                    -0.838909
     99 H                     0.298302
    100 H                     0.266160
    101 H                     0.248012
    102 O                    -0.595991
    103 C                    -0.799235
    104 H                     0.281560
    105 H                     0.285936
    106 H                     0.246418
    107 S                     0.638442
    108 C                    -0.846801
    109 H                     0.279780
    110 H                     0.246206
    111 H                     0.287389
    112 O                    -0.694260
    113 C                    -0.968462
    114 H                     0.288713
    115 H                     0.261074
    116 H                     0.217038
    117 S                     0.911551
    118 C                    -0.915813
    119 H                     0.288185
    120 H                     0.238319
    121 H                     0.271979
    122 O                    -0.592935
    123 C                    -1.000528
    124 H                     0.252246
    125 H                     0.232831
    126 H                     0.235227
    127 S                     1.114077
    128 C                    -0.856569
    129 H                     0.268714
    130 H                     0.257613
    131 H                     0.234649
    132 O                    -0.715334
    133 C                    -0.909112
    134 H                     0.263198
    135 H                     0.257019
    136 H                     0.307254
    137 S                     0.842255
    138 C                    -0.794034
    139 H                     0.248524
    140 H                     0.245619
    141 H                     0.211462
    142 O                    -0.749578
    143 C                    -0.756602
    144 H                     0.252594
    145 H                     0.234956
    146 H                     0.229613
    147 S                     0.838570
    148 C                    -0.770389
    149 H                     0.268595
    150 H                     0.233197
    151 H                     0.267455
    152 O                    -0.775330
    153 C                    -0.823270
    154 H                     0.254479
    155 H                     0.257592
    156 H                     0.291957
    157 S                     0.718488
    158 C                    -0.878484
    159 H                     0.290509
    160 H                     0.253714
    161 H                     0.288515
    162 O                    -0.657432
    163 C                    -0.886835
    164 H                     0.257690
    165 H                     0.264248
    166 H                     0.248572
    167 S                     0.787279
    168 C                    -0.948685
    169 H                     0.283429
    170 H                     0.277256
    171 H                     0.291901
    172 O                    -0.570130
    173 C                    -0.789504
    174 H                     0.242653
    175 H                     0.242425
    176 H                     0.244059
    177 S                     0.833336
    178 C                    -0.802740
    179 H                     0.238413
    180 H                     0.264542
    181 H                     0.267976
    182 O                    -0.749090
    183 C                    -0.832800
    184 H                     0.267643
    185 H                     0.246578
    186 H                     0.252860
    187 S                     0.844255
    188 C                    -0.943384
    189 H                     0.310226
    190 H                     0.278112
    191 H                     0.282324
    192 O                    -0.750681
    193 C                    -0.760577
    194 H                     0.263634
    195 H                     0.280505
    196 H                     0.256355
    197 S                     0.529189
    198 C                    -0.816229
    199 H                     0.268962
    200 H                     0.256890
    201 H                     0.302583
    202 O                    -0.698022
    203 C                    -0.854335
    204 H                     0.263635
    205 H                     0.248009
    206 H                     0.241417
    207 S                     0.572851
    208 C                    -0.653855
    209 H                     0.310751
    210 H                     0.226057
    211 H                     0.256855
    212 O                    -0.620317
    213 C                    -0.891456
    214 H                     0.252261
    215 H                     0.248922
    216 H                     0.238691
    217 S                     1.059219
    218 C                    -0.984191
    219 H                     0.310538
    220 H                     0.231998
    221 H                     0.290286
    222 O                    -0.714047
    223 C                    -0.614610
    224 H                     0.276813
    225 H                     0.264743
    226 H                     0.289220
    227 S                     0.345190
    228 C                    -0.859548
    229 H                     0.249544
    230 H                     0.249118
    231 H                     0.262715
    232 O                    -0.562139
    233 C                    -0.824432
    234 H                     0.262792
    235 H                     0.250303
    236 H                     0.222322
    237 S                     1.023070
    238 C                    -0.976374
    239 H                     0.276928
    240 H                     0.240164
    241 H                     0.256917
    242 O                    -0.734681
    243 C                    -0.965661
    244 H                     0.282781
    245 H                     0.251523
    246 H                     0.242207
    247 S                     1.129319
    248 C                    -1.106393
    249 H                     0.282024
    250 H                     0.260488
    251 H                     0.321101
    252 O                    -0.745411
    253 C                    -0.985821
    254 H                     0.248965
    255 H                     0.278197
    256 H                     0.241425
    257 S                     1.296766
    258 C                    -0.989597
    259 H                     0.254378
    260 H                     0.241944
    261 H                     0.298289
    262 O                    -0.757623
    263 C                    -0.841215
    264 H                     0.229526
    265 H                     0.256065
    266 H                     0.246586
    267 S                     0.850578
    268 C                    -0.796075
    269 H                     0.227183
    270 H                     0.294917
    271 H                     0.258576
    272 O                    -0.750400
    273 C                    -1.086322
    274 H                     0.242318
    275 H                     0.258759
    276 H                     0.306838
    277 S                     1.282104
    278 C                    -0.961951
    279 H                     0.268418
    280 H                     0.301691
    281 H                     0.266655
    282 O                    -0.706697
    283 C                    -0.683070
    284 H                     0.238186
    285 H                     0.323644
    286 H                     0.245628
    287 S                    -0.102662
    288 C                    -0.419510
    289 H                     0.248961
    290 H                     0.270270
    291 H                     0.260068
    292 O                    -0.540189
  ----------------------------------------
  Sum of atomic charges =     0.000000

 -----------------------------------------------------------------
                    Cartesian Multipole Moments
 -----------------------------------------------------------------
    Charge (ESU x 10^10)
                -0.0000
    Dipole Moment (Debye)
         X     -12.6863      Y      -1.4874      Z      15.8733
       Tot      20.3744
    Quadrupole Moments (Debye-Ang)
        XX   -1566.7999     XY    -125.7435     YY   -1085.1194
        XZ     124.6986     YZ     160.3762     ZZ      14.7334
    Octopole Moments (Debye-Ang^2)
       XXX  -93309.1375    XXY  -19897.6294    XYY  -26469.7483
       YYY  -47939.7737    XXZ  -28932.5463    XYZ    2813.3406
       YYZ  -26943.4511    XZZ   -5206.2513    YZZ   -3256.6294
       ZZZ  -32485.7246
    Hexadecapole Moments (Debye-Ang^3)
      XXXX ************   XXXY ************   XXYY -907120.3977
      XYYY ************   YYYY ************   XXXZ ************
      XXYZ -351745.9376   XYYZ -636568.1286   YYYZ ************
      XXZZ -987870.8568   XYZZ  -84130.9932   YYZZ -897292.5955
      XZZZ -923292.1098   YZZZ -632322.1035   ZZZZ ************
 -----------------------------------------------------------------
Archival summary:
[...]
    2  -0.0063499   0.0046770   0.0035330  -0.0344431  -0.0272609   0.0055804
    3   0.0019143  -0.0011228   0.0292222   0.0022158  -0.0278857  -0.0038520
          139         140         141         142         143         144
    1   0.0143465  -0.0075212   0.0186007  -0.0178855   0.0033598   0.0044179
    2  -0.0210100   0.0294555   0.0038433   0.0898873  -0.0014109   0.0322957
    3  -0.0203315  -0.0172362   0.0149747   0.0620393   0.0000793  -0.0076447
          145         146         147         148         149         150
    1   0.0353520   0.0064134  -0.0071143   0.0036639   0.0040922   0.0313532
    2  -0.0082478  -0.0033427   0.0089382  -0.0073146  -0.0071435  -0.0295379
    3   0.0078792  -0.0294143   0.0519727  -0.0042773  -0.0327472   0.0052102
          151         152         153         154         155         156
    1  -0.0195550  -0.0733939   0.0080298   0.0209077  -0.0018382   0.0095077
    2  -0.0151876   0.0249118   0.0075691  -0.0163964   0.0036820   0.0328030
    3   0.0165976  -0.0777527  -0.0014871   0.0038666  -0.0315648   0.0126839
          157         158         159         160         161         162
    1  -0.0488075  -0.0010723   0.0209220   0.0232374  -0.0276852   0.0134548
    2   0.0340117  -0.0043634  -0.0283599   0.0164973   0.0096391  -0.0969273
    3  -0.0047604   0.0085673   0.0045303   0.0081894   0.0241181  -0.0440754
          163         164         165         166         167         168
    1   0.0037398  -0.0011513   0.0079820   0.0244157  -0.0176909  -0.0061307
    2   0.0023041  -0.0028301   0.0161979  -0.0142530  -0.0531542   0.0076140
    3  -0.0020119  -0.0370188   0.0320347   0.0015294  -0.0212287   0.0018116
          169         170         171         172         173         174
    1   0.0127554  -0.0050594  -0.0253534   0.0166045  -0.0048982  -0.0272552
    2   0.0268940  -0.0102164  -0.0028250   0.0065257   0.0033031   0.0056106
    3   0.0029214  -0.0296265   0.0146093   0.1092637  -0.0005785  -0.0217851
          175         176         177         178         179         180
    1  -0.0190572   0.0015561  -0.0087944   0.0016223   0.0260516  -0.0001243
    2  -0.0073577   0.0317041  -0.0538149   0.0007949  -0.0134642   0.0314581
    3   0.0265036   0.0019132   0.0014899   0.0067248   0.0059267   0.0053440
          181         182         183         184         185         186
    1  -0.0031400   0.0460111   0.0067398   0.0124001   0.0103680   0.0031263
    2  -0.0131436   0.0569933  -0.0037462  -0.0119722   0.0289272  -0.0221545
    3   0.0402032  -0.0801858   0.0025746  -0.0260936   0.0066920   0.0253750
          187         188         189         190         191         192
    1  -0.0283796  -0.0029928  -0.0262852   0.0146113  -0.0061380   0.0053466
    2   0.0438026  -0.0106494  -0.0063473  -0.0273793  -0.0001618  -0.0167782
    3   0.0231481   0.0064951  -0.0160360  -0.0010035   0.0331431  -0.1081855
          193         194         195         196         197         198
    1  -0.0064286   0.0293650  -0.0216583  -0.0368657  -0.0439400  -0.0013745
    2   0.0107609   0.0209389   0.0146959  -0.0035147  -0.0359101  -0.0060834
    3   0.0006116   0.0042027  -0.0220540   0.0153264  -0.0215599   0.0035094
          199         200         201         202         203         204
    1  -0.0292779   0.0173302   0.0133985   0.0859861  -0.0065522  -0.0222419
    2  -0.0044242  -0.0305932   0.0073517   0.0275406  -0.0011905   0.0259995
    3   0.0230909  -0.0009553   0.0122197  -0.0622996   0.0020369   0.0063013
          205         206         207         208         209         210
    1  -0.0100160  -0.0105498   0.0126932   0.0010241   0.0264325  -0.0082525
    2  -0.0072910  -0.0244996   0.0420088   0.0138686   0.0082463  -0.0247655
    3  -0.0270138   0.0213270   0.0269431  -0.0102528  -0.0171428  -0.0151547
          211         212         213         214         215         216
    1  -0.0002185   0.0567871  -0.0034459   0.0175738   0.0149714  -0.0355512
    2   0.0331018  -0.0900233   0.0076677   0.0051675   0.0230313  -0.0009429
    3  -0.0140289  -0.0159420   0.0014076   0.0265875  -0.0197803   0.0045067
          217         218         219         220         221         222
    1  -0.0218922  -0.0014670   0.0230939  -0.0304326   0.0077202   0.1088581
    2  -0.0184088  -0.0037263  -0.0009995   0.0079199  -0.0347028   0.0088194
    3  -0.0422719   0.0084360   0.0220097   0.0129205   0.0084374   0.0195465
          223         224         225         226         227         228
    1  -0.0107528  -0.0184322  -0.0185624   0.0036659   0.0261110  -0.0047166
    2  -0.0030239  -0.0279412   0.0023182   0.0295585  -0.0417427   0.0010310
    3  -0.0023189  -0.0053134   0.0225897  -0.0203028  -0.0315903   0.0092083
          229         230         231         232         233         234
    1   0.0285322  -0.0041306  -0.0173709   0.0387426   0.0008612   0.0234124
    2  -0.0024087   0.0321255  -0.0328536   0.1033811  -0.0027979  -0.0216140
    3   0.0103587   0.0128703   0.0007650  -0.0000844   0.0083981  -0.0017407
          235         236         237         238         239         240
    1   0.0189433  -0.0247697  -0.0252035  -0.0024070   0.0112711  -0.0202730
    2   0.0237803   0.0057862   0.0428801  -0.0099088  -0.0243925  -0.0070160
    3  -0.0030748   0.0263548  -0.0203443   0.0053804   0.0164208   0.0234417
          241         242         243         244         245         246
    1  -0.0215923   0.0880487  -0.0023024  -0.0222883  -0.0217548   0.0223666
    2  -0.0065385  -0.0471822   0.0070176   0.0035129   0.0092945   0.0206775
    3  -0.0230219  -0.0467215   0.0006210  -0.0231998   0.0252489   0.0057037
          247         248         249         250         251         252
    1   0.0332341   0.0121954   0.0090815  -0.0164494   0.0402499  -0.0856483
    2  -0.0157418   0.0022183  -0.0235413   0.0208030   0.0067314  -0.0522947
    3   0.0370721  -0.0064896  -0.0152539  -0.0173103  -0.0036190  -0.0419352
          253         254         255         256         257         258
    1   0.0048053  -0.0124889   0.0256236  -0.0040924   0.0172287  -0.0094089
    2  -0.0063000  -0.0308804  -0.0015260   0.0192403   0.0460068  -0.0008214
    3   0.0079410   0.0013842   0.0222308   0.0279597   0.0037276   0.0068045
          259         260         261         262         263         264
    1   0.0050691  -0.0265847  -0.0255283   0.0263230   0.0058089   0.0243701
    2  -0.0352681   0.0217148   0.0091680  -0.0888861   0.0029967  -0.0201296
    3  -0.0072104   0.0250300  -0.0120412  -0.0645680  -0.0006748  -0.0157254
          265         266         267         268         269         270
    1  -0.0082935   0.0172025   0.0032885  -0.0046674   0.0099323  -0.0209180
    2   0.0198187   0.0086206  -0.0450187  -0.0033727  -0.0211345  -0.0233999
    3  -0.0277472   0.0273973   0.0300245  -0.0087998  -0.0337360   0.0000634
          271         272         273         274         275         276
    1  -0.0029450  -0.0537274  -0.0092335   0.0012409  -0.0121007  -0.0099199
    2   0.0260485   0.0924356  -0.0018987  -0.0289209  -0.0207522   0.0211707
    3  -0.0168619   0.0266466  -0.0064530  -0.0196194   0.0215758  -0.0227049
          277         278         279         280         281         282
    1   0.0301605  -0.0002481  -0.0125865   0.0330395  -0.0141123   0.0359671
    2  -0.0377528   0.0127297  -0.0076336   0.0153610   0.0193679   0.0527477
    3   0.0243405   0.0058116   0.0263719   0.0076758  -0.0232571  -0.0917454
          283         284         285         286         287         288
    1  -0.0050242  -0.0042911  -0.0071933  -0.0249622   0.0088060   0.0036949
    2   0.0023305  -0.0294355   0.0279977   0.0128051   0.0458795  -0.0045922
    3   0.0084101   0.0022527   0.0220233  -0.0124915  -0.0300134  -0.0026614
          289         290         291         292
    1  -0.0069091  -0.0161149   0.0319062   0.0700463
    2  -0.0209433  -0.0000356  -0.0079348  -0.0361199
    3   0.0161402  -0.0275693  -0.0124018   0.0862241
  --- DONE ESP SUMMARY ---
Archival summary:
1\1\n0099.mhg0\SP\ProcedureUnspecified\6-31+G*\272754h22\ymao\FriMar1215:02:112021FriMar1215:02:112021\0\\#,ProcedureUnspecified,6-31+G*,\\0,1\S\O,1,1.49643\C,1,1.80679,2,108.252\H,3,1.09294,1,110.902,2,58.7456,0\H,3,1.09298,1,113.012,2,-180,0\H,3,1.09317,1,109.046,2,-58.5242,0\C,1,1.80728,2,98.7424,3,94.883,0\H,7,1.09283,1,110.664,2,-43.6348,0\H,7,1.09294,1,107.925,2,-151.653,0\H,7,1.09296,1,106.9,2,83.5781,0\H,4,2.11381,3,100.808,1,-88.8336,0\C,11,1.09303,4,119.884,3,-104.344,0\H,12,1.0924,11,113.055,4,58.4113,0\H,12,1.09305,11,108.072,4,179.875,0\S,12,1.80753,11,107.825,4,-64.5192,0\O,15,1.4973,12,100.846,11,69.107,0\C,15,1.80683,12,100.719,11,-38.0577,0\H,17,1.09253,15,111.407,12,-143.22,0\H,17,1.09269,15,106.801,12,-26.1944,0\H,17,1.09294,15,110.155,12,94.6692,0\H,14,2.16164,12,121.321,11,-58.7612,0\C,21,1.09366,14,114.251,12,-0.984092,0\H,22,1.09237,21,107.231,14,-38.7221,0\H,22,1.09269,21,121.745,14,79.0489,0\S,22,1.80627,21,112.854,14,-154.801,0\O,25,1.49614,22,102.305,21,68.9146,0\C,25,1.80733,22,103.362,21,-40.9687,0\H,27,1.09254,25,108.603,22,62.4101,0\H,27,1.09295,25,112.429,22,-177.06,0\H,27,1.09357,25,109.396,22,-56.7138,0\H,30,2.372,27,123.907,25,-94.9654,0\C,31,1.09314,30,125.417,27,-79.9367,0\H,32,1.09251,31,104.407,30,116.046,0\H,32,1.09365,31,118.443,30,-120.864,0\S,32,1.80652,31,108.884,30,5.52898,0\O,35,1.49738,32,113.121,31,-64.3646,0\C,35,1.8062,32,98.3618,31,-170.754,0\H,37,1.09288,35,112.139,32,63.8715,0\H,37,1.0934,35,110.381,32,179.813,0\H,37,1.09353,35,104.196,32,-49.7838,0\H,38,2.28413,37,162.353,35,-19.6173,0\C,41,1.09256,38,132.293,37,-19.2047,0\H,42,1.09247,41,110.319,38,56.9679,0\H,42,1.0932,41,108.566,38,-58.3479,0\S,42,1.80733,41,113.083,38,-171.922,0\O,45,1.49741,42,106.935,41,-88.513,0\C,45,1.80722,42,99.3999,41,15.8892,0\H,47,1.09248,45,112.434,42,178.018,0\H,47,1.09282,45,117.031,42,47.3337,0\H,47,1.09318,45,103.859,42,-62.6666,0\H,44,2.22429,42,141.834,41,-103.893,0\C,51,1.092,44,104.321,42,-93.1754,0\H,52,1.0933,51,111.333,44,60.6256,0\H,52,1.09348,51,112.756,44,-59.2662,0\S,52,1.80704,51,105.02,44,-176.011,0\O,55,1.49707,52,102.14,51,79.0588,0\C,55,1.8065,52,92.2026,51,-176.7,0\H,57,1.09271,55,104.001,52,88.2091,0\H,57,1.09279,55,112.025,52,-153.095,0\H,57,1.09352,55,114.811,52,-22.6144,0\H,53,2.12226,52,126.567,51,91.9257,0\C,61,1.09398,53,140.293,52,-162.139,0\H,62,1.09278,61,114.297,53,39.0588,0\H,62,1.09297,61,109.897,53,160.94,0\S,62,1.80683,61,108.672,53,-77.1417,0\O,65,1.49712,62,100.229,61,-26.5093,0\C,65,1.80672,62,94.7723,61,74.9766,0\H,67,1.09291,65,120.265,62,77.0001,0\H,67,1.09303,65,98.0896,62,-168.48,0\H,67,1.09331,65,106.498,62,-53.2344,0\O,44,2.3595,42,114.296,41,-9.6887,0\S,71,1.49722,44,152.634,42,159.117,0\C,72,1.80689,71,102.605,44,-8.90409,0\H,73,1.09235,72,100.334,71,52.0106,0\H,73,1.09267,72,107.936,71,-179.804,0\H,73,1.09291,72,109.795,71,-61.75,0\C,72,1.80741,71,102.335,44,91.0298,0\H,77,1.09239,72,113.931,71,-72.4869,0\H,77,1.09279,72,105.06,71,170.103,0\H,77,1.09295,72,107.521,71,61.5309,0\H,56,2.35995,55,119.503,52,87.1003,0\C,81,1.09337,56,110.084,55,-134.196,0\H,82,1.09257,81,104.696,56,-91.6197,0\H,82,1.09314,81,116.296,56,28.7794,0\S,82,1.80658,81,107.475,56,156.412,0\O,85,1.49734,82,105.07,81,67.6004,0\C,85,1.80706,82,94.251,81,165.325,0\H,87,1.09226,85,102.502,82,163.863,0\H,87,1.09369,85,106.668,82,43.3878,0\H,87,1.0939,85,112.364,82,-73.9697,0\Gh,88,2.2494,87,140.027,85,-21.98,0\Gh,91,1.21913,88,128.67,87,-106.141,0\Gh,92,1.10478,91,123.01,88,-108.836,0\Gh,92,1.37881,91,121.867,88,73.3115,0\Gh,94,1.0125,92,122.745,91,-177.216,0\Gh,94,1.46276,92,124.192,91,4.47401,0\Gh,96,1.09674,94,107.339,92,-34.2254,0\Gh,96,1.53755,94,113.321,92,-160.057,0\Gh,98,1.09694,96,111.375,94,46.0455,0\Gh,98,1.09766,96,103.049,94,-70.8374,0\Gh,98,1.53706,96,107.013,94,176.135,0\Gh,101,1.09686,98,112.994,96,-57.4716,0\Gh,101,1.09763,98,110.231,96,-175.364,0\Gh,101,1.53755,98,106.581,96,70.5192,0\Gh,104,1.09679,101,116.494,98,63.2146,0\Gh,104,1.09696,101,106.566,98,179.901,0\Gh,104,1.53739,101,107.629,98,-64.2712,0\Gh,107,1.09656,104,114.962,101,-178.062,0\Gh,107,1.09686,104,110.115,101,-63.0225,0\Gh,96,1.5376,94,106.887,92,78.2242,0\Gh,110,1.09669,96,107.123,94,56.7486,0\Gh,110,1.09723,96,108.023,94,-56.724,0\H,112,2.0573,110,159.229,96,-84.283,0\C,113,1.0933,112,106.421,110,-145.139,0\H,114,1.09305,113,106.343,112,47.8235,0\H,114,1.09314,113,107.662,112,-61.0224,0\S,114,1.80708,113,113.598,112,176.232,0\O,117,1.49674,114,100.2,113,165.877,0\C,117,1.80729,114,100.925,113,61.933,0\H,119,1.09265,117,109.09,114,-59.2577,0\H,119,1.09298,117,103.282,114,-179.415,0\H,119,1.09335,117,115.693,114,63.5334,0\H,115,2.2274,114,149.968,113,125.23,0\C,123,1.09291,115,110.464,114,20.488,0\H,124,1.09307,123,108.307,115,-55.6723,0\H,124,1.09324,123,113.937,115,54.4706,0\S,124,1.80688,123,111.426,115,172.9,0\O,127,1.4968,124,100.163,123,43.5599,0\C,127,1.80641,124,96.9026,123,-62.8726,0\H,129,1.09234,127,110.367,124,-88.2922,0\H,129,1.09355,127,117.459,124,156.659,0\H,129,1.0936,127,103.962,124,29.9725,0\H,132,2.03117,129,107.734,127,140.444,0\C,133,1.09295,132,116.486,129,144.934,0\H,134,1.0926,133,110.592,132,-59.1746,0\H,134,1.09314,133,111.171,132,-177.415,0\S,134,1.80711,133,111.78,132,57.6666,0\O,137,1.49679,134,98.0543,133,-44.2026,0\C,137,1.80726,134,100.783,133,64.1613,0\H,139,1.09267,137,102.317,134,-104.253,0\H,139,1.09287,137,117.07,134,26.2507,0\H,139,1.09343,137,105.181,134,147.836,0\H,93,2.25244,92,163.705,91,93.3105,0\C,143,1.09242,93,121.127,92,20.4023,0\H,144,1.09355,143,110.733,93,-48.3929,0\H,144,1.09397,143,109.727,93,-171.006,0\S,144,1.8069,143,103.843,93,71.2466,0\O,147,1.49797,144,103.282,143,-65.214,0\C,147,1.80622,144,94.1585,143,-166.769,0\H,149,1.09303,147,104.856,144,157.935,0\H,149,1.09318,147,111.49,144,-79.3261,0\H,149,1.09392,147,109.581,144,47.6653,0\H,120,2.25865,119,118.33,117,126.467,0\C,153,1.09353,120,105.522,119,103.966,0\H,154,1.09284,153,118.285,120,143.04,0\H,154,1.09298,153,113.537,120,15.987,0\S,154,1.80791,153,102.828,120,-102.876,0\O,157,1.49739,154,107.605,153,44.419,0\C,157,1.80666,154,89.845,153,-61.3534,0\H,159,1.09253,157,107.226,154,-49.2276,0\H,159,1.09303,157,112.447,154,60.9913,0\H,159,1.09351,157,113.431,154,-179.26,0\H,122,2.29618,119,159.769,117,0.655293,0\C,163,1.0928,122,119.422,119,-36.5028,0\H,164,1.09238,163,105.87,122,73.4912,0\H,164,1.09385,163,115.083,122,-50.914,0\S,164,1.80687,163,103.276,122,-165.897,0\O,167,1.49657,164,106.888,163,151.993,0\C,167,1.80685,164,93.0859,163,-107.214,0\H,169,1.09218,167,101.932,164,-164.668,0\H,169,1.09335,167,114.207,164,79.1263,0\H,169,1.0935,167,108.61,164,-52.7083,0\H,172,2.14287,169,153.476,167,33.2335,0\C,173,1.09285,172,108.404,169,114.97,0\H,174,1.09261,173,106.814,172,159.374,0\H,174,1.09326,173,106.895,172,-73.0776,0\S,174,1.8076,173,110.376,172,41.1247,0\O,177,1.49652,174,100.532,173,148.102,0\C,177,1.80671,174,94.616,173,43.683,0\H,179,1.09207,177,110.71,174,-68.7534,0\H,179,1.0931,177,108.2,174,179.713,0\H,179,1.09314,177,116.736,174,55.792,0\H,59,2.36362,57,127.81,55,139.479,0\C,183,1.09267,59,111.32,57,39.9076,0\H,184,1.09314,183,115.874,59,-34.3788,0\H,184,1.0939,183,113.527,59,-153.985,0\S,184,1.80684,183,106.28,59,81.0826,0\O,187,1.49684,184,105.386,183,-31.7498,0\C,187,1.80736,184,93.9256,183,63.7036,0\H,189,1.09287,187,109.996,184,-64.7533,0\H,189,1.09303,187,111.41,184,55.9914,0\H,189,1.09306,187,106.227,184,176.392,0\H,19,2.3789,17,144.297,15,-140.003,0\C,193,1.0923,19,141.274,17,74.7411,0\H,194,1.09364,193,120.202,19,-36.3781,0\H,194,1.09395,193,115.99,19,-171.214,0\S,194,1.80641,193,105.508,19,77.4318,0\O,197,1.49691,194,102.496,193,-48.5708,0\C,197,1.80689,194,98.6377,193,54.8997,0\H,199,1.09265,197,100.057,194,52.4741,0\H,199,1.09301,197,112.014,194,173.403,0\H,199,1.09359,197,107.041,194,-66.2162,0\H,193,2.14403,19,90.3403,17,-71.6906,0\C,203,1.09342,193,151.731,19,-10.6174,0\H,204,1.09289,203,114.912,193,-18.008,0\H,204,1.09332,203,111.472,193,-139.063,0\S,204,1.80736,203,109.619,193,105.992,0\O,207,1.4971,204,103.495,203,152.494,0\C,207,1.80711,204,97.9829,203,51.4953,0\H,209,1.0926,207,106.267,204,-46.4802,0\H,209,1.09292,207,115.114,204,-166.646,0\H,209,1.09329,207,108.555,204,64.6799,0\H,212,2.26732,209,151.348,207,-80.3613,0\C,213,1.09265,212,127.322,209,-81.0203,0\H,214,1.09241,213,105.661,212,-40.7167,0\H,214,1.09317,213,103.825,212,-161.759,0\S,214,1.80753,213,110.293,212,80.2337,0\O,217,1.49695,214,99.386,213,10.9526,0\C,217,1.80688,214,99.089,213,-97.1932,0\H,219,1.09326,217,102.877,214,55.5381,0\H,219,1.09336,217,112.197,214,-70.514,0\H,219,1.09355,217,110.511,214,175.958,0\H,90,2.40225,87,115.866,85,-179.618,0\C,223,1.09322,90,148.541,87,-13.5896,0\H,224,1.09248,223,108.535,90,15.4847,0\H,224,1.09272,223,114.102,90,-114.944,0\S,224,1.80685,223,105.024,90,135.003,0\O,227,1.49658,224,104.556,223,-68.9804,0\C,227,1.80703,224,94.1189,223,-172.995,0\H,229,1.09251,227,111.513,224,-66.8255,0\H,229,1.09282,227,105.308,224,59.4704,0\H,229,1.09333,227,100.953,224,175.91,0\H,223,2.25517,90,68.3416,87,-87.7122,0\C,233,1.09277,223,169.827,90,-62.8306,0\H,234,1.09312,233,111.343,223,14.1818,0\H,234,1.09346,233,104.503,223,132.276,0\S,234,1.80655,233,109.194,223,-109.637,0\O,237,1.49723,234,101.485,233,25.6502,0\C,237,1.80634,234,100.862,233,-81.1448,0\H,239,1.09251,237,113.344,234,30.7459,0\H,239,1.09319,237,95.9853,234,145.931,0\H,239,1.0937,237,108.515,234,-100.012,0\H,13,2.41891,12,123.341,11,-113.058,0\C,243,1.09309,13,115.736,12,128.524,0\H,244,1.09273,243,94.8406,13,-51.0906,0\H,244,1.09306,243,113.537,13,-170.028,0\S,244,1.80697,243,111.058,13,65.4937,0\O,247,1.49726,244,98.3936,243,-46.6829,0\C,247,1.80725,244,94.913,243,-152.339,0\H,249,1.09235,247,109.615,244,-43.7973,0\H,249,1.09296,247,115.914,244,-179.193,0\H,249,1.09351,247,95.606,244,69.3355,0\H,240,2.49296,239,137.318,237,166.47,0\C,253,1.09332,240,139.101,239,178.113,0\H,254,1.0928,253,109.048,240,71.0423,0\H,254,1.09315,253,106.641,240,-165.314,0\S,254,1.80671,253,101.952,240,-52.5962,0\O,257,1.49693,254,107.201,253,52.4882,0\C,257,1.80679,254,95.9443,253,148.159,0\H,259,1.0926,257,107.262,254,76.779,0\H,259,1.09313,257,111.936,254,-40.5371,0\H,259,1.09333,257,104.654,254,-165.85,0\H,232,2.64932,229,122.568,227,-62.678,0\C,263,1.09286,232,118.974,229,-88.7854,0\H,264,1.09247,263,110.806,232,41.2728,0\H,264,1.09257,263,114.19,232,-89.5907,0\S,264,1.80758,263,101.272,232,159.052,0\O,267,1.49701,264,106.069,263,-158.69,0\C,267,1.80662,264,94.9857,263,91.8107,0\H,269,1.0929,267,107.757,264,62.6889,0\H,269,1.09318,267,112.413,264,-69.5767,0\H,269,1.09324,267,109.613,264,172.909,0\O,222,2.72115,219,132.938,217,93.1866,0\S,273,1.49754,222,113.979,219,-51.05,0\C,274,1.80663,273,100.714,222,-128.274,0\H,275,1.09262,274,110,273,-154.657,0\H,275,1.09318,274,109.396,273,-32.5566,0\H,275,1.09322,274,109.922,273,88.5485,0\C,274,1.80728,273,102.973,222,138.73,0\H,279,1.09276,274,106.005,273,146.598,0\H,279,1.09313,274,107.014,273,-98.8882,0\H,279,1.09324,274,108.608,273,24.079,0\O,216,2.81934,214,144.254,213,64.2955,0\S,283,1.49616,216,154.723,214,-159.051,0\C,284,1.80692,283,104.237,216,61.0539,0\H,285,1.09298,284,101.723,283,151.785,0\H,285,1.09308,284,110.762,283,-89.7185,0\H,285,1.09313,284,111.892,283,29.7627,0\C,284,1.80744,283,105.318,216,162.313,0\H,289,1.09215,284,117.442,283,-45.4035,0\H,289,1.09298,284,105.484,283,69.8031,0\H,289,1.09335,284,104.43,283,-176.055,0\\\@

 Total job time:  74.05s(wall), 253.61s(cpu) 
 Fri Mar 12 15:02:11 2021

        *************************************************************
        *                                                           *
        *  Thank you very much for using Q-Chem.  Have a nice day.  *
        *                                                           *
        *************************************************************


