                  Welcome to Q-Chem
     A Quantum Leap Into The Future Of Chemistry


 Q-Chem 5.2 (devel), Q-Chem, Inc., Pleasanton, CA (2019)

 Yihan Shao,  Zhengting Gan,  E. Epifanovsky,  A. T. B. Gilbert,  M. Wormit,  
 J. Kussmann,  A. W. Lange,  A. Behn,  Jia Deng,  Xintian Feng,  D. Ghosh,  
 M. Goldey,  P. R. Horn,  L. D. Jacobson,  I. Kaliman,  T. Kus,  A. Landau,  
 Jie Liu,  E. I. Proynov,  R. M. Richard,  R. P. Steele,  E. J. Sundstrom,  
 H. L. Woodcock III,  P. M. Zimmerman,  D. Zuev,  B. Alam,  B. Albrecht,  
 E. Alguire,  S. A. Baeppler,  D. Barton,  Z. Benda,  Y. A. Bernard,  
 E. J. Berquist,  K. B. Bravaya,  H. Burton,  K. Carter-Fenk,  D. Casanova,  
 Chun-Min Chang,  Yunqing Chen,  A. Chien,  K. D. Closser,  M. P. Coons,  
 S. Coriani,  S. Dasgupta,  A. L. Dempwolff,  M. Diedenhofen,  Hainam Do,  
 R. G. Edgar,  Po-Tung Fang,  S. Faraji,  S. Fatehi,  Qingguo Feng,  
 J. Fosso-Tande,  J. Gayvert,  Qinghui Ge,  A. Ghysels,  G. Gidofalvi,  
 J. Gomes,  J. Gonthier,  A. Gunina,  D. Hait,  M. W. D. Hanson-Heine,  
 P. H. P. Harbach,  A. W. Hauser,  M. F. Herbst,  J. E. Herr,  
 E. G. Hohenstein,  Z. C. Holden,  Kerwin Hui,  B. C. Huynh,  T.-C. Jagau,  
 Hyunjun Ji,  B. Kaduk,  K. Khistyaev,  Jaehoon Kim,  P. Klunzinger,  K. Koh,  
 D. Kosenkov,  L. Koulias,  T. Kowalczyk,  C. M. Krauter,  A. Kunitsa,  
 Ka Un Lao,  A. Laurent,  K. V. Lawler,  Joonho Lee,  D. Lefrancois,  
 S. Lehtola,  D. S. Levine,  Yi-Pei Li,  You-Sheng Lin,  Fenglai Liu,  
 Kuan-Yu Liu,  E. Livshits,  M. Loipersberger,  A. Luenser,  P. Manohar,  
 E. Mansoor,  S. F. Manzer,  Shan-Ping Mao,  Yuezhi Mao,  N. Mardirossian,  
 A. V. Marenich,  T. Markovich,  L. A. Martinez-Martinez,  S. A. Maurer,  
 N. J. Mayhall,  S. C. McKenzie,  J.-M. Mewes,  P. Morgante,  A. F. Morrison,  
 J. W. Mullinax,  K. Nanda,  T. S. Nguyen-Beck,  R. Olivares-Amaya,  
 J. A. Parkhill,  S. K. Paul,  F. Pavosevic,  Zheng Pei,  T. M. Perrine,  
 F. Plasser,  P. Pokhilko,  S. Prager,  A. Prociuk,  E. Ramos,  B. Rana,  
 D. R. Rehn,  F. Rob,  M. Scheurer,  M. Schneider,  N. Sergueev,  
 S. M. Sharada,  S. Sharma,  D. W. Small,  T. Stauch,  C. J. Stein,  
 T. Stein,  Yu-Chuan Su,  S. P. Veccham,  Zhen Tao,  A. J. W. Thom,  
 A. Tkatchenko,  T. Tsuchimochi,  N. M. Tubman,  L. Vogt,  M. L. Vidal,  
 O. Vydrov,  M. A. Watson,  J. Wenzel,  M. de Wergifosse,  T. A. Wesolowski,  
 A. White,  J. Witte,  A. Yamada,  Jun Yang,  K. Yao,  S. Yeganeh,  
 S. R. Yost,  Zhi-Qiang You,  A. Zech,  Igor Ying Zhang,  Xing Zhang,  
 Yan Zhao,  Ying Zhu,  B. R. Brooks,  G. K. L. Chan,  C. J. Cramer,  
 M. S. Gordon,  W. J. Hehre,  A. Klamt,  M. W. Schmidt,  C. D. Sherrill,  
 D. G. Truhlar,  A. Aspuru-Guzik,  R. Baer,  A. T. Bell,  N. A. Besley,  
 Jeng-Da Chai,  A. E. DePrince, III,  R. A. DiStasio Jr.,  A. Dreuw,  
 B. D. Dunietz,  T. R. Furlani,  Chao-Ping Hsu,  Yousung Jung,  Jing Kong,  
 D. S. Lambrecht,  WanZhen Liang,  C. Ochsenfeld,  V. A. Rassolov,  
 L. V. Slipchenko,  J. E. Subotnik,  T. Van Voorhis,  J. M. Herbert,  
 A. I. Krylov,  P. M. W. Gill,  M. Head-Gordon

 Contributors to earlier versions of Q-Chem not listed above: 
 R. D. Adamson,  B. Austin,  J. Baker,  G. J. O. Beran,  K. Brandhorst,  
 S. T. Brown,  E. F. C. Byrd,  A. K. Chakraborty,  C.-L. Cheng,  
 Siu Hung Chien,  D. M. Chipman,  D. L. Crittenden,  H. Dachsel,  
 R. J. Doerksen,  A. D. Dutoi,  L. Fusti-Molnar,  W. A. Goddard III,  
 A. Golubeva-Zadorozhnaya,  S. R. Gwaltney,  G. Hawkins,  A. Heyden,  
 S. Hirata,  G. Kedziora,  F. J. Keil,  C. Kelley,  Jihan Kim,  R. A. King,  
 R. Z. Khaliullin,  P. P. Korambath,  W. Kurlancheek,  A. M. Lee,  M. S. Lee,  
 S. V. Levchenko,  Ching Yeh Lin,  D. Liotard,  R. C. Lochan,  I. Lotan,  
 P. E. Maslen,  N. Nair,  D. P. O'Neill,  D. Neuhauser,  E. Neuscamman,  
 C. M. Oana,  R. Olson,  B. Peters,  R. Peverati,  P. A. Pieniazek,  
 Y. M. Rhee,  J. Ritchie,  M. A. Rohrdanz,  E. Rosta,  N. J. Russ,  
 H. F. Schaefer III,  N. E. Schultz,  N. Shenvi,  A. C. Simmonett,  A. Sodt,  
 D. Stuck,  K. S. Thanthiriwatte,  V. Vanovschi,  Tao Wang,  A. Warshel,  
 C. F. Williams,  Q. Wu,  X. Xu,  W. Zhang

 Please cite Q-Chem as follows:
 Y. Shao et al., Mol. Phys. 113, 184-215 (2015)
 DOI: 10.1080/00268976.2014.952696

 Q-Chem 5.2.2 for Intel X86 EM64T Linux

 Parts of Q-Chem use Armadillo 9.800.1 (Horizon Scraper).
 http://arma.sourceforge.net/

 Q-Chem begins on Thu Mar 11 13:37:42 2021  

Host: n0093.mhg0
0

     Scratch files written to /local/scratch/users/ymao/r7.00_frame_0017_almo_B3LYP_dp.in20210311133739//

Checking the input file for inconsistencies... 	...done.

--------------------------------------------------------------
User input:
--------------------------------------------------------------
$molecule
0 1
--
0 1
C    20.30600   16.69100   28.62600  
C    21.35600   15.64900   29.04500  
C    21.79300   15.88100   30.50100  
C    20.72200   16.24000   31.54400  
C    19.67700   17.25500   31.05200  
C    19.17300   16.89500   29.64400  
H    22.25100   14.95600   30.87000  
H    20.80100   14.70400   29.10600  
H    20.75900   17.65800   28.37700  
H    19.88100   16.31400   27.68700  
H    20.17100   15.38500   31.95500  
H    21.19200   16.67000   32.43700  
H    18.89300   17.33000   31.81500  
H    20.15500   18.23800   30.95800  
H    18.47500   16.05800   29.77000  
H    18.53600   17.75000   29.38700  
H    22.55400   16.66800   30.56700  
N    22.44200   15.61500   28.06800  
H    22.71500   16.48200   27.62100  
C    23.07400   14.48900   27.58400  
H    23.84900   14.72200   26.83200  
O    22.72600   13.36100   27.88700  
--
0 1
C    20.76900   22.20200   28.60600  
H    19.97900   21.71400   28.02800  
H    20.87500   21.70300   29.57200  
H    20.44000   23.22800   28.79000  
S    22.33000   22.27500   27.69900  
C    22.56700   20.48400   27.73400  
H    22.17000   20.05500   28.65700  
H    22.03100   20.09400   26.86500  
H    23.63600   20.28300   27.62600  
O    23.26700   22.89200   28.69000  
C    17.46900   20.73900   24.49700  
H    17.51600   21.56200   23.78000  
H    17.15600   19.87000   23.91200  
H    16.74400   20.93900   25.29100  
S    19.14900   20.51200   25.12100  
C    18.62300   19.41100   26.45500  
H    19.27700   19.47600   27.32700  
H    17.60600   19.57500   26.82100  
H    18.66200   18.41900   25.99800  
O    19.41300   21.86000   25.71500  
C    26.29100   6.80500    28.88100  
H    27.21800   7.38400    28.90700  
H    25.89500   6.87600    29.89700  
H    26.61300   5.78100    28.67500  
S    25.21000   7.24500    27.50100  
C    24.91400   8.85100    28.27500  
H    23.97500   9.21700    27.85300  
H    25.04600   8.95300    29.35600  
H    25.52800   9.60800    27.78000  
O    23.95500   6.51200    27.86000  
C    25.88700   19.06200   32.70400  
H    26.37200   19.30100   33.65400  
H    24.85100   19.40000   32.62400  
H    26.05900   18.03100   32.38300  
S    26.79500   19.86900   31.36700  
C    25.60700   19.49600   30.05700  
H    25.28800   18.46800   30.24700  
H    24.74400   20.15600   30.16900  
H    25.95000   19.63700   29.02900  
O    27.95700   18.98400   31.04000  
C    18.56300   14.00100   35.09900  
H    18.82300   14.90300   34.53900  
H    17.89100   13.48800   34.40600  
H    17.93800   14.31500   35.93900  
S    19.98100   12.93500   35.44000  
C    19.14900   11.41100   35.94000  
H    18.55500   11.01500   35.11200  
H    19.86200   10.59400   36.07600  
H    18.55300   11.56100   36.84400  
O    20.66200   13.40400   36.68800  
C    22.95700   7.94600    32.62300  
H    23.56900   7.76300    31.73600  
H    23.60900   7.95500    33.50100  
H    22.23700   7.13900    32.78100  
S    22.13500   9.55400    32.63600  
C    23.41100   10.83100   32.71600  
H    23.60000   10.97900   33.78300  
H    24.28200   10.44100   32.18300  
H    23.06300   11.68900   32.13700  
O    21.41400   9.57600    33.94800  
C    21.65500   21.80400   34.04900  
H    20.72400   21.60600   34.58600  
H    22.48200   21.46100   34.67600  
H    21.69800   22.86900   33.80800  
S    21.77400   20.92800   32.47200  
C    21.93000   19.33000   33.30000  
H    22.73000   18.79100   32.78600  
H    22.24900   19.41100   34.34200  
H    20.93600   18.87700   33.31600  
O    23.17800   21.02400   31.96200  
C    14.92500   14.82700   34.59900  
H    14.92600   14.65600   35.67900  
H    15.91200   15.10700   34.22200  
H    14.11300   15.46700   34.24500  
S    14.64600   13.21700   33.82800  
C    13.12900   13.02200   34.79100  
H    12.39000   13.67300   34.31700  
H    12.79600   11.98600   34.69100  
H    13.26500   13.20500   35.85900  
O    15.65500   12.28500   34.42400  
C    15.13400   21.04300   28.33600  
H    15.91000   21.00200   27.56700  
H    14.27000   20.40100   28.14600  
H    14.70900   22.04700   28.27300  
S    15.91000   20.75400   29.94200  
C    17.33400   21.85600   29.78300  
H    17.82200   21.62800   28.83200  
H    16.96800   22.88500   29.79400  
H    17.99400   21.63000   30.62500  
O    16.57700   19.41600   29.86700  
C    27.27000   12.23500   22.52000  
H    27.92400   11.39400   22.76500  
H    26.44900   11.86900   21.89800  
H    27.91500   12.92300   21.96700  
S    26.62200   12.98200   24.03200  
C    28.05800   12.46100   24.99800  
H    27.77500   12.61900   26.04200  
H    28.21800   11.38000   25.00100  
H    28.89800   13.09700   24.70600  
O    25.57300   11.95500   24.32800  
C    11.78800   15.81700   29.18800  
H    11.50000   16.33200   28.26800  
H    10.84900   15.58600   29.69700  
H    12.50200   16.33600   29.83200  
S    12.53300   14.34500   28.45100  
C    13.14000   13.84200   30.07700  
H    12.30700   13.57900   30.73500  
H    13.78400   12.96000   30.05600  
H    13.71000   14.64200   30.55700  
O    13.76700   14.89200   27.80300  
C    25.18700   12.91100   30.02000  
H    24.88700   11.96900   30.48700  
H    26.03800   13.33100   30.56300  
H    24.40200   13.67000   29.96400  
S    25.86300   12.56400   28.38100  
C    27.24000   11.61400   29.06400  
H    27.75600   11.07100   28.26800  
H    27.91600   12.32100   29.55200  
H    26.78600   10.88800   29.74400  
O    26.59400   13.80800   27.98200  
C    24.04500   16.32900   33.59900  
H    23.24700   16.82400   34.15900  
H    25.04400   16.36800   34.04000  
H    24.27000   16.75000   32.61600  
S    23.58600   14.58200   33.54900  
C    24.04200   14.32600   35.27900  
H    23.95500   15.28500   35.79500  
H    23.48800   13.48700   35.70900  
H    25.11300   14.10700   35.26300  
O    24.64300   13.95100   32.69900  
C    21.74800   24.76600   30.94200  
H    22.34100   24.88500   31.85300  
H    22.11100   23.80700   30.56300  
H    21.82500   25.62900   30.27600  
S    19.98000   24.56700   31.25500  
C    19.59700   26.21200   31.89900  
H    20.03600   26.93400   31.20700  
H    18.51700   26.28100   32.05400  
H    20.06700   26.29100   32.88300  
O    19.84400   23.76300   32.51100  
C    18.22100   20.12300   33.13300  
H    19.14100   19.54500   33.01200  
H    17.67100   19.94900   32.20400  
H    18.47200   21.17300   33.29900  
S    17.33100   19.43800   34.54900  
C    17.59400   17.72000   34.05300  
H    17.08200   17.05900   34.75700  
H    17.11400   17.55400   33.08500  
H    18.67300   17.54800   34.03000  
O    15.88200   19.71200   34.28900  
C    19.75500   16.29300   37.49400  
H    19.43500   15.25000   37.42300  
H    19.70600   16.54400   38.55700  
H    19.04500   16.90800   36.93600  
S    21.33800   16.38700   36.62800  
C    21.70800   18.09000   37.10500  
H    22.43500   18.34300   36.32900  
H    20.75000   18.56200   36.86800  
H    22.01000   18.13500   38.15400  
O    20.87200   16.64700   35.22900  
C    16.95700   12.84800   27.32000  
H    16.82800   11.77700   27.49600  
H    16.31700   13.18800   26.50100  
H    18.03700   13.00800   27.27400  
S    16.34300   13.82100   28.71300  
C    16.61500   15.38400   27.84800  
H    16.46400   16.20200   28.55700  
H    17.62200   15.38600   27.42300  
H    15.94200   15.52900   26.99900  
O    17.51000   13.56000   29.61400  
C    14.33500   17.96300   32.08100  
H    14.32900   17.62300   31.04200  
H    14.78300   18.94700   32.24200  
H    14.90200   17.15000   32.54400  
S    12.64400   17.92700   32.71700  
C    13.02700   18.26600   34.45000  
H    12.20500   18.05500   35.13900  
H    13.88200   17.62600   34.68100  
H    13.13800   19.35100   34.52400  
O    12.37300   16.45600   32.64800  
C    27.31600   17.24200   35.74900  
H    27.67500   17.75900   34.85600  
H    28.17300   16.88500   36.32400  
H    26.57800   16.48000   35.48300  
S    26.39100   18.36300   36.82300  
C    26.30100   17.18600   38.19100  
H    27.31600   16.90100   38.48000  
H    25.63600   17.67900   38.90500  
H    25.86800   16.20900   37.96000  
O    24.96500   18.38700   36.36600  
C    21.37500   16.45500   24.90300  
H    21.38000   15.78400   25.76600  
H    20.58800   17.20900   24.98700  
H    21.36400   15.92900   23.94500  
S    22.93700   17.35300   25.03100  
C    23.99500   16.05700   24.34800  
H    25.02900   16.41100   24.33100  
H    23.75000   15.08600   24.78500  
H    23.78800   16.11200   23.27600  
O    23.34800   17.67200   26.43400  
C    27.31800   21.32200   25.04200  
H    27.24800   20.72200   25.95300  
H    28.35000   21.66300   24.93000  
H    26.50700   22.04700   24.93600  
S    27.23200   20.17100   23.65200  
C    26.84800   21.40600   22.39100  
H    27.60900   22.18800   22.45400  
H    26.75500   20.88100   21.43600  
H    25.95800   21.93800   22.73700  
O    25.93100   19.46600   23.88100  
C    27.68500   16.84100   28.69300  
H    28.36300   17.08700   29.51400  
H    26.65600   16.70900   29.03800  
H    27.95800   15.88600   28.23600  
S    27.68500   18.01100   27.31600  
C    26.52500   16.98900   26.38000  
H    26.20100   17.48800   25.46300  
H    26.93200   15.99300   26.19000  
H    25.67800   16.80600   27.04600  
O    29.02100   18.04000   26.64200  
C    20.25300   11.52800   28.47400  
H    21.26700   11.31300   28.81800  
H    20.18900   10.87400   27.60000  
H    20.08700   12.59400   28.30000  
S    19.23400   10.90400   29.83000  
C    19.82100   12.17200   30.97600  
H    19.41300   13.16300   30.76100  
H    19.53000   11.82100   31.96900  
H    20.91400   12.16300   31.01000  
O    20.03300   9.70800    30.24700  
C    22.26900   11.57500   23.89500  
H    22.07100   10.97500   23.00300  
H    21.52000   12.34800   24.08700  
H    23.23700   12.08200   23.87600  
S    22.13300   10.51500   25.35100  
C    23.35800   9.29300    24.83000  
H    23.42100   8.48000    25.55700  
H    23.06200   8.92600    23.84300  
H    24.30100   9.84200    24.76600  
O    20.79100   9.86000    25.23600  
C    16.23800   17.25200   22.13300  
H    15.58600   16.59000   21.55700  
H    15.83400   17.65400   23.06600  
H    16.58000   18.14900   21.61100  
S    17.74200   16.35100   22.57000  
C    16.93200   15.07700   23.56400  
H    17.73000   14.38800   23.85200  
H    16.57400   15.65700   24.41800  
H    16.11200   14.64500   22.98400  
O    18.44300   17.20000   23.58400  
$end

$rem
JOBTYPE  SP
METHOD  B3LYP
BASIS  6-31+G(D)
SYMMETRY  FALSE
SYM_IGNORE  TRUE
MEM_TOTAL  16000
MEM_STATIC  8000
MAX_SUB_FILE_NUM  16000
BASIS_LIN_DEP_THRESH  6
THRESH  14
SCF_CONVERGENCE  8
GEN_SCFMAN  TRUE
SCF_GUESS  FRAGMO
FD_MAT_VEC_PROD  FALSE
XC_GRID  000075000302
NL_GRID  1
MAX_SCF_CYCLES  200
FRGM_METHOD  STOLL
SCFMI_MODE  1
$end

$development
almo_efield  1
$end

$rem_frgm
SCF_CONVERGENCE  4
$end

--------------------------------------------------------------
 ----------------------------------------------------------------
             Standard Nuclear Orientation (Angstroms)
    I     Atom           X                Y                Z
 ----------------------------------------------------------------
    1      C      20.3060000000    16.6910000000    28.6260000000
    2      C      21.3560000000    15.6490000000    29.0450000000
    3      C      21.7930000000    15.8810000000    30.5010000000
    4      C      20.7220000000    16.2400000000    31.5440000000
    5      C      19.6770000000    17.2550000000    31.0520000000
    6      C      19.1730000000    16.8950000000    29.6440000000
    7      H      22.2510000000    14.9560000000    30.8700000000
    8      H      20.8010000000    14.7040000000    29.1060000000
    9      H      20.7590000000    17.6580000000    28.3770000000
   10      H      19.8810000000    16.3140000000    27.6870000000
   11      H      20.1710000000    15.3850000000    31.9550000000
   12      H      21.1920000000    16.6700000000    32.4370000000
   13      H      18.8930000000    17.3300000000    31.8150000000
   14      H      20.1550000000    18.2380000000    30.9580000000
   15      H      18.4750000000    16.0580000000    29.7700000000
   16      H      18.5360000000    17.7500000000    29.3870000000
   17      H      22.5540000000    16.6680000000    30.5670000000
   18      N      22.4420000000    15.6150000000    28.0680000000
   19      H      22.7150000000    16.4820000000    27.6210000000
   20      C      23.0740000000    14.4890000000    27.5840000000
   21      H      23.8490000000    14.7220000000    26.8320000000
   22      O      22.7260000000    13.3610000000    27.8870000000
   23      C      20.7690000000    22.2020000000    28.6060000000
   24      H      19.9790000000    21.7140000000    28.0280000000
   25      H      20.8750000000    21.7030000000    29.5720000000
   26      H      20.4400000000    23.2280000000    28.7900000000
   27      S      22.3300000000    22.2750000000    27.6990000000
   28      C      22.5670000000    20.4840000000    27.7340000000
   29      H      22.1700000000    20.0550000000    28.6570000000
   30      H      22.0310000000    20.0940000000    26.8650000000
   31      H      23.6360000000    20.2830000000    27.6260000000
   32      O      23.2670000000    22.8920000000    28.6900000000
   33      C      17.4690000000    20.7390000000    24.4970000000
   34      H      17.5160000000    21.5620000000    23.7800000000
   35      H      17.1560000000    19.8700000000    23.9120000000
   36      H      16.7440000000    20.9390000000    25.2910000000
   37      S      19.1490000000    20.5120000000    25.1210000000
   38      C      18.6230000000    19.4110000000    26.4550000000
   39      H      19.2770000000    19.4760000000    27.3270000000
   40      H      17.6060000000    19.5750000000    26.8210000000
   41      H      18.6620000000    18.4190000000    25.9980000000
   42      O      19.4130000000    21.8600000000    25.7150000000
   43      C      26.2910000000     6.8050000000    28.8810000000
   44      H      27.2180000000     7.3840000000    28.9070000000
   45      H      25.8950000000     6.8760000000    29.8970000000
   46      H      26.6130000000     5.7810000000    28.6750000000
   47      S      25.2100000000     7.2450000000    27.5010000000
   48      C      24.9140000000     8.8510000000    28.2750000000
   49      H      23.9750000000     9.2170000000    27.8530000000
   50      H      25.0460000000     8.9530000000    29.3560000000
   51      H      25.5280000000     9.6080000000    27.7800000000
   52      O      23.9550000000     6.5120000000    27.8600000000
   53      C      25.8870000000    19.0620000000    32.7040000000
   54      H      26.3720000000    19.3010000000    33.6540000000
   55      H      24.8510000000    19.4000000000    32.6240000000
   56      H      26.0590000000    18.0310000000    32.3830000000
   57      S      26.7950000000    19.8690000000    31.3670000000
   58      C      25.6070000000    19.4960000000    30.0570000000
   59      H      25.2880000000    18.4680000000    30.2470000000
   60      H      24.7440000000    20.1560000000    30.1690000000
   61      H      25.9500000000    19.6370000000    29.0290000000
   62      O      27.9570000000    18.9840000000    31.0400000000
   63      C      18.5630000000    14.0010000000    35.0990000000
   64      H      18.8230000000    14.9030000000    34.5390000000
   65      H      17.8910000000    13.4880000000    34.4060000000
   66      H      17.9380000000    14.3150000000    35.9390000000
   67      S      19.9810000000    12.9350000000    35.4400000000
   68      C      19.1490000000    11.4110000000    35.9400000000
   69      H      18.5550000000    11.0150000000    35.1120000000
   70      H      19.8620000000    10.5940000000    36.0760000000
   71      H      18.5530000000    11.5610000000    36.8440000000
   72      O      20.6620000000    13.4040000000    36.6880000000
   73      C      22.9570000000     7.9460000000    32.6230000000
   74      H      23.5690000000     7.7630000000    31.7360000000
   75      H      23.6090000000     7.9550000000    33.5010000000
   76      H      22.2370000000     7.1390000000    32.7810000000
   77      S      22.1350000000     9.5540000000    32.6360000000
   78      C      23.4110000000    10.8310000000    32.7160000000
   79      H      23.6000000000    10.9790000000    33.7830000000
   80      H      24.2820000000    10.4410000000    32.1830000000
   81      H      23.0630000000    11.6890000000    32.1370000000
   82      O      21.4140000000     9.5760000000    33.9480000000
   83      C      21.6550000000    21.8040000000    34.0490000000
   84      H      20.7240000000    21.6060000000    34.5860000000
   85      H      22.4820000000    21.4610000000    34.6760000000
   86      H      21.6980000000    22.8690000000    33.8080000000
   87      S      21.7740000000    20.9280000000    32.4720000000
   88      C      21.9300000000    19.3300000000    33.3000000000
   89      H      22.7300000000    18.7910000000    32.7860000000
   90      H      22.2490000000    19.4110000000    34.3420000000
   91      H      20.9360000000    18.8770000000    33.3160000000
   92      O      23.1780000000    21.0240000000    31.9620000000
   93      C      14.9250000000    14.8270000000    34.5990000000
   94      H      14.9260000000    14.6560000000    35.6790000000
   95      H      15.9120000000    15.1070000000    34.2220000000
   96      H      14.1130000000    15.4670000000    34.2450000000
   97      S      14.6460000000    13.2170000000    33.8280000000
   98      C      13.1290000000    13.0220000000    34.7910000000
   99      H      12.3900000000    13.6730000000    34.3170000000
  100      H      12.7960000000    11.9860000000    34.6910000000
  101      H      13.2650000000    13.2050000000    35.8590000000
  102      O      15.6550000000    12.2850000000    34.4240000000
  103      C      15.1340000000    21.0430000000    28.3360000000
  104      H      15.9100000000    21.0020000000    27.5670000000
  105      H      14.2700000000    20.4010000000    28.1460000000
  106      H      14.7090000000    22.0470000000    28.2730000000
  107      S      15.9100000000    20.7540000000    29.9420000000
  108      C      17.3340000000    21.8560000000    29.7830000000
  109      H      17.8220000000    21.6280000000    28.8320000000
  110      H      16.9680000000    22.8850000000    29.7940000000
  111      H      17.9940000000    21.6300000000    30.6250000000
  112      O      16.5770000000    19.4160000000    29.8670000000
  113      C      27.2700000000    12.2350000000    22.5200000000
  114      H      27.9240000000    11.3940000000    22.7650000000
  115      H      26.4490000000    11.8690000000    21.8980000000
  116      H      27.9150000000    12.9230000000    21.9670000000
  117      S      26.6220000000    12.9820000000    24.0320000000
  118      C      28.0580000000    12.4610000000    24.9980000000
  119      H      27.7750000000    12.6190000000    26.0420000000
  120      H      28.2180000000    11.3800000000    25.0010000000
  121      H      28.8980000000    13.0970000000    24.7060000000
  122      O      25.5730000000    11.9550000000    24.3280000000
  123      C      11.7880000000    15.8170000000    29.1880000000
  124      H      11.5000000000    16.3320000000    28.2680000000
  125      H      10.8490000000    15.5860000000    29.6970000000
  126      H      12.5020000000    16.3360000000    29.8320000000
  127      S      12.5330000000    14.3450000000    28.4510000000
  128      C      13.1400000000    13.8420000000    30.0770000000
  129      H      12.3070000000    13.5790000000    30.7350000000
  130      H      13.7840000000    12.9600000000    30.0560000000
  131      H      13.7100000000    14.6420000000    30.5570000000
  132      O      13.7670000000    14.8920000000    27.8030000000
  133      C      25.1870000000    12.9110000000    30.0200000000
  134      H      24.8870000000    11.9690000000    30.4870000000
  135      H      26.0380000000    13.3310000000    30.5630000000
  136      H      24.4020000000    13.6700000000    29.9640000000
  137      S      25.8630000000    12.5640000000    28.3810000000
  138      C      27.2400000000    11.6140000000    29.0640000000
  139      H      27.7560000000    11.0710000000    28.2680000000
  140      H      27.9160000000    12.3210000000    29.5520000000
  141      H      26.7860000000    10.8880000000    29.7440000000
  142      O      26.5940000000    13.8080000000    27.9820000000
  143      C      24.0450000000    16.3290000000    33.5990000000
  144      H      23.2470000000    16.8240000000    34.1590000000
  145      H      25.0440000000    16.3680000000    34.0400000000
  146      H      24.2700000000    16.7500000000    32.6160000000
  147      S      23.5860000000    14.5820000000    33.5490000000
  148      C      24.0420000000    14.3260000000    35.2790000000
  149      H      23.9550000000    15.2850000000    35.7950000000
  150      H      23.4880000000    13.4870000000    35.7090000000
  151      H      25.1130000000    14.1070000000    35.2630000000
  152      O      24.6430000000    13.9510000000    32.6990000000
  153      C      21.7480000000    24.7660000000    30.9420000000
  154      H      22.3410000000    24.8850000000    31.8530000000
  155      H      22.1110000000    23.8070000000    30.5630000000
  156      H      21.8250000000    25.6290000000    30.2760000000
  157      S      19.9800000000    24.5670000000    31.2550000000
  158      C      19.5970000000    26.2120000000    31.8990000000
  159      H      20.0360000000    26.9340000000    31.2070000000
  160      H      18.5170000000    26.2810000000    32.0540000000
  161      H      20.0670000000    26.2910000000    32.8830000000
  162      O      19.8440000000    23.7630000000    32.5110000000
  163      C      18.2210000000    20.1230000000    33.1330000000
  164      H      19.1410000000    19.5450000000    33.0120000000
  165      H      17.6710000000    19.9490000000    32.2040000000
  166      H      18.4720000000    21.1730000000    33.2990000000
  167      S      17.3310000000    19.4380000000    34.5490000000
  168      C      17.5940000000    17.7200000000    34.0530000000
  169      H      17.0820000000    17.0590000000    34.7570000000
  170      H      17.1140000000    17.5540000000    33.0850000000
  171      H      18.6730000000    17.5480000000    34.0300000000
  172      O      15.8820000000    19.7120000000    34.2890000000
  173      C      19.7550000000    16.2930000000    37.4940000000
  174      H      19.4350000000    15.2500000000    37.4230000000
  175      H      19.7060000000    16.5440000000    38.5570000000
  176      H      19.0450000000    16.9080000000    36.9360000000
  177      S      21.3380000000    16.3870000000    36.6280000000
  178      C      21.7080000000    18.0900000000    37.1050000000
  179      H      22.4350000000    18.3430000000    36.3290000000
  180      H      20.7500000000    18.5620000000    36.8680000000
  181      H      22.0100000000    18.1350000000    38.1540000000
  182      O      20.8720000000    16.6470000000    35.2290000000
  183      C      16.9570000000    12.8480000000    27.3200000000
  184      H      16.8280000000    11.7770000000    27.4960000000
  185      H      16.3170000000    13.1880000000    26.5010000000
  186      H      18.0370000000    13.0080000000    27.2740000000
  187      S      16.3430000000    13.8210000000    28.7130000000
  188      C      16.6150000000    15.3840000000    27.8480000000
  189      H      16.4640000000    16.2020000000    28.5570000000
  190      H      17.6220000000    15.3860000000    27.4230000000
  191      H      15.9420000000    15.5290000000    26.9990000000
  192      O      17.5100000000    13.5600000000    29.6140000000
  193      C      14.3350000000    17.9630000000    32.0810000000
  194      H      14.3290000000    17.6230000000    31.0420000000
  195      H      14.7830000000    18.9470000000    32.2420000000
  196      H      14.9020000000    17.1500000000    32.5440000000
  197      S      12.6440000000    17.9270000000    32.7170000000
  198      C      13.0270000000    18.2660000000    34.4500000000
  199      H      12.2050000000    18.0550000000    35.1390000000
  200      H      13.8820000000    17.6260000000    34.6810000000
  201      H      13.1380000000    19.3510000000    34.5240000000
  202      O      12.3730000000    16.4560000000    32.6480000000
  203      C      27.3160000000    17.2420000000    35.7490000000
  204      H      27.6750000000    17.7590000000    34.8560000000
  205      H      28.1730000000    16.8850000000    36.3240000000
  206      H      26.5780000000    16.4800000000    35.4830000000
  207      S      26.3910000000    18.3630000000    36.8230000000
  208      C      26.3010000000    17.1860000000    38.1910000000
  209      H      27.3160000000    16.9010000000    38.4800000000
  210      H      25.6360000000    17.6790000000    38.9050000000
  211      H      25.8680000000    16.2090000000    37.9600000000
  212      O      24.9650000000    18.3870000000    36.3660000000
  213      C      21.3750000000    16.4550000000    24.9030000000
  214      H      21.3800000000    15.7840000000    25.7660000000
  215      H      20.5880000000    17.2090000000    24.9870000000
  216      H      21.3640000000    15.9290000000    23.9450000000
  217      S      22.9370000000    17.3530000000    25.0310000000
  218      C      23.9950000000    16.0570000000    24.3480000000
  219      H      25.0290000000    16.4110000000    24.3310000000
  220      H      23.7500000000    15.0860000000    24.7850000000
  221      H      23.7880000000    16.1120000000    23.2760000000
  222      O      23.3480000000    17.6720000000    26.4340000000
  223      C      27.3180000000    21.3220000000    25.0420000000
  224      H      27.2480000000    20.7220000000    25.9530000000
  225      H      28.3500000000    21.6630000000    24.9300000000
  226      H      26.5070000000    22.0470000000    24.9360000000
  227      S      27.2320000000    20.1710000000    23.6520000000
  228      C      26.8480000000    21.4060000000    22.3910000000
  229      H      27.6090000000    22.1880000000    22.4540000000
  230      H      26.7550000000    20.8810000000    21.4360000000
  231      H      25.9580000000    21.9380000000    22.7370000000
  232      O      25.9310000000    19.4660000000    23.8810000000
  233      C      27.6850000000    16.8410000000    28.6930000000
  234      H      28.3630000000    17.0870000000    29.5140000000
  235      H      26.6560000000    16.7090000000    29.0380000000
  236      H      27.9580000000    15.8860000000    28.2360000000
  237      S      27.6850000000    18.0110000000    27.3160000000
  238      C      26.5250000000    16.9890000000    26.3800000000
  239      H      26.2010000000    17.4880000000    25.4630000000
  240      H      26.9320000000    15.9930000000    26.1900000000
  241      H      25.6780000000    16.8060000000    27.0460000000
  242      O      29.0210000000    18.0400000000    26.6420000000
  243      C      20.2530000000    11.5280000000    28.4740000000
  244      H      21.2670000000    11.3130000000    28.8180000000
  245      H      20.1890000000    10.8740000000    27.6000000000
  246      H      20.0870000000    12.5940000000    28.3000000000
  247      S      19.2340000000    10.9040000000    29.8300000000
  248      C      19.8210000000    12.1720000000    30.9760000000
  249      H      19.4130000000    13.1630000000    30.7610000000
  250      H      19.5300000000    11.8210000000    31.9690000000
  251      H      20.9140000000    12.1630000000    31.0100000000
  252      O      20.0330000000     9.7080000000    30.2470000000
  253      C      22.2690000000    11.5750000000    23.8950000000
  254      H      22.0710000000    10.9750000000    23.0030000000
  255      H      21.5200000000    12.3480000000    24.0870000000
  256      H      23.2370000000    12.0820000000    23.8760000000
  257      S      22.1330000000    10.5150000000    25.3510000000
  258      C      23.3580000000     9.2930000000    24.8300000000
  259      H      23.4210000000     8.4800000000    25.5570000000
  260      H      23.0620000000     8.9260000000    23.8430000000
  261      H      24.3010000000     9.8420000000    24.7660000000
  262      O      20.7910000000     9.8600000000    25.2360000000
  263      C      16.2380000000    17.2520000000    22.1330000000
  264      H      15.5860000000    16.5900000000    21.5570000000
  265      H      15.8340000000    17.6540000000    23.0660000000
  266      H      16.5800000000    18.1490000000    21.6110000000
  267      S      17.7420000000    16.3510000000    22.5700000000
  268      C      16.9320000000    15.0770000000    23.5640000000
  269      H      17.7300000000    14.3880000000    23.8520000000
  270      H      16.5740000000    15.6570000000    24.4180000000
  271      H      16.1120000000    14.6450000000    22.9840000000
  272      O      18.4430000000    17.2000000000    23.5840000000
 ----------------------------------------------------------------
 Nuclear Repulsion Energy =       41946.72372271 hartrees
 There are      560 alpha and      560 beta electrons
 Requested basis set is 6-31+G(d)
 There are 896 shells and 2497 basis functions

 Total QAlloc Memory Limit  16000 MB
 Mega-Array Size      7821 MB
 MEM_STATIC part      8000 MB
 A cutoff of  1.0D-14 yielded 155021 shell pairs
 There are   1341369 function pairs
 Smallest overlap matrix eigenvalue = 5.06E-07
 Linear dependence detected in AO basis
 Tighter screening thresholds may be required for diffuse basis sets
 Use S2THRESH > 14 and THRESH = 14 in case of SCF convergence issues
 Number of orthogonalized atomic orbitals = 2495
 Maximum deviation from orthogonality = 1.962E-10

 Scale SEOQF with 1.000000e-03/1.000000e-03/1.000000e-03

 Standard Electronic Orientation quadrupole field applied
 Nucleus-field energy     =    -0.0000006814 hartrees
Attempting to make child job directory: /local/scratch/users/ymao/r7.00_frame_0017_almo_B3LYP_dp.in20210311133739//Frg1/
Attempting to make child job directory: /local/scratch/users/ymao/r7.00_frame_0017_almo_B3LYP_dp.in20210311133739//Frg2/
Creating input file /local/scratch/users/ymao/r7.00_frame_0017_almo_B3LYP_dp.in20210311133739/Frg1.input
using default PutDataFrgm: nothing
calling putenv with: QCSCRATCH=/local/scratch/users/ymao/r7.00_frame_0017_almo_B3LYP_dp.in20210311133739/ 
Spawning Job For Fragment 0
Done Job For Fragment 0
calling putenv with: QCSCRATCH=/local/scratch/users/ymao 
calling putenv with: QCTHREADS=8 
Creating input file /local/scratch/users/ymao/r7.00_frame_0017_almo_B3LYP_dp.in20210311133739/Frg2.input
using default PutDataFrgm: nothing
calling putenv with: QCSCRATCH=/local/scratch/users/ymao/r7.00_frame_0017_almo_B3LYP_dp.in20210311133739/ 
Spawning Job For Fragment 1
Done Job For Fragment 1
calling putenv with: QCSCRATCH=/local/scratch/users/ymao 
calling putenv with: QCTHREADS=8 
 Time for running child jobs:  CPU 0.78 s  wall 15955.86 s

 -----------------------------------------------------------------------
  General SCF calculation program by
  Eric Jon Sundstrom, Paul Horn, Yuezhi Mao, Dmitri Zuev, Alec White,
  David Stuck, Shaama M.S., Shane Yost, Joonho Lee, David Small,
  Daniel Levine, Susi Lehtola, Hugh Burton, Evgeny Epifanovsky,
  Bang C. Huynh
 -----------------------------------------------------------------------
Performing Restricted Closed Shell SCFMI
Doing General SCFMI
 Exchange:     0.2000 Hartree-Fock + 0.0800 Slater + 0.7200 B88
 Correlation:  0.1900 VWN1RPA + 0.8100 LYP
 Using Euler-Maclaurin-Lebedev (75,302) quadrature formula
performing fock build before subrot guess so that all methods have access
Printing subrot_rss_gen Method Specification:
Occupied Subspace Method is 0
Virtual Subspace Method is 0
Energy prior to optimization (guess energy) = -14234.339997140443
Begin Timing: Total SCF Calculation
begin iterations for algorithm: DIIS         
the SCF tolerance is set to 1.00e-08
    1  -14234.3399971404      4.45e-05     00000 
    2  -14234.3423166488      5.90e-05     00000 
    3  -14234.3494847681      2.13e-05     00000 
    4  -14234.3504154289      7.55e-06     00000 
    5  -14234.3505610940      3.37e-06     00000 
    6  -14234.3505900305      2.12e-06     00000 
    7  -14234.3506006934      1.45e-06     00000 
    8  -14234.3506057401      7.05e-07     00000 
    9  -14234.3506066241      4.57e-07     00000 
   10  -14234.3506068963      3.13e-07     00000 
   11  -14234.3506070656      1.86e-07     00000 
   12  -14234.3506071459      9.80e-08     00000 
   13  -14234.3506071753      4.79e-08     00000 
   14  -14234.3506071808      3.46e-08     00000 
   15  -14234.3506071830      2.10e-08     00000 
   16  -14234.3506071841      9.20e-09     00000 Convergence criterion met
write pseudocanon occs and virts to disk
write pseudocanon orbital energies to disk
Timing for Total SCF: 40260.00s (wall), 319353.21s (cpu)
SCFMI Energy  -14234.3506071841
<S^2>            0.00000
 Total energy in the final basis set =   -14234.3506071841
    ==================================================
        The end of Object-Oriented SCFman: SCFMI      
    ==================================================
 
 --------------------------------------------------------------
 
                    Orbital Energies (a.u.)
 --------------------------------------------------------------
 
 Alpha MOs
 -- Occupied --
-89.0206 -89.0175 -89.0118 -89.0079 -89.0066 -89.0064 -89.0059 -89.0041
-89.0024 -88.9977 -88.9946 -88.9935 -88.9926 -88.9902 -88.9840 -88.9823
-88.9820 -88.9816 -88.9778 -88.9776 -88.9685 -88.9673 -88.9563 -88.9541
-88.9460 -19.1424 -19.1321 -19.1288 -19.1229 -19.1225 -19.1219 -19.1202
-19.1199 -19.1178 -19.1170 -19.1144 -19.1126 -19.1123 -19.1088 -19.1022
-19.1013 -19.1010 -19.0993 -19.0970 -19.0959 -19.0942 -19.0864 -19.0858
-19.0821 -19.0793 -19.0569 -14.3453 -10.2775 -10.2455 -10.2415 -10.2406
-10.2332 -10.2297 -10.2295 -10.2256 -10.2255 -10.2196 -10.2195 -10.2192
-10.2184 -10.2184 -10.2174 -10.2171 -10.2168 -10.2160 -10.2150 -10.2145
-10.2129 -10.2124 -10.2112 -10.2112 -10.2096 -10.2095 -10.2089 -10.2089
-10.2053 -10.2046 -10.2045 -10.2038 -10.2037 -10.2010 -10.1999 -10.1996
-10.1991 -10.1975 -10.1966 -10.1946 -10.1939 -10.1925 -10.1921 -10.1912
-10.1901 -10.1889 -10.1839 -10.1826 -10.1818 -10.1724 -10.1723 -10.1708
-10.1693 -10.1676 -10.1652 -10.1616 -10.1570  -8.0674  -8.0637  -8.0583
 -8.0534  -8.0527  -8.0524  -8.0515  -8.0506  -8.0489  -8.0434  -8.0405
 -8.0391  -8.0386  -8.0367  -8.0308  -8.0280  -8.0280  -8.0279  -8.0232
 -8.0227  -8.0145  -8.0134  -8.0018  -8.0010  -7.9914  -6.0317  -6.0304
 -6.0280  -6.0268  -6.0247  -6.0225  -6.0213  -6.0209  -6.0178  -6.0169
 -6.0167  -6.0165  -6.0159  -6.0156  -6.0155  -6.0154  -6.0150  -6.0146
 -6.0136  -6.0134  -6.0119  -6.0109  -6.0105  -6.0101  -6.0089  -6.0079
 -6.0074  -6.0065  -6.0063  -6.0048  -6.0035  -6.0034  -6.0028  -6.0021
 -6.0015  -6.0014  -6.0014  -5.9998  -5.9981  -5.9968  -5.9960  -5.9952
 -5.9939  -5.9935  -5.9925  -5.9924  -5.9923  -5.9911  -5.9909  -5.9908
 -5.9881  -5.9876  -5.9874  -5.9863  -5.9859  -5.9855  -5.9853  -5.9853
 -5.9806  -5.9798  -5.9789  -5.9777  -5.9776  -5.9766  -5.9718  -5.9706
 -5.9664  -5.9655  -5.9648  -5.9645  -5.9593  -5.9573  -5.9556  -5.9545
 -5.9492  -1.0502  -1.0418  -1.0369  -1.0328  -1.0311  -1.0303  -1.0299
 -1.0296  -1.0290  -1.0287  -1.0281  -1.0252  -1.0195  -1.0183  -1.0126
 -1.0120  -1.0105  -1.0092  -1.0091  -1.0032  -1.0018  -0.9946  -0.9923
 -0.9851  -0.9829  -0.9685  -0.9105  -0.8284  -0.8189  -0.8168  -0.8147
 -0.8090  -0.8086  -0.8081  -0.8054  -0.8049  -0.8035  -0.8019  -0.7997
 -0.7947  -0.7931  -0.7929  -0.7918  -0.7905  -0.7882  -0.7854  -0.7818
 -0.7778  -0.7747  -0.7724  -0.7666  -0.7654  -0.7544  -0.7499  -0.7437
 -0.7394  -0.7392  -0.7350  -0.7331  -0.7325  -0.7308  -0.7284  -0.7283
 -0.7260  -0.7228  -0.7219  -0.7207  -0.7186  -0.7185  -0.7154  -0.7101
 -0.7087  -0.7082  -0.7067  -0.7066  -0.7027  -0.7016  -0.7010  -0.6755
 -0.6710  -0.6319  -0.6318  -0.6304  -0.6250  -0.6214  -0.6203  -0.6193
 -0.6178  -0.6140  -0.6135  -0.6129  -0.6121  -0.6087  -0.6064  -0.6048
 -0.6045  -0.5996  -0.5981  -0.5959  -0.5939  -0.5923  -0.5902  -0.5810
 -0.5803  -0.5761  -0.5736  -0.5684  -0.5604  -0.5492  -0.5193  -0.5047
 -0.5041  -0.4997  -0.4934  -0.4911  -0.4897  -0.4891  -0.4887  -0.4865
 -0.4848  -0.4846  -0.4835  -0.4823  -0.4819  -0.4795  -0.4788  -0.4785
 -0.4783  -0.4772  -0.4769  -0.4763  -0.4762  -0.4751  -0.4727  -0.4727
 -0.4722  -0.4719  -0.4717  -0.4709  -0.4706  -0.4700  -0.4689  -0.4680
 -0.4678  -0.4678  -0.4670  -0.4655  -0.4639  -0.4632  -0.4632  -0.4629
 -0.4613  -0.4608  -0.4604  -0.4598  -0.4594  -0.4585  -0.4572  -0.4566
 -0.4564  -0.4553  -0.4549  -0.4539  -0.4535  -0.4531  -0.4500  -0.4495
 -0.4489  -0.4467  -0.4462  -0.4457  -0.4449  -0.4442  -0.4420  -0.4417
 -0.4403  -0.4400  -0.4398  -0.4393  -0.4384  -0.4366  -0.4363  -0.4353
 -0.4351  -0.4346  -0.4341  -0.4339  -0.4337  -0.4330  -0.4329  -0.4326
 -0.4320  -0.4307  -0.4295  -0.4288  -0.4277  -0.4268  -0.4262  -0.4248
 -0.4237  -0.4236  -0.4229  -0.4221  -0.4219  -0.4217  -0.4201  -0.4197
 -0.4181  -0.4177  -0.4164  -0.4154  -0.4150  -0.4147  -0.4144  -0.4129
 -0.4127  -0.4123  -0.4108  -0.4101  -0.4094  -0.4088  -0.4085  -0.4080
 -0.4066  -0.4056  -0.4052  -0.4044  -0.4033  -0.4032  -0.4027  -0.4012
 -0.4007  -0.4004  -0.3997  -0.3988  -0.3983  -0.3972  -0.3954  -0.3952
 -0.3917  -0.3904  -0.3900  -0.3888  -0.3871  -0.3850  -0.3848  -0.3845
 -0.3839  -0.3832  -0.3830  -0.3819  -0.3814  -0.3810  -0.3802  -0.3801
 -0.3764  -0.3761  -0.3760  -0.3756  -0.3742  -0.3737  -0.3727  -0.3720
 -0.3715  -0.3714  -0.3710  -0.3697  -0.3690  -0.3686  -0.3684  -0.3656
 -0.3646  -0.3642  -0.3641  -0.3621  -0.3610  -0.3600  -0.3584  -0.3576
 -0.3545  -0.3540  -0.3533  -0.3483  -0.3475  -0.3460  -0.3443  -0.3440
 -0.3424  -0.3413  -0.3405  -0.3326  -0.3311  -0.3277  -0.3214  -0.3210
 -0.3193  -0.3072  -0.3034  -0.2980  -0.2948  -0.2914  -0.2882  -0.2871
 -0.2833  -0.2819  -0.2803  -0.2797  -0.2784  -0.2753  -0.2741  -0.2702
 -0.2665  -0.2652  -0.2634  -0.2610  -0.2599  -0.2585  -0.2581  -0.2579
 -0.2567  -0.2550  -0.2547  -0.2544  -0.2535  -0.2510  -0.2488  -0.2479
 -0.2478  -0.2460  -0.2456  -0.2444  -0.2441  -0.2434  -0.2410  -0.2404
 -0.2375  -0.2368  -0.2363  -0.2297  -0.2266  -0.2262  -0.2248  -0.2236
 -0.2185  -0.2181  -0.2146  -0.2079  -0.2071  -0.1976  -0.1945  -0.1797
 -- Virtual --
 -0.0300  -0.0192  -0.0184  -0.0142  -0.0141  -0.0134  -0.0130  -0.0117
 -0.0111  -0.0104  -0.0103  -0.0077  -0.0068  -0.0057  -0.0041  -0.0036
 -0.0031  -0.0012  -0.0001   0.0005   0.0015   0.0021   0.0028   0.0041
  0.0047   0.0072   0.0075   0.0083   0.0093   0.0098   0.0103   0.0107
  0.0115   0.0124   0.0130   0.0136   0.0143   0.0149   0.0155   0.0164
  0.0178   0.0182   0.0190   0.0199   0.0207   0.0212   0.0216   0.0225
  0.0230   0.0246   0.0254   0.0259   0.0269   0.0270   0.0286   0.0297
  0.0308   0.0312   0.0324   0.0331   0.0335   0.0348   0.0349   0.0354
  0.0364   0.0379   0.0385   0.0391   0.0398   0.0399   0.0409   0.0412
  0.0419   0.0421   0.0424   0.0428   0.0438   0.0440   0.0449   0.0454
  0.0456   0.0463   0.0464   0.0475   0.0479   0.0482   0.0490   0.0497
  0.0502   0.0509   0.0520   0.0527   0.0534   0.0542   0.0543   0.0549
  0.0554   0.0559   0.0563   0.0566   0.0580   0.0585   0.0592   0.0595
  0.0603   0.0611   0.0615   0.0624   0.0633   0.0638   0.0646   0.0654
  0.0662   0.0670   0.0682   0.0691   0.0694   0.0699   0.0712   0.0714
  0.0719   0.0724   0.0734   0.0738   0.0746   0.0753   0.0765   0.0767
  0.0771   0.0778   0.0780   0.0782   0.0789   0.0801   0.0805   0.0816
  0.0821   0.0827   0.0834   0.0837   0.0843   0.0855   0.0864   0.0869
  0.0871   0.0878   0.0883   0.0895   0.0905   0.0914   0.0918   0.0924
  0.0931   0.0934   0.0939   0.0943   0.0953   0.0958   0.0966   0.0975
  0.0983   0.0990   0.0995   0.1004   0.1011   0.1018   0.1024   0.1026
  0.1032   0.1039   0.1047   0.1050   0.1055   0.1060   0.1067   0.1077
  0.1079   0.1086   0.1105   0.1106   0.1109   0.1124   0.1127   0.1128
  0.1141   0.1148   0.1156   0.1160   0.1163   0.1171   0.1175   0.1182
  0.1190   0.1198   0.1202   0.1207   0.1209   0.1220   0.1225   0.1235
  0.1241   0.1247   0.1253   0.1262   0.1272   0.1275   0.1280   0.1285
  0.1288   0.1294   0.1300   0.1312   0.1313   0.1314   0.1322   0.1330
  0.1342   0.1345   0.1350   0.1361   0.1370   0.1370   0.1374   0.1391
  0.1396   0.1407   0.1410   0.1421   0.1426   0.1431   0.1444   0.1453
  0.1457   0.1459   0.1470   0.1475   0.1482   0.1485   0.1495   0.1504
  0.1509   0.1510   0.1515   0.1523   0.1526   0.1530   0.1540   0.1544
  0.1551   0.1554   0.1560   0.1567   0.1573   0.1580   0.1590   0.1600
  0.1610   0.1613   0.1622   0.1626   0.1633   0.1639   0.1643   0.1649
  0.1654   0.1664   0.1668   0.1676   0.1679   0.1689   0.1695   0.1701
  0.1707   0.1709   0.1721   0.1732   0.1736   0.1739   0.1744   0.1746
  0.1751   0.1761   0.1763   0.1774   0.1785   0.1790   0.1791   0.1801
  0.1807   0.1816   0.1823   0.1827   0.1833   0.1840   0.1846   0.1858
  0.1861   0.1868   0.1872   0.1879   0.1891   0.1897   0.1901   0.1904
  0.1910   0.1915   0.1919   0.1925   0.1939   0.1940   0.1951   0.1956
  0.1958   0.1963   0.1973   0.1982   0.1984   0.1988   0.2003   0.2005
  0.2010   0.2016   0.2028   0.2033   0.2041   0.2047   0.2051   0.2053
  0.2061   0.2068   0.2072   0.2078   0.2088   0.2092   0.2096   0.2097
  0.2114   0.2123   0.2128   0.2134   0.2143   0.2146   0.2148   0.2159
  0.2164   0.2173   0.2178   0.2190   0.2192   0.2197   0.2204   0.2210
  0.2216   0.2219   0.2227   0.2237   0.2238   0.2244   0.2249   0.2258
  0.2269   0.2279   0.2282   0.2288   0.2297   0.2301   0.2307   0.2323
  0.2326   0.2331   0.2340   0.2344   0.2349   0.2364   0.2364   0.2371
  0.2374   0.2389   0.2396   0.2407   0.2409   0.2418   0.2422   0.2423
  0.2433   0.2434   0.2442   0.2452   0.2456   0.2461   0.2471   0.2474
  0.2481   0.2493   0.2499   0.2507   0.2516   0.2526   0.2532   0.2539
  0.2549   0.2550   0.2553   0.2564   0.2572   0.2581   0.2589   0.2595
  0.2600   0.2615   0.2625   0.2634   0.2638   0.2644   0.2650   0.2660
  0.2667   0.2677   0.2681   0.2690   0.2693   0.2699   0.2716   0.2718
  0.2730   0.2735   0.2748   0.2753   0.2760   0.2777   0.2780   0.2786
  0.2791   0.2799   0.2804   0.2823   0.2829   0.2833   0.2851   0.2861
  0.2870   0.2885   0.2887   0.2890   0.2896   0.2903   0.2914   0.2920
  0.2941   0.2945   0.2950   0.2965   0.2974   0.2977   0.2983   0.2992
  0.3002   0.3015   0.3017   0.3022   0.3038   0.3043   0.3048   0.3050
  0.3061   0.3072   0.3078   0.3088   0.3101   0.3108   0.3114   0.3131
  0.3136   0.3140   0.3158   0.3165   0.3171   0.3182   0.3186   0.3191
  0.3196   0.3211   0.3219   0.3231   0.3244   0.3253   0.3266   0.3269
  0.3280   0.3292   0.3296   0.3300   0.3321   0.3329   0.3336   0.3351
  0.3365   0.3368   0.3377   0.3380   0.3399   0.3400   0.3409   0.3415
  0.3421   0.3431   0.3433   0.3450   0.3453   0.3465   0.3469   0.3484
  0.3485   0.3492   0.3503   0.3523   0.3534   0.3542   0.3553   0.3563
  0.3567   0.3571   0.3595   0.3600   0.3610   0.3611   0.3622   0.3627
  0.3639   0.3643   0.3662   0.3673   0.3677   0.3688   0.3691   0.3699
  0.3721   0.3726   0.3736   0.3751   0.3753   0.3760   0.3772   0.3784
  0.3788   0.3798   0.3804   0.3818   0.3821   0.3831   0.3844   0.3849
  0.3867   0.3879   0.3880   0.3890   0.3902   0.3911   0.3919   0.3930
  0.3936   0.3939   0.3947   0.3958   0.3970   0.3976   0.3993   0.3996
  0.4012   0.4018   0.4023   0.4040   0.4045   0.4055   0.4065   0.4076
  0.4094   0.4095   0.4108   0.4123   0.4136   0.4139   0.4148   0.4163
  0.4165   0.4193   0.4213   0.4218   0.4227   0.4230   0.4243   0.4249
  0.4251   0.4262   0.4271   0.4277   0.4284   0.4311   0.4333   0.4337
  0.4337   0.4339   0.4357   0.4363   0.4371   0.4389   0.4397   0.4411
  0.4421   0.4443   0.4452   0.4459   0.4464   0.4482   0.4505   0.4509
  0.4513   0.4528   0.4528   0.4549   0.4566   0.4573   0.4585   0.4595
  0.4612   0.4625   0.4631   0.4651   0.4660   0.4680   0.4700   0.4709
  0.4721   0.4731   0.4742   0.4756   0.4762   0.4776   0.4779   0.4810
  0.4816   0.4823   0.4832   0.4841   0.4875   0.4881   0.4894   0.4910
  0.4921   0.4938   0.4949   0.4974   0.4984   0.4991   0.5017   0.5049
  0.5059   0.5069   0.5087   0.5096   0.5109   0.5121   0.5154   0.5158
  0.5180   0.5186   0.5203   0.5217   0.5249   0.5256   0.5262   0.5266
  0.5279   0.5314   0.5321   0.5340   0.5357   0.5370   0.5394   0.5401
  0.5413   0.5435   0.5452   0.5468   0.5482   0.5494   0.5523   0.5531
  0.5552   0.5564   0.5576   0.5602   0.5611   0.5639   0.5657   0.5667
  0.5693   0.5714   0.5725   0.5739   0.5756   0.5778   0.5804   0.5820
  0.5827   0.5835   0.5870   0.5873   0.5884   0.5897   0.5916   0.5930
  0.5943   0.5952   0.5973   0.5984   0.5999   0.6012   0.6028   0.6056
  0.6070   0.6074   0.6083   0.6094   0.6108   0.6118   0.6137   0.6149
  0.6169   0.6176   0.6195   0.6201   0.6220   0.6229   0.6239   0.6253
  0.6273   0.6292   0.6304   0.6307   0.6322   0.6338   0.6349   0.6357
  0.6365   0.6376   0.6388   0.6400   0.6420   0.6426   0.6452   0.6457
  0.6482   0.6489   0.6507   0.6515   0.6528   0.6546   0.6560   0.6572
  0.6576   0.6590   0.6600   0.6609   0.6625   0.6627   0.6645   0.6653
  0.6663   0.6674   0.6687   0.6698   0.6715   0.6730   0.6741   0.6750
  0.6759   0.6764   0.6775   0.6799   0.6801   0.6811   0.6822   0.6832
  0.6838   0.6847   0.6861   0.6865   0.6871   0.6902   0.6919   0.6928
  0.6947   0.6950   0.6972   0.6981   0.6998   0.7003   0.7018   0.7021
  0.7038   0.7063   0.7073   0.7078   0.7090   0.7091   0.7111   0.7119
  0.7125   0.7145   0.7170   0.7181   0.7189   0.7209   0.7214   0.7218
  0.7248   0.7259   0.7264   0.7268   0.7273   0.7285   0.7302   0.7324
  0.7343   0.7357   0.7371   0.7383   0.7403   0.7427   0.7440   0.7449
  0.7456   0.7493   0.7497   0.7521   0.7525   0.7537   0.7558   0.7568
  0.7570   0.7590   0.7604   0.7613   0.7623   0.7637   0.7650   0.7675
  0.7690   0.7711   0.7742   0.7755   0.7763   0.7796   0.7815   0.7826
  0.7849   0.7853   0.7861   0.7874   0.7904   0.7915   0.7926   0.7946
  0.7953   0.7990   0.7996   0.8016   0.8020   0.8046   0.8053   0.8067
  0.8077   0.8092   0.8102   0.8136   0.8148   0.8169   0.8182   0.8205
  0.8217   0.8222   0.8233   0.8256   0.8295   0.8303   0.8319   0.8329
  0.8343   0.8359   0.8362   0.8381   0.8402   0.8412   0.8422   0.8469
  0.8478   0.8491   0.8499   0.8511   0.8520   0.8537   0.8550   0.8576
  0.8593   0.8599   0.8605   0.8624   0.8643   0.8649   0.8655   0.8670
  0.8696   0.8703   0.8706   0.8721   0.8730   0.8746   0.8752   0.8756
  0.8768   0.8786   0.8804   0.8825   0.8835   0.8845   0.8860   0.8866
  0.8880   0.8894   0.8905   0.8918   0.8927   0.8931   0.8955   0.8958
  0.8972   0.8984   0.8992   0.9013   0.9018   0.9032   0.9043   0.9050
  0.9064   0.9079   0.9087   0.9107   0.9116   0.9139   0.9146   0.9150
  0.9178   0.9179   0.9195   0.9217   0.9222   0.9243   0.9247   0.9259
  0.9274   0.9282   0.9295   0.9307   0.9320   0.9332   0.9345   0.9360
  0.9369   0.9380   0.9386   0.9399   0.9407   0.9414   0.9430   0.9443
  0.9448   0.9451   0.9478   0.9486   0.9499   0.9507   0.9524   0.9540
  0.9557   0.9562   0.9569   0.9576   0.9583   0.9600   0.9621   0.9627
  0.9634   0.9647   0.9653   0.9654   0.9669   0.9693   0.9713   0.9735
  0.9749   0.9755   0.9778   0.9780   0.9788   0.9790   0.9808   0.9838
  0.9853   0.9855   0.9865   0.9872   0.9884   0.9892   0.9917   0.9944
  0.9945   0.9953   0.9972   0.9980   0.9987   0.9999   1.0012   1.0028
  1.0034   1.0054   1.0064   1.0072   1.0079   1.0090   1.0101   1.0111
  1.0115   1.0134   1.0143   1.0152   1.0161   1.0166   1.0189   1.0202
  1.0213   1.0218   1.0226   1.0240   1.0263   1.0270   1.0282   1.0289
  1.0300   1.0320   1.0333   1.0343   1.0348   1.0366   1.0370   1.0399
  1.0407   1.0409   1.0429   1.0441   1.0457   1.0482   1.0489   1.0499
  1.0512   1.0523   1.0540   1.0553   1.0578   1.0588   1.0596   1.0616
  1.0625   1.0633   1.0651   1.0668   1.0677   1.0678   1.0695   1.0721
  1.0723   1.0741   1.0745   1.0759   1.0776   1.0788   1.0811   1.0817
  1.0833   1.0843   1.0853   1.0857   1.0884   1.0909   1.0914   1.0926
  1.0946   1.0951   1.0972   1.0988   1.0996   1.1002   1.1032   1.1048
  1.1055   1.1084   1.1099   1.1106   1.1131   1.1146   1.1159   1.1172
  1.1193   1.1197   1.1213   1.1230   1.1248   1.1270   1.1273   1.1290
  1.1305   1.1315   1.1330   1.1341   1.1348   1.1375   1.1377   1.1384
  1.1396   1.1415   1.1430   1.1446   1.1458   1.1472   1.1481   1.1491
  1.1503   1.1518   1.1522   1.1531   1.1552   1.1567   1.1589   1.1597
  1.1622   1.1634   1.1653   1.1655   1.1675   1.1680   1.1687   1.1697
  1.1719   1.1754   1.1757   1.1759   1.1775   1.1807   1.1820   1.1847
  1.1863   1.1873   1.1886   1.1892   1.1908   1.1923   1.1960   1.1972
  1.1993   1.1998   1.2032   1.2037   1.2047   1.2070   1.2078   1.2106
  1.2118   1.2119   1.2162   1.2181   1.2199   1.2216   1.2227   1.2241
  1.2267   1.2294   1.2314   1.2320   1.2326   1.2347   1.2372   1.2395
  1.2426   1.2442   1.2465   1.2480   1.2525   1.2541   1.2561   1.2583
  1.2592   1.2625   1.2637   1.2656   1.2662   1.2685   1.2735   1.2771
  1.2783   1.2794   1.2842   1.2878   1.2907   1.2940   1.2942   1.2968
  1.3005   1.3010   1.3026   1.3051   1.3092   1.3100   1.3120   1.3142
  1.3171   1.3204   1.3218   1.3228   1.3242   1.3298   1.3313   1.3341
  1.3365   1.3383   1.3418   1.3431   1.3470   1.3495   1.3507   1.3511
  1.3539   1.3555   1.3562   1.3586   1.3616   1.3625   1.3661   1.3664
  1.3684   1.3694   1.3705   1.3716   1.3744   1.3751   1.3757   1.3768
  1.3789   1.3811   1.3822   1.3842   1.3850   1.3878   1.3886   1.3898
  1.3924   1.3943   1.3949   1.3976   1.3980   1.3987   1.3997   1.4019
  1.4028   1.4035   1.4056   1.4074   1.4081   1.4093   1.4109   1.4122
  1.4151   1.4159   1.4171   1.4182   1.4196   1.4209   1.4220   1.4231
  1.4245   1.4259   1.4282   1.4304   1.4327   1.4349   1.4357   1.4367
  1.4393   1.4407   1.4436   1.4448   1.4460   1.4489   1.4498   1.4512
  1.4529   1.4530   1.4555   1.4568   1.4596   1.4621   1.4629   1.4675
  1.4695   1.4700   1.4708   1.4750   1.4752   1.4773   1.4784   1.4821
  1.4854   1.4867   1.4893   1.4909   1.4921   1.4935   1.4952   1.4969
  1.4994   1.5004   1.5018   1.5031   1.5061   1.5077   1.5106   1.5115
  1.5146   1.5169   1.5180   1.5202   1.5206   1.5233   1.5252   1.5300
  1.5305   1.5331   1.5343   1.5370   1.5408   1.5438   1.5458   1.5504
  1.5522   1.5541   1.5582   1.5595   1.5622   1.5675   1.5691   1.5710
  1.5767   1.5815   1.5858   1.5902   1.5951   1.6006   1.6061   1.6155
  1.6181   1.6226   1.6247   1.6317   1.6349   1.6383   1.6434   1.6445
  1.6523   1.6562   1.6581   1.6586   1.6622   1.6653   1.6664   1.6681
  1.6705   1.6720   1.6758   1.6782   1.6790   1.6801   1.6808   1.6820
  1.6848   1.6876   1.6894   1.6912   1.6929   1.6937   1.6949   1.6967
  1.6976   1.6995   1.7013   1.7016   1.7044   1.7052   1.7065   1.7081
  1.7091   1.7105   1.7108   1.7121   1.7139   1.7145   1.7159   1.7163
  1.7176   1.7211   1.7216   1.7226   1.7229   1.7236   1.7254   1.7261
  1.7280   1.7292   1.7300   1.7319   1.7354   1.7362   1.7370   1.7378
  1.7400   1.7409   1.7437   1.7450   1.7462   1.7468   1.7488   1.7494
  1.7508   1.7513   1.7547   1.7554   1.7555   1.7561   1.7582   1.7595
  1.7605   1.7613   1.7641   1.7652   1.7662   1.7676   1.7689   1.7695
  1.7737   1.7754   1.7773   1.7801   1.7829   1.7833   1.7863   1.7866
  1.7889   1.7910   1.7946   1.7961   1.7970   1.7988   1.8014   1.8036
  1.8050   1.8074   1.8093   1.8152   1.8182   1.8197   1.8231   1.8262
  1.8284   1.8311   1.8365   1.8386   1.8403   1.8421   1.8429   1.8452
  1.8470   1.8491   1.8534   1.8561   1.8574   1.8603   1.8605   1.8628
  1.8672   1.8700   1.8706   1.8730   1.8741   1.8769   1.8774   1.8828
  1.8834   1.8847   1.8857   1.8866   1.8875   1.8891   1.8906   1.8916
  1.8932   1.8943   1.8955   1.8979   1.8990   1.9016   1.9039   1.9041
  1.9044   1.9065   1.9073   1.9090   1.9093   1.9106   1.9123   1.9147
  1.9152   1.9163   1.9169   1.9191   1.9193   1.9206   1.9220   1.9223
  1.9243   1.9260   1.9282   1.9292   1.9309   1.9312   1.9345   1.9349
  1.9389   1.9401   1.9411   1.9426   1.9442   1.9465   1.9516   1.9552
  1.9554   1.9595   1.9632   1.9653   1.9679   1.9708   1.9723   1.9805
  1.9817   1.9874   1.9965   1.9983   2.0023   2.0093   2.0248   2.0263
  2.0323   2.0378   2.0518   2.0538   2.0564   2.0569   2.0593   2.0602
  2.0619   2.0635   2.0669   2.0692   2.0709   2.0733   2.0737   2.0750
  2.0781   2.0799   2.0804   2.0833   2.0840   2.0856   2.0867   2.0880
  2.0888   2.0900   2.0912   2.0922   2.0930   2.0936   2.0969   2.0981
  2.0991   2.1001   2.1009   2.1033   2.1046   2.1051   2.1071   2.1076
  2.1112   2.1153   2.1183   2.1219   2.1247   2.1267   2.1277   2.1347
  2.1372   2.1387   2.1410   2.1438   2.1440   2.1485   2.1540   2.1545
  2.1556   2.1629   2.1640   2.1655   2.1684   2.1693   2.1713   2.1733
  2.1826   2.1853   2.1860   2.1907   2.1913   2.1940   2.1949   2.1964
  2.2003   2.2028   2.2081   2.2092   2.2108   2.2162   2.2170   2.2173
  2.2193   2.2199   2.2206   2.2218   2.2247   2.2262   2.2273   2.2289
  2.2292   2.2320   2.2323   2.2338   2.2349   2.2351   2.2363   2.2386
  2.2395   2.2414   2.2425   2.2438   2.2450   2.2460   2.2483   2.2492
  2.2506   2.2510   2.2512   2.2523   2.2533   2.2540   2.2547   2.2560
  2.2589   2.2602   2.2614   2.2626   2.2637   2.2648   2.2657   2.2686
  2.2698   2.2713   2.2724   2.2731   2.2752   2.2762   2.2781   2.2793
  2.2801   2.2805   2.2814   2.2821   2.2826   2.2834   2.2840   2.2862
  2.2871   2.2878   2.2888   2.2909   2.2919   2.2924   2.2930   2.2941
  2.2958   2.2970   2.2975   2.2977   2.2985   2.3006   2.3015   2.3025
  2.3042   2.3046   2.3056   2.3057   2.3069   2.3093   2.3111   2.3144
  2.3147   2.3157   2.3162   2.3183   2.3193   2.3201   2.3204   2.3222
  2.3243   2.3247   2.3263   2.3285   2.3298   2.3319   2.3323   2.3335
  2.3350   2.3367   2.3377   2.3391   2.3406   2.3429   2.3437   2.3439
  2.3455   2.3484   2.3519   2.3527   2.3544   2.3554   2.3581   2.3607
  2.3615   2.3643   2.3660   2.3669   2.3687   2.3709   2.3715   2.3733
  2.3761   2.3784   2.3829   2.3850   2.3864   2.3914   2.3952   2.3993
  2.4014   2.4043   2.4086   2.4146   2.4190   2.4279   2.4366   2.4472
  2.4567   2.4731   2.4996   2.5250   2.5451   2.5899   2.6737   2.7381
  2.7777   2.7987   2.8169   2.8276   2.8294   2.8307   2.8324   2.8336
  2.8371   2.8441   2.8463   2.8471   2.8510   2.8537   2.8571   2.8585
  2.8617   2.8643   2.8682   2.8712   2.8727   2.8737   2.8744   2.8802
  2.8830   2.8881   2.8929   2.8964   2.8993   2.9132   2.9200   2.9304
  3.1001   3.2568   3.9491   3.9563   3.9626   3.9632   3.9724   3.9737
  3.9773   3.9811   3.9830   3.9850   3.9868   3.9879   3.9978   3.9982
  4.0017   4.0039   4.0048   4.0163   4.0232   4.0272   4.0299   4.0326
  4.0361   4.0417   4.0471   4.2153   4.2318   4.2338   4.2366   4.2379
  4.2427   4.2458   4.2468   4.2487   4.2512   4.2516   4.2530   4.2539
  4.2571   4.2651   4.2680   4.2687   4.2733   4.2773   4.2788   4.2842
  4.2877   4.2891   4.2919   4.2941   4.2965   4.2996   4.3015   4.3031
  4.3068   4.3081   4.3091   4.3152   4.3164   4.3186   4.3196   4.3222
  4.3248   4.3286   4.3321   4.3345   4.3356   4.3403   4.3417   4.3463
  4.3484   4.3513   4.3517   4.3568   4.3576   4.3621   4.3636   4.3683
  4.3690   4.3752   4.3791   4.3812   4.3834   4.3871   4.3947   4.3995
  4.4005   4.4079   4.4143   4.4146   4.4197   4.4272   4.4314   4.4416
  4.4554   4.4653   4.4860   4.5034   4.5112   4.5216   4.5449   4.5693
  4.5831   4.6092   4.6281   4.6982   4.7231   4.7711   4.8502
 --------------------------------------------------------------
 
          Ground-State Mulliken Net Atomic Charges

     Atom                 Charge (a.u.)
  ----------------------------------------
      1 C                    -0.616537
      2 C                    -0.253304
      3 C                    -0.192592
      4 C                    -0.414056
      5 C                    -0.288277
      6 C                    -0.562714
      7 H                     0.222358
      8 H                     0.237303
      9 H                     0.207147
     10 H                     0.197164
     11 H                     0.215672
     12 H                     0.222907
     13 H                     0.166658
     14 H                     0.183600
     15 H                     0.236959
     16 H                     0.238290
     17 H                     0.196075
     18 N                    -0.491834
     19 H                     0.514052
     20 C                     0.309488
     21 H                     0.158162
     22 O                    -0.486522
     23 C                    -1.008460
     24 H                     0.256328
     25 H                     0.267652
     26 H                     0.244282
     27 S                     0.973512
     28 C                    -0.954870
     29 H                     0.242356
     30 H                     0.246667
     31 H                     0.280519
     32 O                    -0.640411
     33 C                    -0.931766
     34 H                     0.252388
     35 H                     0.243350
     36 H                     0.229192
     37 S                     1.091625
     38 C                    -0.957298
     39 H                     0.270140
     40 H                     0.241394
     41 H                     0.277125
     42 O                    -0.692078
     43 C                    -0.934333
     44 H                     0.232222
     45 H                     0.263037
     46 H                     0.239620
     47 S                     1.107128
     48 C                    -0.992932
     49 H                     0.279779
     50 H                     0.219879
     51 H                     0.242319
     52 O                    -0.682939
     53 C                    -0.817020
     54 H                     0.224933
     55 H                     0.283469
     56 H                     0.238579
     57 S                     0.758937
     58 C                    -0.882546
     59 H                     0.226565
     60 H                     0.306162
     61 H                     0.269087
     62 O                    -0.682055
     63 C                    -0.887537
     64 H                     0.286959
     65 H                     0.289381
     66 H                     0.241366
     67 S                     0.885741
     68 C                    -0.934757
     69 H                     0.274772
     70 H                     0.294728
     71 H                     0.239500
     72 O                    -0.727319
     73 C                    -0.905819
     74 H                     0.224282
     75 H                     0.232988
     76 H                     0.268332
     77 S                     1.026898
     78 C                    -0.883170
     79 H                     0.255385
     80 H                     0.210763
     81 H                     0.271260
     82 O                    -0.725439
     83 C                    -0.969725
     84 H                     0.255547
     85 H                     0.252267
     86 H                     0.282226
     87 S                     1.072972
     88 C                    -0.953946
     89 H                     0.254083
     90 H                     0.252032
     91 H                     0.238763
     92 O                    -0.744039
     93 C                    -0.908765
     94 H                     0.248049
     95 H                     0.230345
     96 H                     0.259224
     97 S                     1.157348
     98 C                    -0.973472
     99 H                     0.256168
    100 H                     0.251139
    101 H                     0.239925
    102 O                    -0.706611
    103 C                    -0.826847
    104 H                     0.230955
    105 H                     0.258559
    106 H                     0.250395
    107 S                     0.686654
    108 C                    -0.634140
    109 H                     0.260811
    110 H                     0.232702
    111 H                     0.274047
    112 O                    -0.621900
    113 C                    -0.861989
    114 H                     0.243911
    115 H                     0.255671
    116 H                     0.236481
    117 S                     1.002602
    118 C                    -0.831115
    119 H                     0.287762
    120 H                     0.251464
    121 H                     0.243781
    122 O                    -0.777598
    123 C                    -0.741540
    124 H                     0.225206
    125 H                     0.252118
    126 H                     0.246699
    127 S                     0.875229
    128 C                    -0.885775
    129 H                     0.247388
    130 H                     0.270041
    131 H                     0.277866
    132 O                    -0.723787
    133 C                    -0.704451
    134 H                     0.209057
    135 H                     0.266470
    136 H                     0.283631
    137 S                     0.544494
    138 C                    -0.788954
    139 H                     0.240021
    140 H                     0.270119
    141 H                     0.221352
    142 O                    -0.649211
    143 C                    -1.119636
    144 H                     0.281231
    145 H                     0.228515
    146 H                     0.250219
    147 S                     1.363941
    148 C                    -1.035295
    149 H                     0.265074
    150 H                     0.288595
    151 H                     0.265195
    152 O                    -0.692926
    153 C                    -0.850836
    154 H                     0.264122
    155 H                     0.336084
    156 H                     0.229912
    157 S                     0.855049
    158 C                    -0.813775
    159 H                     0.221007
    160 H                     0.245561
    161 H                     0.267082
    162 O                    -0.715304
    163 C                    -0.924547
    164 H                     0.214390
    165 H                     0.276246
    166 H                     0.282523
    167 S                     0.874104
    168 C                    -0.948048
    169 H                     0.246271
    170 H                     0.276217
    171 H                     0.286516
    172 O                    -0.660168
    173 C                    -0.876747
    174 H                     0.293774
    175 H                     0.231562
    176 H                     0.247365
    177 S                     0.884718
    178 C                    -0.756498
    179 H                     0.277942
    180 H                     0.237794
    181 H                     0.228419
    182 O                    -0.726536
    183 C                    -0.725497
    184 H                     0.273192
    185 H                     0.216687
    186 H                     0.260926
    187 S                     0.664912
    188 C                    -0.862283
    189 H                     0.278595
    190 H                     0.238801
    191 H                     0.276063
    192 O                    -0.715919
    193 C                    -0.921197
    194 H                     0.264697
    195 H                     0.283876
    196 H                     0.240124
    197 S                     0.897523
    198 C                    -0.819207
    199 H                     0.251089
    200 H                     0.241998
    201 H                     0.261542
    202 O                    -0.711329
    203 C                    -0.726523
    204 H                     0.268414
    205 H                     0.226305
    206 H                     0.252304
    207 S                     0.825830
    208 C                    -0.838714
    209 H                     0.227193
    210 H                     0.248281
    211 H                     0.267717
    212 O                    -0.713657
    213 C                    -0.930344
    214 H                     0.274750
    215 H                     0.274522
    216 H                     0.236680
    217 S                     0.956071
    218 C                    -0.847504
    219 H                     0.279439
    220 H                     0.257952
    221 H                     0.245628
    222 O                    -0.755024
    223 C                    -0.789630
    224 H                     0.285850
    225 H                     0.232298
    226 H                     0.238288
    227 S                     0.955021
    228 C                    -0.827521
    229 H                     0.233064
    230 H                     0.240309
    231 H                     0.253028
    232 O                    -0.764541
    233 C                    -0.942378
    234 H                     0.291386
    235 H                     0.234056
    236 H                     0.278743
    237 S                     0.902010
    238 C                    -0.897993
    239 H                     0.260632
    240 H                     0.272546
    241 H                     0.270236
    242 O                    -0.656977
    243 C                    -0.708888
    244 H                     0.262495
    245 H                     0.285371
    246 H                     0.213814
    247 S                     0.775573
    248 C                    -0.867165
    249 H                     0.275068
    250 H                     0.253780
    251 H                     0.235958
    252 O                    -0.712023
    253 C                    -0.829807
    254 H                     0.237303
    255 H                     0.224234
    256 H                     0.289020
    257 S                     0.904938
    258 C                    -0.851447
    259 H                     0.249390
    260 H                     0.239910
    261 H                     0.285672
    262 O                    -0.707469
    263 C                    -0.799285
    264 H                     0.233239
    265 H                     0.254669
    266 H                     0.258201
    267 S                     0.736190
    268 C                    -0.701108
    269 H                     0.262490
    270 H                     0.255045
    271 H                     0.230938
    272 O                    -0.739114
  ----------------------------------------
  Sum of atomic charges =     0.000000

 -----------------------------------------------------------------
                    Cartesian Multipole Moments
 -----------------------------------------------------------------
    Charge (ESU x 10^10)
                -0.0000
    Dipole Moment (Debye)
         X      -9.1732      Y      13.7763      Z      -3.6865
       Tot      16.9565
    Quadrupole Moments (Debye-Ang)
        XX   -1182.0806     XY      22.5796     YY    -508.1810
        XZ    -307.8110     YZ     366.0698     ZZ    -950.0820
    Octopole Moments (Debye-Ang^2)
       XXX  -63632.8642    XXY  -18525.4819    XYY  -16786.2173
       YYY  -33928.9045    XXZ  -35196.9288    XYZ     574.6687
       YYZ  -15689.6622    XZZ  -25395.9569    YZZ   -1969.5239
       ZZZ  -75683.8136
    Hexadecapole Moments (Debye-Ang^3)
      XXXX ************   XXXY ************   XXYY -734546.3287
      XYYY -839272.0034   YYYY ************   XXXZ ************
      XXYZ -539839.2633   XYYZ -494201.1468   YYYZ ************
      XXZZ ************   XYZZ -224869.3657   YYZZ -697694.8613
      XZZZ ************   YZZZ -796683.0746   ZZZZ ************
 -----------------------------------------------------------------
Archival summary:
[...]
    3  -0.0542338   0.0028356  -0.0073200  -0.0034989   0.0304917   0.0404070
          103         104         105         106         107         108
    1  -0.0007501   0.0182170  -0.0167630  -0.0102277  -0.0329029   0.0077926
    2   0.0018808  -0.0091903  -0.0286366   0.0349319   0.0160176   0.0036200
    3  -0.0085197  -0.0249334  -0.0039185   0.0019913   0.0457626  -0.0026865
          109         110         111         112         113         114
    1   0.0191205  -0.0012929   0.0204696   0.0500477   0.0039666   0.0122699
    2  -0.0051009   0.0348473  -0.0007523  -0.0999653  -0.0038353  -0.0275748
    3  -0.0246653   0.0023214   0.0211999  -0.0035092  -0.0078559   0.0087994
          115         116         117         118         119         120
    1  -0.0252450   0.0153977  -0.0047106   0.0040670  -0.0021882   0.0065569
    2  -0.0066117   0.0239432   0.0530942  -0.0007452   0.0230798  -0.0312834
    3  -0.0152044  -0.0217526  -0.0016844   0.0093502   0.0311440  -0.0154914
          121         122         123         124         125         126
    1   0.0315992  -0.0762424  -0.0030507  -0.0063915  -0.0244664   0.0165861
    2   0.0138608  -0.0730369   0.0068074   0.0342882  -0.0058483   0.0161900
    3  -0.0011584   0.0196513   0.0021302  -0.0191615   0.0226738   0.0157410
          127         128         129         130         131         132
    1  -0.0356424   0.0054738  -0.0250478   0.0202593   0.0151388   0.0900235
    2  -0.0329104  -0.0032680  -0.0040145  -0.0235931   0.0234328   0.0394776
    3  -0.0173490   0.0111643   0.0218798  -0.0057794   0.0111882  -0.0479089
          133         134         135         136         137         138
    1   0.0038048  -0.0138726   0.0182229  -0.0204957  -0.0299344   0.0060847
    2   0.0078093  -0.0193678   0.0191287   0.0217429  -0.0290395  -0.0006177
    3   0.0125547   0.0228319   0.0267702   0.0068351  -0.0316804   0.0033602
          139         140         141         142         143         144
    1   0.0191567   0.0197037   0.0014011   0.0542547   0.0014499  -0.0189107
    2  -0.0135074   0.0209102  -0.0238735   0.0946203   0.0079701   0.0241139
    3  -0.0221795   0.0142297   0.0264793  -0.0308897   0.0008999   0.0133512
          145         146         147         148         149         150
    1   0.0230789  -0.0108437  -0.0601851   0.0029449  -0.0117488  -0.0199325
    2   0.0066679   0.0072956  -0.0048734  -0.0016079   0.0211757  -0.0167775
    3   0.0217764  -0.0340265  -0.0092199   0.0076446   0.0235574   0.0180555
          151         152         153         154         155         156
    1   0.0315397   0.0750682   0.0113028   0.0125017   0.0189873   0.0190169
    2  -0.0127489  -0.0453675  -0.0041095   0.0109219  -0.0206350   0.0178533
    3  -0.0030396  -0.0628965  -0.0014483   0.0299756  -0.0280239  -0.0264263
          157         158         159         160         161         162
    1  -0.0252934   0.0013879   0.0037844  -0.0302764   0.0153452  -0.0113365
    2  -0.0103098   0.0051097   0.0322824   0.0063530  -0.0001991  -0.0579857
    3  -0.0477379   0.0048473  -0.0166499  -0.0002760   0.0281905   0.0922814
          163         164         165         166         167         168
    1   0.0032949   0.0271581  -0.0216566   0.0047574   0.0277749   0.0029766
    2   0.0023513  -0.0120102  -0.0057641   0.0324777   0.0109093  -0.0078289
    3  -0.0095448  -0.0063603  -0.0241259   0.0002568   0.0478008  -0.0056224
          169         170         171         172         173         174
    1  -0.0088793  -0.0070171   0.0325162  -0.1058912  -0.0104825  -0.0037510
    2  -0.0185241  -0.0030075  -0.0182057   0.0214454  -0.0050595  -0.0306049
    3   0.0232068  -0.0338448  -0.0004102  -0.0162718   0.0014038  -0.0026554
          175         176         177         178         179         180
    1   0.0062232  -0.0175631   0.0406234   0.0003195   0.0304900  -0.0219420
    2   0.0105673   0.0191063  -0.0366571   0.0045938   0.0199287   0.0257782
    3   0.0318193  -0.0189080   0.0201401  -0.0037083  -0.0073534  -0.0021069
          181         182         183         184         185         186
    1   0.0141832  -0.0331526   0.0008621  -0.0081696  -0.0082158   0.0265368
    2   0.0116630   0.0170461  -0.0029170  -0.0294013   0.0010203   0.0117742
    3   0.0275779  -0.1026094  -0.0041590   0.0069250  -0.0376596  -0.0061238
          187         188         189         190         191         192
    1  -0.0545309   0.0022670  -0.0003838   0.0358799  -0.0299742   0.0827403
    2  -0.0095227   0.0085578   0.0271845   0.0048645   0.0012586  -0.0199721
    3   0.0137320  -0.0029491   0.0193958  -0.0025867  -0.0155965   0.0678150
          193         194         195         196         197         198
    1   0.0110600  -0.0007113   0.0220110   0.0157294  -0.0305654   0.0045675
    2   0.0016463   0.0030355   0.0239670  -0.0178936   0.0394464   0.0023043
    3  -0.0018736  -0.0340530   0.0043049   0.0217692  -0.0230308   0.0077955
          199         200         201         202         203         204
    1  -0.0282835   0.0290743   0.0248771  -0.0222286   0.0013883   0.0101005
    2  -0.0153877  -0.0034867   0.0303470  -0.1069287  -0.0048429   0.0118802
    3   0.0128519   0.0160549   0.0082218  -0.0067096  -0.0068408  -0.0273668
          205         206         207         208         209         210
    1   0.0272271  -0.0118352   0.0303304  -0.0013617   0.0291926  -0.0101340
    2  -0.0186291  -0.0270728   0.0448318  -0.0055047   0.0018062   0.0092113
    3   0.0097217  -0.0103485   0.0148751   0.0044509   0.0269151   0.0310343
          211         212         213         214         215         216
    1  -0.0231651  -0.1046474  -0.0047536  -0.0063026  -0.0268718  -0.0068224
    2  -0.0228981   0.0050685   0.0006475  -0.0205183   0.0141569  -0.0131342
    3  -0.0185738  -0.0322121   0.0064569   0.0255223  -0.0023346  -0.0257471
          217         218         219         220         221         222
    1  -0.0015007   0.0062132   0.0279401   0.0060938  -0.0113976   0.0271762
    2   0.0467025  -0.0021852   0.0029349  -0.0291369  -0.0074566   0.0173077
    3  -0.0432713   0.0019348   0.0167981   0.0173299  -0.0322432   0.1138434
          223         224         225         226         227         228
    1   0.0002438  -0.0039664   0.0288440  -0.0203334   0.0481550  -0.0036967
    2   0.0008525  -0.0145116   0.0266131   0.0239589  -0.0257538   0.0049132
    3   0.0064141   0.0271564   0.0123747   0.0062360  -0.0063360  -0.0003596
          229         230         231         232         233         234
    1   0.0289597  -0.0051899  -0.0369673  -0.0954986   0.0026314   0.0142826
    2   0.0210145  -0.0060603   0.0054261  -0.0523674  -0.0096968   0.0176877
    3  -0.0122627  -0.0286193   0.0010769   0.0186566   0.0062248   0.0216448
          235         236         237         238         239         240
    1  -0.0275113   0.0082768  -0.0319113  -0.0089715  -0.0077553   0.0141233
    2  -0.0027944  -0.0317290   0.0506540  -0.0057978   0.0209064  -0.0273822
    3   0.0141343  -0.0053240   0.0171277  -0.0043956  -0.0197208  -0.0067183
          241         242         243         244         245         246
    1  -0.0383498   0.0977022   0.0004348   0.0251592  -0.0172740  -0.0092837
    2  -0.0009608   0.0063363  -0.0035143  -0.0036952  -0.0184781   0.0331522
    3   0.0109249  -0.0484932  -0.0024394   0.0157872  -0.0308891  -0.0066945
          247         248         249         250         251         252
    1  -0.0561615  -0.0002870  -0.0177470  -0.0141439   0.0283521   0.0557089
    2   0.0014266   0.0080484   0.0306017  -0.0054554   0.0012109  -0.0896644
    3  -0.0075060   0.0074098  -0.0054947   0.0313901  -0.0024456   0.0324336
          253         254         255         256         257         258
    1   0.0034523  -0.0096073  -0.0267947   0.0360116   0.0180042   0.0058505
    2   0.0047221  -0.0132235   0.0214547   0.0090181   0.0258023  -0.0048246
    3  -0.0075636  -0.0288633  -0.0069366  -0.0043398   0.0459543  -0.0054180
          259         260         261         262         263         264
    1  -0.0039758  -0.0076606   0.0338191  -0.1002798  -0.0035338  -0.0255548
    2  -0.0269880  -0.0173343   0.0127208  -0.0498312   0.0055780  -0.0097055
    3   0.0158568  -0.0276855  -0.0071229  -0.0072528   0.0013883  -0.0183821
          265         266         267         268         269         270
    1  -0.0207235   0.0048809   0.0249821  -0.0027442   0.0141421  -0.0125754
    2   0.0055574   0.0231368  -0.0232143  -0.0015139  -0.0256420   0.0081587
    3   0.0278863  -0.0255099  -0.0473547   0.0061426   0.0120459   0.0313455
          271         272
    1  -0.0235020   0.0553000
    2  -0.0222299   0.0615515
    3  -0.0096534   0.0725093
  --- DONE ESP SUMMARY ---
Archival summary:
1\1\n0093.mhg0\SP\ProcedureUnspecified\6-31+G*\252550h22\ymao\FriMar1206:50:182021FriMar1206:50:182021\0\\#,ProcedureUnspecified,6-31+G*,\\0,1\S\O,1,1.49596\C,1,1.80698,2,104.125\H,3,1.0927,1,106.135,2,-59.7408,0\H,3,1.09277,1,113.571,2,48.2662,0\H,3,1.09336,1,105.455,2,176.205,0\C,1,1.80731,2,107.811,3,-97.5313,0\H,7,1.09248,1,107.92,2,131.545,0\H,7,1.09328,1,105.161,2,19.733,0\H,7,1.0935,1,110.932,2,-99.6128,0\H,4,2.10902,3,160.563,1,-88.739,0\C,11,1.09364,4,133.967,3,-110.863,0\H,12,1.09203,11,115.459,4,-161.229,0\H,12,1.09253,11,110.65,4,-36.7081,0\S,12,1.80714,11,103.377,4,82.339,0\O,15,1.49763,12,108.419,11,-32.4753,0\C,15,1.80689,12,94.093,11,70.7553,0\H,17,1.09315,15,108.889,12,57.7937,0\H,17,1.09319,15,103.357,12,-172.789,0\H,17,1.09333,15,116.222,12,-55.3536,0\H,5,2.21264,3,118.963,1,-135.152,0\C,21,1.09343,5,112.817,3,-81.3713,0\H,22,1.09268,21,114.792,5,-27.4756,0\H,22,1.09309,21,113.048,5,106.577,0\S,22,1.80646,21,97.1737,5,-139.417,0\O,25,1.4968,22,106.724,21,-34.8594,0\C,25,1.80737,22,96.5381,21,71.167,0\H,27,1.09221,25,108.683,22,75.2525,0\H,27,1.09285,25,116.671,22,-165.757,0\H,27,1.093,25,105.067,22,-40.9,0\H,23,2.21264,22,144.921,21,34.4181,0\C,31,1.09303,23,126.891,22,134.261,0\H,32,1.09247,31,117.927,23,-178.057,0\H,32,1.09274,31,105.742,23,-59.2756,0\S,32,1.80652,31,106.491,23,61.6074,0\O,35,1.49684,32,97.5793,31,-26.2379,0\C,35,1.80789,32,91.9767,31,-135.844,0\H,37,1.09277,35,106.097,32,171.719,0\H,37,1.09286,35,113.385,32,-69.2093,0\H,37,1.09303,35,107.369,32,49.7623,0\H,33,1.93924,32,134.191,31,-134.896,0\C,41,1.09322,33,160.688,32,-62.4311,0\H,42,1.09227,41,109.371,33,45.5677,0\H,42,1.09353,41,104.188,33,167.146,0\S,42,1.80731,41,107.502,33,-75.0471,0\O,45,1.49742,42,105.731,41,-151.973,0\C,45,1.8074,42,94.2209,41,-44.5737,0\H,47,1.09287,45,107.4,42,60.7468,0\H,47,1.09301,45,109.264,42,-177.091,0\H,47,1.09315,45,108.872,42,-61.9466,0\Gh,50,2.19725,47,99.8918,45,109.931,0\Gh,51,1.09656,50,171.12,47,-159.968,0\Gh,52,1.09709,51,108.05,50,91.8792,0\Gh,52,1.53763,51,107.963,50,-150.571,0\Gh,54,1.09693,52,107.033,51,-65.4939,0\Gh,54,1.09706,52,107.037,51,43.7659,0\Gh,54,1.53746,52,114.236,51,172.23,0\Gh,57,1.09615,54,105.054,52,-163,0\Gh,57,1.09674,54,105.96,52,83.7312,0\Gh,57,1.53777,54,118.659,52,-42.1347,0\Gh,60,1.09762,57,102.766,54,-69.8455,0\Gh,60,1.46119,57,115.175,54,166.673,0\Gh,62,1.01293,60,118.389,57,-90.7092,0\Gh,62,1.37897,60,126.464,57,95.7138,0\Gh,64,1.10473,62,112.844,60,178.535,0\Gh,64,1.21873,62,122.523,60,4.0185,0\Gh,60,1.53747,57,110.479,54,41.3701,0\Gh,67,1.09649,60,112.175,57,78.8678,0\Gh,67,1.09749,60,105.357,57,-166.753,0\Gh,67,1.53676,60,114.39,57,-46.971,0\Gh,70,1.09674,67,112.115,60,171.02,0\Gh,70,1.09711,67,116.351,60,-68.648,0\O,63,1.79604,62,162.507,60,-152.686,0\S,73,1.49636,63,112.434,62,41.9311,0\C,74,1.80628,73,114.202,63,28.0884,0\H,75,1.09296,74,108.064,73,-157.317,0\H,75,1.09313,74,105.916,73,81.2281,0\H,75,1.09318,74,104.197,73,-36.4646,0\C,74,1.80706,73,110.271,63,-79.9537,0\H,79,1.09263,74,110.787,73,73.6473,0\H,79,1.09305,74,109.115,73,-61.1454,0\H,79,1.09319,74,102.926,73,-165.02,0\H,81,1.95319,79,137.493,74,37.7788,0\C,83,1.0931,81,114.352,79,72.5617,0\H,84,1.0926,83,112.375,81,50.4093,0\H,84,1.09291,83,110.973,81,-65.5736,0\S,84,1.80726,83,111.505,81,176.436,0\O,87,1.49667,84,110.529,83,-73.2852,0\C,87,1.80694,84,91.6342,83,173.717,0\H,89,1.09281,87,115.262,84,176.634,0\H,89,1.09329,87,108.582,84,-56.8553,0\H,89,1.09334,87,104.303,84,54.8823,0\H,34,2.26349,32,145.7,31,-78.9311,0\C,93,1.09303,34,132.671,32,-76.8504,0\H,94,1.09253,93,119.227,34,-143.411,0\H,94,1.09395,93,109.195,34,-7.4115,0\S,94,1.80683,93,99.6101,34,96.5739,0\O,97,1.49732,94,98.4375,93,-57.709,0\C,97,1.80684,94,95.8493,93,-159.385,0\H,99,1.09256,97,107.174,94,72.0612,0\H,99,1.09329,97,105.958,94,-172.484,0\H,99,1.09333,97,119.559,94,-53.5461,0\H,101,2.30597,99,128.216,97,-98.4746,0\C,103,1.09308,101,103.877,99,90.6183,0\H,104,1.09307,103,107.017,101,-75.6869,0\H,104,1.09316,103,105.693,101,176.092,0\S,104,1.80648,103,118.247,101,53.7826,0\O,107,1.49707,104,109.242,103,-41.1265,0\C,107,1.80688,104,100.866,103,68.087,0\H,109,1.09287,107,111.381,104,173.186,0\H,109,1.09313,107,111.356,104,-62.5595,0\H,109,1.09327,107,110.25,104,62.8145,0\H,50,2.31276,47,130.816,45,-80.3244,0\C,113,1.094,50,117.703,47,106.083,0\H,114,1.09311,113,113.218,50,-19.5084,0\H,114,1.09323,113,100.017,50,103.331,0\S,114,1.80701,113,108.738,50,-142.687,0\O,117,1.49735,114,99.9461,113,-43.8867,0\C,117,1.8069,114,97.786,113,63.4173,0\H,119,1.0927,117,104.994,114,-44.6197,0\H,119,1.09313,117,114.137,114,-165.157,0\H,119,1.09317,117,105.823,114,82.2887,0\H,120,2.21466,119,127.661,117,-48.4014,0\C,123,1.09282,120,125.778,119,-171.798,0\H,124,1.09302,123,114.155,120,-63.7951,0\H,124,1.09345,123,114.344,120,67.4971,0\S,124,1.80676,123,105.598,120,-175.889,0\O,127,1.4973,124,106.305,123,-173.612,0\C,127,1.8074,124,89.9074,123,-66.2812,0\H,129,1.09207,127,113.482,124,-50.3512,0\H,129,1.09279,127,108.017,124,-168.356,0\H,129,1.09298,127,105.793,124,75.5051,0\H,44,2.3288,42,113.042,41,-96.0442,0\C,133,1.09345,44,125.986,42,-158.944,0\H,134,1.09221,133,112.907,44,122.278,0\H,134,1.09295,133,110.941,44,-112.673,0\S,134,1.80761,133,106.365,44,3.96709,0\O,137,1.49692,134,100.923,133,-60.1787,0\C,137,1.80691,134,99.3598,133,-169.504,0\H,139,1.09207,137,111.435,134,-69.7153,0\H,139,1.09305,137,113.58,134,174.692,0\H,139,1.09326,137,108.322,134,46.1156,0\H,136,2.30358,134,135.561,133,-33.7191,0\C,143,1.09377,136,120.566,134,-10.1174,0\H,144,1.09243,143,109.486,136,60.1143,0\H,144,1.09306,143,106.879,136,-56.6305,0\S,144,1.80685,143,112.133,136,-174.62,0\O,147,1.49691,144,103.01,143,-176.71,0\C,147,1.80695,144,93.6433,143,-67.0007,0\H,149,1.09251,147,110.972,144,-33.5479,0\H,149,1.09296,147,105.9,144,86.6317,0\H,149,1.09308,147,107.976,144,-156.039,0\H,142,2.33865,139,139.642,137,53.5684,0\C,153,1.09323,142,150.806,139,-138.403,0\H,154,1.09194,153,106.313,142,77.4256,0\H,154,1.0929,153,108.02,142,-162.781,0\S,154,1.80788,153,115.235,142,-47.6188,0\O,157,1.49654,154,107.879,153,74.1733,0\C,157,1.80646,154,93.4875,153,-28.3912,0\H,159,1.09253,157,106.341,154,168.443,0\H,159,1.09332,157,110.56,154,-78.0262,0\H,159,1.09365,157,112.874,154,45.8253,0\H,72,2.35292,70,115.968,67,-97.3021,0\C,163,1.09298,72,99.8189,70,112.143,0\H,164,1.09301,163,112.219,72,-44.4348,0\H,164,1.09305,163,108.633,72,-160.527,0\S,164,1.80698,163,108.424,72,76.0756,0\O,167,1.49727,164,108.755,163,-73.5881,0\C,167,1.8067,164,92.6132,163,-170.868,0\H,169,1.09276,167,106.827,164,71.1606,0\H,169,1.093,167,111.312,164,-174.176,0\H,169,1.0936,167,102.187,164,-55.7924,0\H,168,2.25713,167,173.51,164,-61.5614,0\C,173,1.09306,168,125.038,167,-88.0769,0\H,174,1.09267,173,111.752,168,-96.1156,0\H,174,1.09357,173,112.746,168,147.655,0\S,174,1.80713,173,112.965,168,22.4559,0\O,177,1.49757,174,102.151,173,174.425,0\C,177,1.80734,174,92.8886,173,72.9379,0\H,179,1.09213,177,102.661,174,67.4145,0\H,179,1.09279,177,111.753,174,-53.4183,0\H,179,1.09348,177,111.112,174,174.493,0\H,148,2.38363,147,112.016,144,-12.3727,0\C,183,1.0932,148,140.372,147,-99.1997,0\H,184,1.09282,183,117.263,148,7.00389,0\H,184,1.09349,183,101.784,148,-116.247,0\S,184,1.80649,183,106.763,148,124.553,0\O,187,1.49748,184,107.059,183,75.1463,0\C,187,1.80761,184,99.7209,183,178.653,0\H,189,1.09219,187,106.9,184,48.4866,0\H,189,1.09325,187,108.498,184,174.805,0\H,189,1.09334,187,107.176,184,-69.9658,0\O,166,2.40475,164,105.192,163,-75.6067,0\S,193,1.49729,166,170.711,164,-29.3389,0\C,194,1.80693,193,102.633,166,119.534,0\H,195,1.09265,194,110.973,193,-54.0215,0\H,195,1.09278,194,111.843,193,179.066,0\H,195,1.09296,194,98.5789,193,68.6107,0\C,194,1.80702,193,102.373,166,26.8218,0\H,199,1.09229,194,113.924,193,-71.3088,0\H,199,1.0933,194,111.5,193,49.8882,0\H,199,1.09363,194,110.639,193,170.098,0\H,176,2.47245,174,152.187,173,124.857,0\C,203,1.09202,176,132.013,174,43.7268,0\H,204,1.09308,203,106.005,176,119.73,0\H,204,1.09367,203,117.777,176,-113.019,0\S,204,1.80702,203,107.863,176,5.63457,0\O,207,1.49722,204,106.91,203,-103.358,0\C,207,1.80597,204,107.947,203,145.506,0\H,209,1.09298,207,110.888,204,168.406,0\H,209,1.09307,207,114.189,204,-64.9544,0\H,209,1.09365,207,104.966,204,53.8694,0\H,205,2.36161,204,108.873,203,9.65488,0\C,213,1.09337,205,159.143,204,57.1482,0\H,214,1.09336,213,115.022,205,-73.2011,0\H,214,1.09337,213,109.414,205,49.2187,0\S,214,1.80657,213,108.947,205,161.695,0\O,217,1.49703,214,105.362,213,-164.24,0\C,217,1.80696,214,92.4767,213,-63.655,0\H,219,1.09303,217,110.222,214,168.248,0\H,219,1.09315,217,107.455,214,-70.9673,0\H,219,1.09343,217,105.529,214,51.1657,0\O,83,2.54718,81,90.2654,79,-103.477,0\S,223,1.49735,83,111.624,81,-137.981,0\C,224,1.80632,223,104.121,83,174.341,0\H,225,1.09298,224,107.513,223,158.35,0\H,225,1.09309,224,106.551,223,50.1077,0\H,225,1.09375,224,107.424,223,-75.0056,0\C,224,1.80674,223,102.923,83,-85.5325,0\H,229,1.09263,224,99.4924,223,169.886,0\H,229,1.09297,224,108.219,223,-65.2577,0\H,229,1.09308,224,106.765,223,57.1625,0\O,77,2.56311,75,123.919,74,139.988,0\S,233,1.4968,77,139.885,75,4.71412,0\C,234,1.80687,233,105.714,77,-178.816,0\H,235,1.09273,234,105.328,233,67.1729,0\H,235,1.09322,234,108.778,233,-168.33,0\H,235,1.0933,234,106.531,233,-41.5451,0\C,234,1.80754,233,103.716,77,80.357,0\H,239,1.09265,234,101.683,233,40.3399,0\H,239,1.09292,234,105.192,233,-76.1123,0\H,239,1.09335,234,108.835,233,158.963,0\H,218,2.56361,217,92.3633,214,166.567,0\C,243,1.09316,218,155.37,217,122.44,0\H,244,1.09278,243,100.268,218,-152.014,0\H,244,1.09333,243,111.709,218,82.583,0\S,244,1.8074,243,105.253,218,-33.7285,0\O,247,1.49758,244,104.667,243,-68.7945,0\C,247,1.80667,244,92.4727,243,-167.365,0\H,249,1.09311,247,110.198,244,147.347,0\H,249,1.09317,247,110.188,244,27.4973,0\H,249,1.09324,247,112.008,244,-87.9485,0\H,248,2.38271,247,127.784,244,165.6,0\C,253,1.0929,248,147.175,247,175.541,0\H,254,1.0931,253,113.633,248,-86.1038,0\H,254,1.09334,253,106.37,248,147.605,0\S,254,1.80611,253,110.669,248,36.6347,0\O,257,1.49774,254,105.203,253,-178.542,0\C,257,1.80703,254,96.5121,253,-69.0906,0\H,259,1.09246,257,110.517,254,-176.877,0\H,259,1.09304,257,105.193,254,62.908,0\H,259,1.09383,257,107.674,254,-54.8831,0\H,260,2.47421,259,114.128,257,-57.4034,0\C,263,1.09259,260,116.812,259,-117.135,0\H,264,1.09319,263,94.3499,260,82.0962,0\H,264,1.0938,263,117.013,260,-164.729,0\S,264,1.80719,263,105.845,260,-29.3141,0\O,267,1.49706,264,101.251,263,-56.7666,0\C,267,1.80736,264,89.2719,263,-158.332,0\H,269,1.09275,267,118.512,264,54.5796,0\H,269,1.09302,267,105.092,264,177.989,0\H,269,1.09327,267,113.352,264,-68.4692,0\\\@

 Total job time:  63.12s(wall), 217.98s(cpu) 
 Fri Mar 12 06:50:18 2021

        *************************************************************
        *                                                           *
        *  Thank you very much for using Q-Chem.  Have a nice day.  *
        *                                                           *
        *************************************************************


