                  Welcome to Q-Chem
     A Quantum Leap Into The Future Of Chemistry


 Q-Chem 5.2 (devel), Q-Chem, Inc., Pleasanton, CA (2019)

 Yihan Shao,  Zhengting Gan,  E. Epifanovsky,  A. T. B. Gilbert,  M. Wormit,  
 J. Kussmann,  A. W. Lange,  A. Behn,  Jia Deng,  Xintian Feng,  D. Ghosh,  
 M. Goldey,  P. R. Horn,  L. D. Jacobson,  I. Kaliman,  T. Kus,  A. Landau,  
 Jie Liu,  E. I. Proynov,  R. M. Richard,  R. P. Steele,  E. J. Sundstrom,  
 H. L. Woodcock III,  P. M. Zimmerman,  D. Zuev,  B. Alam,  B. Albrecht,  
 E. Alguire,  S. A. Baeppler,  D. Barton,  Z. Benda,  Y. A. Bernard,  
 E. J. Berquist,  K. B. Bravaya,  H. Burton,  K. Carter-Fenk,  D. Casanova,  
 Chun-Min Chang,  Yunqing Chen,  A. Chien,  K. D. Closser,  M. P. Coons,  
 S. Coriani,  S. Dasgupta,  A. L. Dempwolff,  M. Diedenhofen,  Hainam Do,  
 R. G. Edgar,  Po-Tung Fang,  S. Faraji,  S. Fatehi,  Qingguo Feng,  
 J. Fosso-Tande,  J. Gayvert,  Qinghui Ge,  A. Ghysels,  G. Gidofalvi,  
 J. Gomes,  J. Gonthier,  A. Gunina,  D. Hait,  M. W. D. Hanson-Heine,  
 P. H. P. Harbach,  A. W. Hauser,  M. F. Herbst,  J. E. Herr,  
 E. G. Hohenstein,  Z. C. Holden,  Kerwin Hui,  B. C. Huynh,  T.-C. Jagau,  
 Hyunjun Ji,  B. Kaduk,  K. Khistyaev,  Jaehoon Kim,  P. Klunzinger,  K. Koh,  
 D. Kosenkov,  L. Koulias,  T. Kowalczyk,  C. M. Krauter,  A. Kunitsa,  
 Ka Un Lao,  A. Laurent,  K. V. Lawler,  Joonho Lee,  D. Lefrancois,  
 S. Lehtola,  D. S. Levine,  Yi-Pei Li,  You-Sheng Lin,  Fenglai Liu,  
 Kuan-Yu Liu,  E. Livshits,  M. Loipersberger,  A. Luenser,  P. Manohar,  
 E. Mansoor,  S. F. Manzer,  Shan-Ping Mao,  Yuezhi Mao,  N. Mardirossian,  
 A. V. Marenich,  T. Markovich,  L. A. Martinez-Martinez,  S. A. Maurer,  
 N. J. Mayhall,  S. C. McKenzie,  J.-M. Mewes,  P. Morgante,  A. F. Morrison,  
 J. W. Mullinax,  K. Nanda,  T. S. Nguyen-Beck,  R. Olivares-Amaya,  
 J. A. Parkhill,  S. K. Paul,  F. Pavosevic,  Zheng Pei,  T. M. Perrine,  
 F. Plasser,  P. Pokhilko,  S. Prager,  A. Prociuk,  E. Ramos,  B. Rana,  
 D. R. Rehn,  F. Rob,  M. Scheurer,  M. Schneider,  N. Sergueev,  
 S. M. Sharada,  S. Sharma,  D. W. Small,  T. Stauch,  C. J. Stein,  
 T. Stein,  Yu-Chuan Su,  S. P. Veccham,  Zhen Tao,  A. J. W. Thom,  
 A. Tkatchenko,  T. Tsuchimochi,  N. M. Tubman,  L. Vogt,  M. L. Vidal,  
 O. Vydrov,  M. A. Watson,  J. Wenzel,  M. de Wergifosse,  T. A. Wesolowski,  
 A. White,  J. Witte,  A. Yamada,  Jun Yang,  K. Yao,  S. Yeganeh,  
 S. R. Yost,  Zhi-Qiang You,  A. Zech,  Igor Ying Zhang,  Xing Zhang,  
 Yan Zhao,  Ying Zhu,  B. R. Brooks,  G. K. L. Chan,  C. J. Cramer,  
 M. S. Gordon,  W. J. Hehre,  A. Klamt,  M. W. Schmidt,  C. D. Sherrill,  
 D. G. Truhlar,  A. Aspuru-Guzik,  R. Baer,  A. T. Bell,  N. A. Besley,  
 Jeng-Da Chai,  A. E. DePrince, III,  R. A. DiStasio Jr.,  A. Dreuw,  
 B. D. Dunietz,  T. R. Furlani,  Chao-Ping Hsu,  Yousung Jung,  Jing Kong,  
 D. S. Lambrecht,  WanZhen Liang,  C. Ochsenfeld,  V. A. Rassolov,  
 L. V. Slipchenko,  J. E. Subotnik,  T. Van Voorhis,  J. M. Herbert,  
 A. I. Krylov,  P. M. W. Gill,  M. Head-Gordon

 Contributors to earlier versions of Q-Chem not listed above: 
 R. D. Adamson,  B. Austin,  J. Baker,  G. J. O. Beran,  K. Brandhorst,  
 S. T. Brown,  E. F. C. Byrd,  A. K. Chakraborty,  C.-L. Cheng,  
 Siu Hung Chien,  D. M. Chipman,  D. L. Crittenden,  H. Dachsel,  
 R. J. Doerksen,  A. D. Dutoi,  L. Fusti-Molnar,  W. A. Goddard III,  
 A. Golubeva-Zadorozhnaya,  S. R. Gwaltney,  G. Hawkins,  A. Heyden,  
 S. Hirata,  G. Kedziora,  F. J. Keil,  C. Kelley,  Jihan Kim,  R. A. King,  
 R. Z. Khaliullin,  P. P. Korambath,  W. Kurlancheek,  A. M. Lee,  M. S. Lee,  
 S. V. Levchenko,  Ching Yeh Lin,  D. Liotard,  R. C. Lochan,  I. Lotan,  
 P. E. Maslen,  N. Nair,  D. P. O'Neill,  D. Neuhauser,  E. Neuscamman,  
 C. M. Oana,  R. Olson,  B. Peters,  R. Peverati,  P. A. Pieniazek,  
 Y. M. Rhee,  J. Ritchie,  M. A. Rohrdanz,  E. Rosta,  N. J. Russ,  
 H. F. Schaefer III,  N. E. Schultz,  N. Shenvi,  A. C. Simmonett,  A. Sodt,  
 D. Stuck,  K. S. Thanthiriwatte,  V. Vanovschi,  Tao Wang,  A. Warshel,  
 C. F. Williams,  Q. Wu,  X. Xu,  W. Zhang

 Please cite Q-Chem as follows:
 Y. Shao et al., Mol. Phys. 113, 184-215 (2015)
 DOI: 10.1080/00268976.2014.952696

 Q-Chem 5.2.2 for Intel X86 EM64T Linux

 Parts of Q-Chem use Armadillo 9.800.1 (Horizon Scraper).
 http://arma.sourceforge.net/

 Q-Chem begins on Thu Mar 11 13:37:36 2021  

Host: n0073.mhg0
0

     Scratch files written to /local/scratch/users/ymao/r7.00_frame_0031_almo_B3LYP_dp.in20210311133732//

Checking the input file for inconsistencies... 	...done.

--------------------------------------------------------------
User input:
--------------------------------------------------------------
$molecule
0 1
--
0 1
C    20.71500   15.86700   28.63500  
C    21.87100   15.44300   27.71500  
C    22.31100   16.57900   26.77600  
C    22.77800   17.81100   27.56800  
C    21.64100   18.24800   28.50700  
C    21.04900   17.15200   29.40900  
H    23.20500   16.23500   26.24200  
H    22.73000   15.10300   28.30600  
H    19.83100   16.07100   28.01800  
H    20.48700   15.06900   29.35200  
H    23.61500   17.50400   28.20700  
H    22.98400   18.72400   26.99600  
H    22.01200   19.03100   29.17900  
H    20.87700   18.59500   27.80100  
H    21.79800   16.98900   30.19400  
H    20.16200   17.51500   29.94300  
H    21.54200   16.77000   26.01800  
N    21.41300   14.28100   26.95600  
H    21.01300   14.52500   26.05700  
C    21.42200   12.96700   27.37300  
H    21.10700   12.20600   26.63700  
O    21.92800   12.60800   28.42200  
--
0 1
C    22.98700   22.18700   24.70200  
H    23.60100   23.07000   24.89800  
H    23.67200   21.39700   24.38600  
H    22.33500   22.36400   23.84300  
S    22.00100   21.76900   26.15800  
C    21.13100   20.47700   25.24200  
H    21.78000   19.79300   24.69000  
H    20.54500   19.94100   25.99200  
H    20.59600   21.03300   24.46700  
O    20.91500   22.79300   26.27100  
C    22.07600   24.02300   29.58100  
H    21.21400   24.37400   29.00800  
H    22.43600   24.84000   30.21100  
H    22.87200   23.64600   28.93300  
S    21.58200   22.67100   30.67300  
C    20.10400   22.26900   29.71300  
H    19.33900   23.01800   29.93200  
H    20.37600   22.28600   28.65500  
H    19.78500   21.31900   30.15000  
O    21.02300   23.27400   31.92300  
C    19.53500   19.68300   20.39500  
H    19.67900   20.51200   19.69700  
H    20.24400   18.86700   20.23400  
H    18.51200   19.41300   20.66800  
S    20.22700   20.36800   21.91800  
C    19.20300   21.81700   22.26300  
H    19.13900   22.37400   21.32500  
H    18.27300   21.41200   22.67100  
H    19.70100   22.48400   22.97200  
O    21.53100   21.03800   21.61400  
C    25.41400   23.73500   31.75900  
H    26.11700   22.90900   31.89400  
H    24.91100   23.61200   30.79600  
H    25.81400   24.75100   31.81700  
S    24.09500   23.36500   32.93800  
C    25.03900   23.36400   34.47900  
H    25.43200   22.34400   34.46900  
H    25.72200   24.21600   34.53000  
H    24.37200   23.47700   35.33700  
O    23.93000   21.89900   32.68600  
C    24.83700   9.58800    32.30300  
H    24.52800   9.63400    33.35000  
H    25.34100   8.64300    32.08800  
H    25.54400   10.38500   32.05700  
S    23.38400   9.76800    31.24400  
C    22.55400   11.02900   32.23900  
H    23.23800   11.77400   32.65400  
H    21.88700   11.50300   31.51500  
H    21.86200   10.61800   32.97800  
O    22.38900   8.67500    31.48000  
C    15.64500   17.18600   24.11800  
H    14.72600   17.18500   24.71000  
H    15.54800   16.55800   23.22900  
H    16.37600   16.78200   24.82300  
S    15.93400   18.90800   23.65200  
C    14.85800   18.82200   22.20400  
H    15.22500   17.98100   21.61000  
H    13.86100   18.65000   22.61900  
H    14.92100   19.67100   21.51700  
O    17.26900   18.89600   22.97400  
C    21.57800   9.16800    27.99100  
H    20.92700   9.96300    27.61800  
H    21.46400   8.97600    29.06100  
H    22.65000   9.22900    27.78600  
S    20.98600   7.69800    27.12200  
C    19.55300   7.50400    28.20500  
H    19.02200   8.45400    28.10800  
H    18.92400   6.69800    27.81700  
H    19.85000   7.48800    29.25700  
O    21.80700   6.49700    27.47700  
C    28.84700   20.79800   30.43400  
H    29.75500   20.97700   31.01500  
H    29.00600   21.02900   29.37800  
H    28.01000   21.40400   30.79200  
S    28.53900   19.01900   30.51000  
C    30.22800   18.49700   30.13700  
H    30.47500   17.43400   30.08200  
H    30.51600   19.05700   29.24300  
H    30.78600   18.84200   31.01100  
O    27.63600   18.71700   29.35500  
C    13.93200   11.82800   30.48700  
H    14.07300   12.22700   31.49500  
H    12.92700   11.47100   30.24900  
H    14.55200   10.94100   30.33300  
S    14.61100   12.91800   29.21600  
C    13.61600   14.40600   29.46100  
H    13.96300   14.95000   30.34400  
H    13.72300   14.94400   28.51600  
H    12.54700   14.21100   29.57500  
O    14.08900   12.27000   27.97100  
C    21.66000   14.77800   32.47600  
H    22.71000   14.89200   32.75900  
H    21.51900   14.17000   31.57900  
H    21.38800   15.81200   32.24700  
S    20.69400   14.02800   33.80600  
C    21.21200   15.39700   34.86600  
H    20.98400   16.39300   34.47600  
H    20.49500   15.24600   35.67700  
H    22.23600   15.33600   35.24300  
O    21.58500   12.94600   34.33100  
C    21.14600   14.25300   18.19200  
H    21.71800   13.37300   17.88800  
H    20.48700   14.06800   19.04500  
H    20.64600   14.80100   17.38900  
S    22.32300   15.32600   19.04500  
C    23.03200   13.97900   20.01900  
H    23.50100   13.29100   19.31100  
H    23.69400   14.44600   20.75200  
H    22.23000   13.48100   20.57000  
O    21.50900   16.13500   20.00700  
C    16.69400   23.52600   27.38000  
H    17.72400   23.37400   27.71100  
H    16.53900   24.60000   27.24500  
H    15.87900   23.19200   28.02600  
S    16.44500   22.67600   25.80500  
C    17.74200   23.51900   24.87100  
H    17.66200   23.15700   23.84300  
H    17.48200   24.56900   24.71200  
H    18.74400   23.35400   25.27600  
O    15.22600   23.34000   25.24400  
C    17.09000   20.25900   33.64300  
H    17.28800   20.51400   34.68700  
H    16.41000   19.40400   33.67800  
H    17.94600   19.86500   33.08900  
S    16.28100   21.58900   32.72600  
C    17.29600   22.84300   33.54100  
H    17.27800   22.53700   34.59000  
H    18.33500   22.90300   33.20500  
H    16.83600   23.81600   33.35300  
O    15.02500   21.87000   33.49000  
C    25.09700   19.26300   31.53200  
H    24.20500   19.67000   31.05100  
H    25.74300   20.05000   31.93000  
H    25.61500   18.61900   30.81600  
S    24.57000   18.11700   32.82600  
C    26.16800   17.47000   33.36900  
H    25.93600   16.63200   34.03100  
H    26.64600   17.03300   32.48800  
H    26.79200   18.20900   33.87900  
O    23.87300   17.09300   31.98500  
C    17.48300   16.03200   31.93500  
H    18.46400   15.55400   31.99600  
H    17.24600   16.26700   30.89400  
H    17.48200   16.93500   32.55100  
S    16.22600   14.89700   32.56600  
C    17.07300   14.35800   34.06800  
H    16.42900   13.60200   34.52500  
H    17.98500   13.89900   33.68000  
H    17.28800   15.23300   34.68700  
O    16.22200   13.70400   31.66200  
C    27.89900   17.25500   26.27700  
H    26.92400   17.19700   25.78600  
H    28.03800   16.25400   26.69300  
H    27.84500   17.97100   27.10100  
S    29.22300   17.72200   25.13900  
C    30.34700   18.42100   26.36800  
H    30.33900   17.67400   27.16500  
H    31.30500   18.59800   25.87100  
H    29.92200   19.35000   26.75600  
O    28.64900   18.86500   24.36000  
C    25.64600   17.82000   22.85000  
H    26.20100   18.13800   21.96400  
H    25.63000   18.63600   23.57700  
H    26.08800   16.88600   23.20700  
S    23.90500   17.43200   22.55700  
C    23.64300   18.84600   21.46300  
H    22.58400   19.02500   21.26000  
H    24.08800   19.75800   21.86800  
H    24.20900   18.71600   20.53700  
O    23.19300   17.76200   23.83200  
C    16.14300   10.36600   25.34600  
H    15.98900   10.94800   24.43400  
H    16.37600   9.32200    25.12000  
H    15.31300   10.43800   26.05500  
S    17.68400   10.98200   26.06100  
C    17.29000   12.72400   25.79100  
H    16.53100   12.97900   26.53500  
H    18.21800   13.30100   25.75900  
H    16.87500   12.86600   24.79000  
O    18.67000   10.83600   24.94400  
C    21.75400   9.48500    23.97800  
H    22.62500   8.83900    23.83900  
H    21.88500   9.98700    24.94000  
H    20.82600   8.93300    23.80800  
S    21.81800   10.84600   22.79100  
C    22.33800   9.93600    21.31900  
H    23.14700   9.21000    21.43700  
H    21.46400   9.43700    20.89200  
H    22.76000   10.70700   20.67000  
O    23.08200   11.52800   23.21300  
C    18.50300   12.51300   29.46100  
H    17.75800   12.90100   28.76100  
H    18.58100   13.31600   30.19800  
H    19.42300   12.37100   28.88900  
S    17.82700   11.00000   30.18300  
C    19.32600   10.51100   31.06500  
H    20.10300   10.60000   30.30200  
H    19.54300   11.12600   31.94200  
H    19.16600   9.46200    31.33000  
O    17.69400   10.01300   29.06600  
C    17.83200   19.00300   27.71200  
H    17.39300   19.28800   26.75300  
H    18.48500   19.82800   28.00700  
H    18.36300   18.08600   27.44500  
S    16.66300   18.62400   29.03700  
C    15.78000   20.19800   28.95400  
H    15.14300   20.31300   29.83400  
H    16.44300   21.06100   29.05500  
H    15.23700   20.30500   28.01100  
O    17.58900   18.64700   30.21400  
C    27.24200   20.61600   26.70700  
H    27.49200   20.67800   25.64500  
H    28.06500   20.45500   27.40700  
H    26.40100   19.92800   26.83000  
S    26.73200   22.32700   26.98300  
C    25.79100   22.04300   28.49900  
H    24.97000   21.35800   28.27100  
H    26.39500   21.59400   29.29200  
H    25.38000   22.95900   28.93200  
O    25.70100   22.70200   25.96400  
C    16.83900   14.39800   22.61600  
H    15.92800   14.12600   23.15600  
H    17.56200   13.58000   22.57000  
H    17.32000   15.29600   23.01200  
S    16.38000   14.75500   20.90500  
C    17.61500   16.03600   20.59100  
H    17.59100   16.87000   21.29700  
H    18.64200   15.66300   20.56900  
H    17.42400   16.46500   19.60400  
O    15.08000   15.49400   20.97700  
C    20.92500   20.91100   34.49800  
H    21.38100   21.46600   33.67400  
H    19.95300   21.28800   34.82700  
H    21.61800   20.98800   35.34000  
S    20.80500   19.16500   34.04700  
C    20.26300   19.46700   32.35000  
H    21.18600   19.47500   31.76500  
H    19.66400   18.59100   32.08600  
H    19.67100   20.37600   32.21600  
O    19.61700   18.59400   34.75800  
C    26.70700   15.68200   29.73600  
H    26.15900   16.38900   30.36300  
H    27.69800   15.56500   30.18100  
H    26.85100   16.16000   28.76300  
S    25.65600   14.23000   29.50100  
C    25.52100   13.89300   31.27100  
H    24.95600   12.97200   31.43600  
H    26.44400   13.86300   31.85700  
H    24.91700   14.70900   31.67600  
O    26.54800   13.10900   29.06900  
C    28.24600   9.32900    28.90200  
H    27.75100   8.37700    29.11000  
H    29.33600   9.25700    28.88800  
H    28.01500   10.03200   29.70600  
S    27.67100   10.11500   27.38000  
C    25.91500   9.76500    27.62200  
H    25.41700   10.46500   28.29800  
H    25.37600   9.93600    26.68700  
H    25.70700   8.75900    27.99500  
O    28.02900   9.07000    26.37000  
C    25.36900   12.87900   25.53300  
H    25.64500   13.09700   26.56800  
H    24.30300   12.69300   25.37500  
H    25.96800   12.00000   25.28300  
S    25.78700   14.28800   24.48200  
C    25.70600   13.55400   22.83200  
H    24.73100   13.28400   22.42000  
H    26.07000   14.39000   22.22900  
H    26.43800   12.74300   22.84700  
O    27.25800   14.29700   24.76100  
C    22.01000   14.62800   23.50600  
H    22.41500   15.49900   24.02700  
H    22.00200   13.76100   24.17200  
H    22.39800   14.39200   22.51200  
S    20.24200   14.96000   23.33500  
C    20.40800   16.73600   23.04300  
H    21.05300   16.96100   22.19000  
H    19.41600   17.16100   22.86900  
H    20.78700   17.28400   23.90900  
O    19.82000   14.86000   24.76800  
$end

$rem
JOBTYPE  SP
METHOD  B3LYP
BASIS  6-31+G(D)
SYMMETRY  FALSE
SYM_IGNORE  TRUE
MEM_TOTAL  16000
MEM_STATIC  8000
MAX_SUB_FILE_NUM  16000
BASIS_LIN_DEP_THRESH  6
THRESH  14
SCF_CONVERGENCE  8
GEN_SCFMAN  TRUE
SCF_GUESS  FRAGMO
FD_MAT_VEC_PROD  FALSE
XC_GRID  000075000302
NL_GRID  1
MAX_SCF_CYCLES  200
FRGM_METHOD  STOLL
SCFMI_MODE  1
$end

$development
almo_efield  1
$end

$rem_frgm
SCF_CONVERGENCE  4
$end

--------------------------------------------------------------
 ----------------------------------------------------------------
             Standard Nuclear Orientation (Angstroms)
    I     Atom           X                Y                Z
 ----------------------------------------------------------------
    1      C      20.7150000000    15.8670000000    28.6350000000
    2      C      21.8710000000    15.4430000000    27.7150000000
    3      C      22.3110000000    16.5790000000    26.7760000000
    4      C      22.7780000000    17.8110000000    27.5680000000
    5      C      21.6410000000    18.2480000000    28.5070000000
    6      C      21.0490000000    17.1520000000    29.4090000000
    7      H      23.2050000000    16.2350000000    26.2420000000
    8      H      22.7300000000    15.1030000000    28.3060000000
    9      H      19.8310000000    16.0710000000    28.0180000000
   10      H      20.4870000000    15.0690000000    29.3520000000
   11      H      23.6150000000    17.5040000000    28.2070000000
   12      H      22.9840000000    18.7240000000    26.9960000000
   13      H      22.0120000000    19.0310000000    29.1790000000
   14      H      20.8770000000    18.5950000000    27.8010000000
   15      H      21.7980000000    16.9890000000    30.1940000000
   16      H      20.1620000000    17.5150000000    29.9430000000
   17      H      21.5420000000    16.7700000000    26.0180000000
   18      N      21.4130000000    14.2810000000    26.9560000000
   19      H      21.0130000000    14.5250000000    26.0570000000
   20      C      21.4220000000    12.9670000000    27.3730000000
   21      H      21.1070000000    12.2060000000    26.6370000000
   22      O      21.9280000000    12.6080000000    28.4220000000
   23      C      22.9870000000    22.1870000000    24.7020000000
   24      H      23.6010000000    23.0700000000    24.8980000000
   25      H      23.6720000000    21.3970000000    24.3860000000
   26      H      22.3350000000    22.3640000000    23.8430000000
   27      S      22.0010000000    21.7690000000    26.1580000000
   28      C      21.1310000000    20.4770000000    25.2420000000
   29      H      21.7800000000    19.7930000000    24.6900000000
   30      H      20.5450000000    19.9410000000    25.9920000000
   31      H      20.5960000000    21.0330000000    24.4670000000
   32      O      20.9150000000    22.7930000000    26.2710000000
   33      C      22.0760000000    24.0230000000    29.5810000000
   34      H      21.2140000000    24.3740000000    29.0080000000
   35      H      22.4360000000    24.8400000000    30.2110000000
   36      H      22.8720000000    23.6460000000    28.9330000000
   37      S      21.5820000000    22.6710000000    30.6730000000
   38      C      20.1040000000    22.2690000000    29.7130000000
   39      H      19.3390000000    23.0180000000    29.9320000000
   40      H      20.3760000000    22.2860000000    28.6550000000
   41      H      19.7850000000    21.3190000000    30.1500000000
   42      O      21.0230000000    23.2740000000    31.9230000000
   43      C      19.5350000000    19.6830000000    20.3950000000
   44      H      19.6790000000    20.5120000000    19.6970000000
   45      H      20.2440000000    18.8670000000    20.2340000000
   46      H      18.5120000000    19.4130000000    20.6680000000
   47      S      20.2270000000    20.3680000000    21.9180000000
   48      C      19.2030000000    21.8170000000    22.2630000000
   49      H      19.1390000000    22.3740000000    21.3250000000
   50      H      18.2730000000    21.4120000000    22.6710000000
   51      H      19.7010000000    22.4840000000    22.9720000000
   52      O      21.5310000000    21.0380000000    21.6140000000
   53      C      25.4140000000    23.7350000000    31.7590000000
   54      H      26.1170000000    22.9090000000    31.8940000000
   55      H      24.9110000000    23.6120000000    30.7960000000
   56      H      25.8140000000    24.7510000000    31.8170000000
   57      S      24.0950000000    23.3650000000    32.9380000000
   58      C      25.0390000000    23.3640000000    34.4790000000
   59      H      25.4320000000    22.3440000000    34.4690000000
   60      H      25.7220000000    24.2160000000    34.5300000000
   61      H      24.3720000000    23.4770000000    35.3370000000
   62      O      23.9300000000    21.8990000000    32.6860000000
   63      C      24.8370000000     9.5880000000    32.3030000000
   64      H      24.5280000000     9.6340000000    33.3500000000
   65      H      25.3410000000     8.6430000000    32.0880000000
   66      H      25.5440000000    10.3850000000    32.0570000000
   67      S      23.3840000000     9.7680000000    31.2440000000
   68      C      22.5540000000    11.0290000000    32.2390000000
   69      H      23.2380000000    11.7740000000    32.6540000000
   70      H      21.8870000000    11.5030000000    31.5150000000
   71      H      21.8620000000    10.6180000000    32.9780000000
   72      O      22.3890000000     8.6750000000    31.4800000000
   73      C      15.6450000000    17.1860000000    24.1180000000
   74      H      14.7260000000    17.1850000000    24.7100000000
   75      H      15.5480000000    16.5580000000    23.2290000000
   76      H      16.3760000000    16.7820000000    24.8230000000
   77      S      15.9340000000    18.9080000000    23.6520000000
   78      C      14.8580000000    18.8220000000    22.2040000000
   79      H      15.2250000000    17.9810000000    21.6100000000
   80      H      13.8610000000    18.6500000000    22.6190000000
   81      H      14.9210000000    19.6710000000    21.5170000000
   82      O      17.2690000000    18.8960000000    22.9740000000
   83      C      21.5780000000     9.1680000000    27.9910000000
   84      H      20.9270000000     9.9630000000    27.6180000000
   85      H      21.4640000000     8.9760000000    29.0610000000
   86      H      22.6500000000     9.2290000000    27.7860000000
   87      S      20.9860000000     7.6980000000    27.1220000000
   88      C      19.5530000000     7.5040000000    28.2050000000
   89      H      19.0220000000     8.4540000000    28.1080000000
   90      H      18.9240000000     6.6980000000    27.8170000000
   91      H      19.8500000000     7.4880000000    29.2570000000
   92      O      21.8070000000     6.4970000000    27.4770000000
   93      C      28.8470000000    20.7980000000    30.4340000000
   94      H      29.7550000000    20.9770000000    31.0150000000
   95      H      29.0060000000    21.0290000000    29.3780000000
   96      H      28.0100000000    21.4040000000    30.7920000000
   97      S      28.5390000000    19.0190000000    30.5100000000
   98      C      30.2280000000    18.4970000000    30.1370000000
   99      H      30.4750000000    17.4340000000    30.0820000000
  100      H      30.5160000000    19.0570000000    29.2430000000
  101      H      30.7860000000    18.8420000000    31.0110000000
  102      O      27.6360000000    18.7170000000    29.3550000000
  103      C      13.9320000000    11.8280000000    30.4870000000
  104      H      14.0730000000    12.2270000000    31.4950000000
  105      H      12.9270000000    11.4710000000    30.2490000000
  106      H      14.5520000000    10.9410000000    30.3330000000
  107      S      14.6110000000    12.9180000000    29.2160000000
  108      C      13.6160000000    14.4060000000    29.4610000000
  109      H      13.9630000000    14.9500000000    30.3440000000
  110      H      13.7230000000    14.9440000000    28.5160000000
  111      H      12.5470000000    14.2110000000    29.5750000000
  112      O      14.0890000000    12.2700000000    27.9710000000
  113      C      21.6600000000    14.7780000000    32.4760000000
  114      H      22.7100000000    14.8920000000    32.7590000000
  115      H      21.5190000000    14.1700000000    31.5790000000
  116      H      21.3880000000    15.8120000000    32.2470000000
  117      S      20.6940000000    14.0280000000    33.8060000000
  118      C      21.2120000000    15.3970000000    34.8660000000
  119      H      20.9840000000    16.3930000000    34.4760000000
  120      H      20.4950000000    15.2460000000    35.6770000000
  121      H      22.2360000000    15.3360000000    35.2430000000
  122      O      21.5850000000    12.9460000000    34.3310000000
  123      C      21.1460000000    14.2530000000    18.1920000000
  124      H      21.7180000000    13.3730000000    17.8880000000
  125      H      20.4870000000    14.0680000000    19.0450000000
  126      H      20.6460000000    14.8010000000    17.3890000000
  127      S      22.3230000000    15.3260000000    19.0450000000
  128      C      23.0320000000    13.9790000000    20.0190000000
  129      H      23.5010000000    13.2910000000    19.3110000000
  130      H      23.6940000000    14.4460000000    20.7520000000
  131      H      22.2300000000    13.4810000000    20.5700000000
  132      O      21.5090000000    16.1350000000    20.0070000000
  133      C      16.6940000000    23.5260000000    27.3800000000
  134      H      17.7240000000    23.3740000000    27.7110000000
  135      H      16.5390000000    24.6000000000    27.2450000000
  136      H      15.8790000000    23.1920000000    28.0260000000
  137      S      16.4450000000    22.6760000000    25.8050000000
  138      C      17.7420000000    23.5190000000    24.8710000000
  139      H      17.6620000000    23.1570000000    23.8430000000
  140      H      17.4820000000    24.5690000000    24.7120000000
  141      H      18.7440000000    23.3540000000    25.2760000000
  142      O      15.2260000000    23.3400000000    25.2440000000
  143      C      17.0900000000    20.2590000000    33.6430000000
  144      H      17.2880000000    20.5140000000    34.6870000000
  145      H      16.4100000000    19.4040000000    33.6780000000
  146      H      17.9460000000    19.8650000000    33.0890000000
  147      S      16.2810000000    21.5890000000    32.7260000000
  148      C      17.2960000000    22.8430000000    33.5410000000
  149      H      17.2780000000    22.5370000000    34.5900000000
  150      H      18.3350000000    22.9030000000    33.2050000000
  151      H      16.8360000000    23.8160000000    33.3530000000
  152      O      15.0250000000    21.8700000000    33.4900000000
  153      C      25.0970000000    19.2630000000    31.5320000000
  154      H      24.2050000000    19.6700000000    31.0510000000
  155      H      25.7430000000    20.0500000000    31.9300000000
  156      H      25.6150000000    18.6190000000    30.8160000000
  157      S      24.5700000000    18.1170000000    32.8260000000
  158      C      26.1680000000    17.4700000000    33.3690000000
  159      H      25.9360000000    16.6320000000    34.0310000000
  160      H      26.6460000000    17.0330000000    32.4880000000
  161      H      26.7920000000    18.2090000000    33.8790000000
  162      O      23.8730000000    17.0930000000    31.9850000000
  163      C      17.4830000000    16.0320000000    31.9350000000
  164      H      18.4640000000    15.5540000000    31.9960000000
  165      H      17.2460000000    16.2670000000    30.8940000000
  166      H      17.4820000000    16.9350000000    32.5510000000
  167      S      16.2260000000    14.8970000000    32.5660000000
  168      C      17.0730000000    14.3580000000    34.0680000000
  169      H      16.4290000000    13.6020000000    34.5250000000
  170      H      17.9850000000    13.8990000000    33.6800000000
  171      H      17.2880000000    15.2330000000    34.6870000000
  172      O      16.2220000000    13.7040000000    31.6620000000
  173      C      27.8990000000    17.2550000000    26.2770000000
  174      H      26.9240000000    17.1970000000    25.7860000000
  175      H      28.0380000000    16.2540000000    26.6930000000
  176      H      27.8450000000    17.9710000000    27.1010000000
  177      S      29.2230000000    17.7220000000    25.1390000000
  178      C      30.3470000000    18.4210000000    26.3680000000
  179      H      30.3390000000    17.6740000000    27.1650000000
  180      H      31.3050000000    18.5980000000    25.8710000000
  181      H      29.9220000000    19.3500000000    26.7560000000
  182      O      28.6490000000    18.8650000000    24.3600000000
  183      C      25.6460000000    17.8200000000    22.8500000000
  184      H      26.2010000000    18.1380000000    21.9640000000
  185      H      25.6300000000    18.6360000000    23.5770000000
  186      H      26.0880000000    16.8860000000    23.2070000000
  187      S      23.9050000000    17.4320000000    22.5570000000
  188      C      23.6430000000    18.8460000000    21.4630000000
  189      H      22.5840000000    19.0250000000    21.2600000000
  190      H      24.0880000000    19.7580000000    21.8680000000
  191      H      24.2090000000    18.7160000000    20.5370000000
  192      O      23.1930000000    17.7620000000    23.8320000000
  193      C      16.1430000000    10.3660000000    25.3460000000
  194      H      15.9890000000    10.9480000000    24.4340000000
  195      H      16.3760000000     9.3220000000    25.1200000000
  196      H      15.3130000000    10.4380000000    26.0550000000
  197      S      17.6840000000    10.9820000000    26.0610000000
  198      C      17.2900000000    12.7240000000    25.7910000000
  199      H      16.5310000000    12.9790000000    26.5350000000
  200      H      18.2180000000    13.3010000000    25.7590000000
  201      H      16.8750000000    12.8660000000    24.7900000000
  202      O      18.6700000000    10.8360000000    24.9440000000
  203      C      21.7540000000     9.4850000000    23.9780000000
  204      H      22.6250000000     8.8390000000    23.8390000000
  205      H      21.8850000000     9.9870000000    24.9400000000
  206      H      20.8260000000     8.9330000000    23.8080000000
  207      S      21.8180000000    10.8460000000    22.7910000000
  208      C      22.3380000000     9.9360000000    21.3190000000
  209      H      23.1470000000     9.2100000000    21.4370000000
  210      H      21.4640000000     9.4370000000    20.8920000000
  211      H      22.7600000000    10.7070000000    20.6700000000
  212      O      23.0820000000    11.5280000000    23.2130000000
  213      C      18.5030000000    12.5130000000    29.4610000000
  214      H      17.7580000000    12.9010000000    28.7610000000
  215      H      18.5810000000    13.3160000000    30.1980000000
  216      H      19.4230000000    12.3710000000    28.8890000000
  217      S      17.8270000000    11.0000000000    30.1830000000
  218      C      19.3260000000    10.5110000000    31.0650000000
  219      H      20.1030000000    10.6000000000    30.3020000000
  220      H      19.5430000000    11.1260000000    31.9420000000
  221      H      19.1660000000     9.4620000000    31.3300000000
  222      O      17.6940000000    10.0130000000    29.0660000000
  223      C      17.8320000000    19.0030000000    27.7120000000
  224      H      17.3930000000    19.2880000000    26.7530000000
  225      H      18.4850000000    19.8280000000    28.0070000000
  226      H      18.3630000000    18.0860000000    27.4450000000
  227      S      16.6630000000    18.6240000000    29.0370000000
  228      C      15.7800000000    20.1980000000    28.9540000000
  229      H      15.1430000000    20.3130000000    29.8340000000
  230      H      16.4430000000    21.0610000000    29.0550000000
  231      H      15.2370000000    20.3050000000    28.0110000000
  232      O      17.5890000000    18.6470000000    30.2140000000
  233      C      27.2420000000    20.6160000000    26.7070000000
  234      H      27.4920000000    20.6780000000    25.6450000000
  235      H      28.0650000000    20.4550000000    27.4070000000
  236      H      26.4010000000    19.9280000000    26.8300000000
  237      S      26.7320000000    22.3270000000    26.9830000000
  238      C      25.7910000000    22.0430000000    28.4990000000
  239      H      24.9700000000    21.3580000000    28.2710000000
  240      H      26.3950000000    21.5940000000    29.2920000000
  241      H      25.3800000000    22.9590000000    28.9320000000
  242      O      25.7010000000    22.7020000000    25.9640000000
  243      C      16.8390000000    14.3980000000    22.6160000000
  244      H      15.9280000000    14.1260000000    23.1560000000
  245      H      17.5620000000    13.5800000000    22.5700000000
  246      H      17.3200000000    15.2960000000    23.0120000000
  247      S      16.3800000000    14.7550000000    20.9050000000
  248      C      17.6150000000    16.0360000000    20.5910000000
  249      H      17.5910000000    16.8700000000    21.2970000000
  250      H      18.6420000000    15.6630000000    20.5690000000
  251      H      17.4240000000    16.4650000000    19.6040000000
  252      O      15.0800000000    15.4940000000    20.9770000000
  253      C      20.9250000000    20.9110000000    34.4980000000
  254      H      21.3810000000    21.4660000000    33.6740000000
  255      H      19.9530000000    21.2880000000    34.8270000000
  256      H      21.6180000000    20.9880000000    35.3400000000
  257      S      20.8050000000    19.1650000000    34.0470000000
  258      C      20.2630000000    19.4670000000    32.3500000000
  259      H      21.1860000000    19.4750000000    31.7650000000
  260      H      19.6640000000    18.5910000000    32.0860000000
  261      H      19.6710000000    20.3760000000    32.2160000000
  262      O      19.6170000000    18.5940000000    34.7580000000
  263      C      26.7070000000    15.6820000000    29.7360000000
  264      H      26.1590000000    16.3890000000    30.3630000000
  265      H      27.6980000000    15.5650000000    30.1810000000
  266      H      26.8510000000    16.1600000000    28.7630000000
  267      S      25.6560000000    14.2300000000    29.5010000000
  268      C      25.5210000000    13.8930000000    31.2710000000
  269      H      24.9560000000    12.9720000000    31.4360000000
  270      H      26.4440000000    13.8630000000    31.8570000000
  271      H      24.9170000000    14.7090000000    31.6760000000
  272      O      26.5480000000    13.1090000000    29.0690000000
  273      C      28.2460000000     9.3290000000    28.9020000000
  274      H      27.7510000000     8.3770000000    29.1100000000
  275      H      29.3360000000     9.2570000000    28.8880000000
  276      H      28.0150000000    10.0320000000    29.7060000000
  277      S      27.6710000000    10.1150000000    27.3800000000
  278      C      25.9150000000     9.7650000000    27.6220000000
  279      H      25.4170000000    10.4650000000    28.2980000000
  280      H      25.3760000000     9.9360000000    26.6870000000
  281      H      25.7070000000     8.7590000000    27.9950000000
  282      O      28.0290000000     9.0700000000    26.3700000000
  283      C      25.3690000000    12.8790000000    25.5330000000
  284      H      25.6450000000    13.0970000000    26.5680000000
  285      H      24.3030000000    12.6930000000    25.3750000000
  286      H      25.9680000000    12.0000000000    25.2830000000
  287      S      25.7870000000    14.2880000000    24.4820000000
  288      C      25.7060000000    13.5540000000    22.8320000000
  289      H      24.7310000000    13.2840000000    22.4200000000
  290      H      26.0700000000    14.3900000000    22.2290000000
  291      H      26.4380000000    12.7430000000    22.8470000000
  292      O      27.2580000000    14.2970000000    24.7610000000
  293      C      22.0100000000    14.6280000000    23.5060000000
  294      H      22.4150000000    15.4990000000    24.0270000000
  295      H      22.0020000000    13.7610000000    24.1720000000
  296      H      22.3980000000    14.3920000000    22.5120000000
  297      S      20.2420000000    14.9600000000    23.3350000000
  298      C      20.4080000000    16.7360000000    23.0430000000
  299      H      21.0530000000    16.9610000000    22.1900000000
  300      H      19.4160000000    17.1610000000    22.8690000000
  301      H      20.7870000000    17.2840000000    23.9090000000
  302      O      19.8200000000    14.8600000000    24.7680000000
 ----------------------------------------------------------------
 Nuclear Repulsion Energy =       51057.56790665 hartrees
 There are      623 alpha and      623 beta electrons
 Requested basis set is 6-31+G(d)
 There are 995 shells and 2773 basis functions

 Total QAlloc Memory Limit  16000 MB
 Mega-Array Size      7821 MB
 MEM_STATIC part      8000 MB
 A cutoff of  1.0D-14 yielded 186443 shell pairs
 There are   1623690 function pairs
 Smallest overlap matrix eigenvalue = 3.47E-07
 Linear dependence detected in AO basis
 Tighter screening thresholds may be required for diffuse basis sets
 Use S2THRESH > 14 and THRESH = 14 in case of SCF convergence issues
 Number of orthogonalized atomic orbitals = 2771
 Maximum deviation from orthogonality = 2.183E-10

 Scale SEOQF with 1.000000e-03/1.000000e-03/1.000000e-03

 Standard Electronic Orientation quadrupole field applied
 Nucleus-field energy     =    -0.0000005725 hartrees
Attempting to make child job directory: /local/scratch/users/ymao/r7.00_frame_0031_almo_B3LYP_dp.in20210311133732//Frg1/
Attempting to make child job directory: /local/scratch/users/ymao/r7.00_frame_0031_almo_B3LYP_dp.in20210311133732//Frg2/
Creating input file /local/scratch/users/ymao/r7.00_frame_0031_almo_B3LYP_dp.in20210311133732/Frg1.input
using default PutDataFrgm: nothing
calling putenv with: QCSCRATCH=/local/scratch/users/ymao/r7.00_frame_0031_almo_B3LYP_dp.in20210311133732/ 
Spawning Job For Fragment 0
Done Job For Fragment 0
calling putenv with: QCSCRATCH=/local/scratch/users/ymao 
calling putenv with: QCTHREADS=8 
Creating input file /local/scratch/users/ymao/r7.00_frame_0031_almo_B3LYP_dp.in20210311133732/Frg2.input
using default PutDataFrgm: nothing
calling putenv with: QCSCRATCH=/local/scratch/users/ymao/r7.00_frame_0031_almo_B3LYP_dp.in20210311133732/ 
Spawning Job For Fragment 1
Done Job For Fragment 1
calling putenv with: QCSCRATCH=/local/scratch/users/ymao 
calling putenv with: QCTHREADS=8 
 Time for running child jobs:  CPU 1.39 s  wall 32097.61 s

 -----------------------------------------------------------------------
  General SCF calculation program by
  Eric Jon Sundstrom, Paul Horn, Yuezhi Mao, Dmitri Zuev, Alec White,
  David Stuck, Shaama M.S., Shane Yost, Joonho Lee, David Small,
  Daniel Levine, Susi Lehtola, Hugh Burton, Evgeny Epifanovsky,
  Bang C. Huynh
 -----------------------------------------------------------------------
Performing Restricted Closed Shell SCFMI
Doing General SCFMI
 Exchange:     0.2000 Hartree-Fock + 0.0800 Slater + 0.7200 B88
 Correlation:  0.1900 VWN1RPA + 0.8100 LYP
 Using Euler-Maclaurin-Lebedev (75,302) quadrature formula
performing fock build before subrot guess so that all methods have access
Printing subrot_rss_gen Method Specification:
Occupied Subspace Method is 0
Virtual Subspace Method is 0
Energy prior to optimization (guess energy) = -15893.941484603427
Begin Timing: Total SCF Calculation
begin iterations for algorithm: DIIS         
the SCF tolerance is set to 1.00e-08
    1  -15893.9414846034      4.62e-05     00000 
    2  -15893.9403297820      6.92e-05     00000 
    3  -15893.9532974639      1.81e-05     00000 
    4  -15893.9541216507      7.63e-06     00000 
    5  -15893.9543171086      2.85e-06     00000 
    6  -15893.9543424370      1.89e-06     00000 
    7  -15893.9543536967      1.11e-06     00000 
    8  -15893.9543578815      5.94e-07     00000 
    9  -15893.9543589781      3.19e-07     00000 
   10  -15893.9543591794      2.26e-07     00000 
   11  -15893.9543592680      1.52e-07     00000 
   12  -15893.9543593164      9.19e-08     00000 
   13  -15893.9543593396      4.48e-08     00000 
   14  -15893.9543593469      2.45e-08     00000 
   15  -15893.9543593484      1.91e-08     00000 
   16  -15893.9543593490      8.78e-09     00000 Convergence criterion met
write pseudocanon occs and virts to disk
write pseudocanon orbital energies to disk
Timing for Total SCF: 56143.00s (wall), 444980.74s (cpu)
SCFMI Energy  -15893.9543593490
<S^2>            0.00000
 Total energy in the final basis set =   -15893.9543593490
    ==================================================
        The end of Object-Oriented SCFman: SCFMI      
    ==================================================
 
 --------------------------------------------------------------
 
                    Orbital Energies (a.u.)
 --------------------------------------------------------------
 
 Alpha MOs
 -- Occupied --
-89.0512 -89.0306 -89.0252 -89.0244 -89.0190 -89.0156 -89.0123 -89.0100
-89.0064 -89.0041 -89.0034 -89.0026 -89.0025 -89.0025 -89.0013 -89.0008
-89.0001 -88.9999 -88.9988 -88.9951 -88.9922 -88.9879 -88.9792 -88.9790
-88.9749 -88.9727 -88.9696 -88.9520 -19.1674 -19.1469 -19.1465 -19.1412
-19.1393 -19.1314 -19.1306 -19.1282 -19.1269 -19.1235 -19.1231 -19.1218
-19.1202 -19.1181 -19.1165 -19.1163 -19.1149 -19.1142 -19.1132 -19.1129
-19.1120 -19.1033 -19.0969 -19.0959 -19.0951 -19.0929 -19.0860 -19.0766
-19.0687 -14.3438 -10.2790 -10.2754 -10.2711 -10.2583 -10.2526 -10.2482
-10.2481 -10.2461 -10.2383 -10.2351 -10.2333 -10.2333 -10.2318 -10.2304
-10.2261 -10.2260 -10.2254 -10.2241 -10.2238 -10.2232 -10.2218 -10.2215
-10.2213 -10.2207 -10.2201 -10.2187 -10.2185 -10.2185 -10.2176 -10.2154
-10.2150 -10.2143 -10.2118 -10.2105 -10.2079 -10.2077 -10.2075 -10.2068
-10.2067 -10.2065 -10.2054 -10.2048 -10.2046 -10.2046 -10.2042 -10.1997
-10.1985 -10.1948 -10.1930 -10.1925 -10.1919 -10.1910 -10.1897 -10.1885
-10.1885 -10.1855 -10.1852 -10.1840 -10.1838 -10.1813 -10.1784 -10.1775
-10.1650  -8.0970  -8.0771  -8.0710  -8.0703  -8.0650  -8.0615  -8.0582
 -8.0562  -8.0513  -8.0502  -8.0496  -8.0486  -8.0485  -8.0484  -8.0472
 -8.0470  -8.0460  -8.0458  -8.0450  -8.0413  -8.0389  -8.0338  -8.0250
 -8.0250  -8.0206  -8.0183  -8.0159  -7.9984  -6.0616  -6.0602  -6.0541
 -6.0413  -6.0404  -6.0353  -6.0347  -6.0343  -6.0339  -6.0335  -6.0294
 -6.0283  -6.0282  -6.0278  -6.0260  -6.0243  -6.0226  -6.0221  -6.0214
 -6.0205  -6.0192  -6.0190  -6.0157  -6.0155  -6.0145  -6.0144  -6.0140
 -6.0135  -6.0134  -6.0130  -6.0128  -6.0128  -6.0126  -6.0116  -6.0115
 -6.0115  -6.0114  -6.0114  -6.0105  -6.0103  -6.0103  -6.0100  -6.0094
 -6.0092  -6.0089  -6.0087  -6.0080  -6.0078  -6.0069  -6.0066  -6.0064
 -6.0058  -6.0054  -6.0045  -6.0044  -6.0042  -6.0034  -6.0034  -6.0031
 -6.0024  -6.0021  -5.9992  -5.9980  -5.9971  -5.9958  -5.9914  -5.9894
 -5.9893  -5.9883  -5.9882  -5.9850  -5.9838  -5.9825  -5.9823  -5.9822
 -5.9815  -5.9802  -5.9788  -5.9779  -5.9758  -5.9732  -5.9627  -5.9614
 -5.9559  -1.0757  -1.0604  -1.0539  -1.0487  -1.0475  -1.0403  -1.0389
 -1.0370  -1.0342  -1.0336  -1.0312  -1.0307  -1.0307  -1.0288  -1.0283
 -1.0256  -1.0254  -1.0242  -1.0240  -1.0239  -1.0232  -1.0159  -1.0104
 -1.0040  -1.0031  -1.0024  -0.9985  -0.9897  -0.9753  -0.9128  -0.8609
 -0.8368  -0.8326  -0.8250  -0.8225  -0.8197  -0.8186  -0.8176  -0.8136
 -0.8076  -0.8074  -0.8066  -0.8061  -0.8032  -0.8026  -0.8020  -0.7999
 -0.7989  -0.7985  -0.7959  -0.7946  -0.7910  -0.7829  -0.7810  -0.7788
 -0.7785  -0.7770  -0.7713  -0.7711  -0.7669  -0.7629  -0.7561  -0.7532
 -0.7471  -0.7464  -0.7461  -0.7404  -0.7398  -0.7396  -0.7366  -0.7333
 -0.7318  -0.7318  -0.7309  -0.7307  -0.7282  -0.7272  -0.7212  -0.7194
 -0.7154  -0.7153  -0.7151  -0.7141  -0.7137  -0.7101  -0.7053  -0.7010
 -0.6988  -0.6804  -0.6653  -0.6460  -0.6379  -0.6367  -0.6332  -0.6305
 -0.6287  -0.6261  -0.6231  -0.6226  -0.6196  -0.6167  -0.6165  -0.6156
 -0.6150  -0.6142  -0.6130  -0.6114  -0.6108  -0.6104  -0.6094  -0.6067
 -0.6025  -0.5967  -0.5946  -0.5921  -0.5893  -0.5872  -0.5838  -0.5742
 -0.5632  -0.5613  -0.5381  -0.5272  -0.5230  -0.5227  -0.5109  -0.5099
 -0.5096  -0.5077  -0.5058  -0.5024  -0.4972  -0.4962  -0.4955  -0.4945
 -0.4939  -0.4933  -0.4927  -0.4914  -0.4912  -0.4904  -0.4887  -0.4866
 -0.4859  -0.4851  -0.4847  -0.4839  -0.4822  -0.4819  -0.4814  -0.4806
 -0.4801  -0.4795  -0.4785  -0.4782  -0.4773  -0.4767  -0.4757  -0.4745
 -0.4739  -0.4731  -0.4728  -0.4722  -0.4721  -0.4717  -0.4715  -0.4710
 -0.4703  -0.4693  -0.4691  -0.4687  -0.4685  -0.4680  -0.4667  -0.4666
 -0.4657  -0.4650  -0.4645  -0.4643  -0.4640  -0.4630  -0.4623  -0.4620
 -0.4611  -0.4610  -0.4603  -0.4596  -0.4581  -0.4574  -0.4574  -0.4566
 -0.4564  -0.4547  -0.4545  -0.4544  -0.4541  -0.4524  -0.4522  -0.4518
 -0.4502  -0.4497  -0.4490  -0.4488  -0.4472  -0.4470  -0.4459  -0.4450
 -0.4446  -0.4442  -0.4432  -0.4431  -0.4418  -0.4414  -0.4411  -0.4401
 -0.4392  -0.4390  -0.4376  -0.4372  -0.4365  -0.4361  -0.4356  -0.4351
 -0.4348  -0.4339  -0.4322  -0.4320  -0.4318  -0.4314  -0.4295  -0.4290
 -0.4284  -0.4262  -0.4251  -0.4244  -0.4242  -0.4232  -0.4231  -0.4221
 -0.4210  -0.4199  -0.4196  -0.4191  -0.4179  -0.4176  -0.4171  -0.4169
 -0.4161  -0.4152  -0.4147  -0.4139  -0.4135  -0.4131  -0.4125  -0.4115
 -0.4115  -0.4112  -0.4104  -0.4098  -0.4096  -0.4086  -0.4081  -0.4068
 -0.4067  -0.4061  -0.4059  -0.4041  -0.4026  -0.4013  -0.4004  -0.3998
 -0.3986  -0.3975  -0.3960  -0.3951  -0.3942  -0.3933  -0.3916  -0.3915
 -0.3910  -0.3904  -0.3893  -0.3891  -0.3876  -0.3849  -0.3835  -0.3833
 -0.3823  -0.3818  -0.3816  -0.3814  -0.3800  -0.3796  -0.3790  -0.3786
 -0.3776  -0.3753  -0.3748  -0.3744  -0.3736  -0.3716  -0.3714  -0.3707
 -0.3703  -0.3692  -0.3681  -0.3679  -0.3672  -0.3658  -0.3651  -0.3638
 -0.3632  -0.3628  -0.3627  -0.3608  -0.3605  -0.3596  -0.3567  -0.3547
 -0.3533  -0.3521  -0.3477  -0.3454  -0.3443  -0.3418  -0.3391  -0.3371
 -0.3332  -0.3308  -0.3271  -0.3182  -0.3123  -0.3108  -0.3070  -0.3055
 -0.3028  -0.2997  -0.2942  -0.2918  -0.2884  -0.2870  -0.2858  -0.2852
 -0.2830  -0.2826  -0.2819  -0.2800  -0.2786  -0.2754  -0.2740  -0.2732
 -0.2724  -0.2721  -0.2696  -0.2695  -0.2655  -0.2624  -0.2609  -0.2602
 -0.2600  -0.2574  -0.2565  -0.2555  -0.2543  -0.2536  -0.2518  -0.2510
 -0.2508  -0.2494  -0.2470  -0.2454  -0.2444  -0.2439  -0.2425  -0.2418
 -0.2414  -0.2412  -0.2409  -0.2376  -0.2370  -0.2351  -0.2304  -0.2269
 -0.2261  -0.2197  -0.2179  -0.2169  -0.2101  -0.2080  -0.1926
 -- Virtual --
 -0.0540  -0.0431  -0.0366  -0.0309  -0.0276  -0.0275  -0.0256  -0.0248
 -0.0223  -0.0212  -0.0194  -0.0175  -0.0164  -0.0156  -0.0147  -0.0138
 -0.0121  -0.0107  -0.0098  -0.0088  -0.0083  -0.0075  -0.0071  -0.0065
 -0.0057  -0.0038  -0.0030  -0.0027  -0.0018  -0.0014   0.0000   0.0009
  0.0014   0.0019   0.0025   0.0030   0.0036   0.0044   0.0057   0.0065
  0.0070   0.0080   0.0083   0.0093   0.0103   0.0106   0.0113   0.0114
  0.0127   0.0133   0.0140   0.0145   0.0146   0.0150   0.0161   0.0171
  0.0178   0.0179   0.0185   0.0198   0.0202   0.0212   0.0216   0.0222
  0.0232   0.0235   0.0241   0.0249   0.0256   0.0260   0.0266   0.0268
  0.0275   0.0286   0.0294   0.0299   0.0309   0.0316   0.0323   0.0331
  0.0336   0.0340   0.0342   0.0346   0.0355   0.0359   0.0367   0.0371
  0.0377   0.0384   0.0391   0.0403   0.0406   0.0417   0.0421   0.0424
  0.0429   0.0440   0.0444   0.0451   0.0454   0.0457   0.0470   0.0477
  0.0482   0.0484   0.0491   0.0495   0.0506   0.0508   0.0514   0.0528
  0.0530   0.0534   0.0539   0.0553   0.0557   0.0565   0.0568   0.0581
  0.0586   0.0595   0.0599   0.0608   0.0611   0.0614   0.0620   0.0629
  0.0631   0.0632   0.0639   0.0648   0.0653   0.0666   0.0670   0.0675
  0.0678   0.0688   0.0691   0.0699   0.0705   0.0709   0.0714   0.0720
  0.0722   0.0729   0.0735   0.0739   0.0746   0.0757   0.0764   0.0773
  0.0777   0.0785   0.0791   0.0796   0.0805   0.0810   0.0814   0.0820
  0.0826   0.0826   0.0839   0.0843   0.0844   0.0855   0.0861   0.0864
  0.0873   0.0880   0.0890   0.0892   0.0899   0.0903   0.0908   0.0915
  0.0919   0.0932   0.0934   0.0938   0.0944   0.0955   0.0959   0.0961
  0.0969   0.0975   0.0981   0.0984   0.0990   0.0996   0.1000   0.1012
  0.1020   0.1021   0.1026   0.1030   0.1033   0.1043   0.1047   0.1055
  0.1063   0.1069   0.1074   0.1075   0.1080   0.1097   0.1103   0.1105
  0.1113   0.1121   0.1127   0.1133   0.1135   0.1147   0.1151   0.1158
  0.1161   0.1167   0.1182   0.1183   0.1189   0.1192   0.1202   0.1203
  0.1211   0.1221   0.1225   0.1229   0.1237   0.1245   0.1252   0.1255
  0.1259   0.1260   0.1271   0.1283   0.1290   0.1296   0.1302   0.1306
  0.1306   0.1310   0.1321   0.1327   0.1331   0.1334   0.1338   0.1346
  0.1350   0.1358   0.1365   0.1371   0.1380   0.1388   0.1393   0.1394
  0.1399   0.1413   0.1418   0.1420   0.1433   0.1437   0.1440   0.1445
  0.1449   0.1452   0.1460   0.1467   0.1469   0.1475   0.1489   0.1494
  0.1497   0.1501   0.1508   0.1515   0.1526   0.1528   0.1530   0.1540
  0.1544   0.1548   0.1560   0.1561   0.1564   0.1573   0.1579   0.1582
  0.1583   0.1599   0.1602   0.1612   0.1614   0.1617   0.1630   0.1637
  0.1642   0.1647   0.1655   0.1664   0.1667   0.1670   0.1675   0.1681
  0.1686   0.1688   0.1693   0.1697   0.1709   0.1713   0.1721   0.1731
  0.1733   0.1744   0.1750   0.1758   0.1766   0.1767   0.1771   0.1777
  0.1782   0.1784   0.1794   0.1802   0.1804   0.1806   0.1817   0.1818
  0.1823   0.1830   0.1831   0.1840   0.1843   0.1845   0.1849   0.1855
  0.1869   0.1871   0.1880   0.1883   0.1889   0.1898   0.1901   0.1905
  0.1910   0.1914   0.1921   0.1926   0.1929   0.1938   0.1947   0.1951
  0.1957   0.1968   0.1977   0.1979   0.1986   0.1989   0.1990   0.2001
  0.2005   0.2009   0.2010   0.2014   0.2017   0.2030   0.2036   0.2039
  0.2044   0.2051   0.2054   0.2060   0.2064   0.2076   0.2083   0.2093
  0.2100   0.2103   0.2108   0.2114   0.2119   0.2121   0.2130   0.2138
  0.2145   0.2151   0.2162   0.2164   0.2169   0.2176   0.2183   0.2189
  0.2197   0.2201   0.2205   0.2213   0.2218   0.2224   0.2234   0.2241
  0.2249   0.2253   0.2255   0.2266   0.2269   0.2281   0.2284   0.2289
  0.2299   0.2307   0.2313   0.2316   0.2326   0.2333   0.2336   0.2346
  0.2347   0.2356   0.2359   0.2367   0.2371   0.2382   0.2384   0.2392
  0.2398   0.2403   0.2419   0.2431   0.2435   0.2436   0.2441   0.2445
  0.2455   0.2458   0.2467   0.2471   0.2479   0.2484   0.2490   0.2499
  0.2503   0.2509   0.2516   0.2518   0.2528   0.2538   0.2541   0.2542
  0.2554   0.2558   0.2561   0.2572   0.2579   0.2587   0.2597   0.2609
  0.2616   0.2622   0.2625   0.2627   0.2633   0.2640   0.2648   0.2652
  0.2657   0.2674   0.2683   0.2689   0.2694   0.2701   0.2707   0.2715
  0.2726   0.2727   0.2740   0.2751   0.2756   0.2760   0.2768   0.2776
  0.2788   0.2799   0.2804   0.2810   0.2820   0.2827   0.2835   0.2842
  0.2848   0.2855   0.2865   0.2868   0.2872   0.2880   0.2885   0.2896
  0.2901   0.2910   0.2920   0.2927   0.2941   0.2943   0.2948   0.2957
  0.2960   0.2961   0.2968   0.2986   0.2995   0.3003   0.3007   0.3019
  0.3029   0.3033   0.3037   0.3042   0.3054   0.3060   0.3061   0.3079
  0.3086   0.3096   0.3100   0.3108   0.3115   0.3126   0.3137   0.3142
  0.3147   0.3154   0.3159   0.3161   0.3173   0.3181   0.3191   0.3195
  0.3205   0.3218   0.3224   0.3237   0.3245   0.3249   0.3255   0.3265
  0.3273   0.3277   0.3282   0.3285   0.3300   0.3308   0.3312   0.3318
  0.3324   0.3329   0.3336   0.3341   0.3349   0.3361   0.3369   0.3380
  0.3387   0.3403   0.3409   0.3421   0.3434   0.3436   0.3446   0.3451
  0.3464   0.3471   0.3477   0.3483   0.3492   0.3500   0.3509   0.3511
  0.3524   0.3526   0.3535   0.3547   0.3558   0.3566   0.3572   0.3584
  0.3588   0.3595   0.3601   0.3614   0.3618   0.3625   0.3632   0.3643
  0.3644   0.3656   0.3663   0.3675   0.3687   0.3695   0.3700   0.3722
  0.3727   0.3735   0.3749   0.3760   0.3768   0.3769   0.3775   0.3782
  0.3793   0.3808   0.3811   0.3813   0.3822   0.3829   0.3831   0.3840
  0.3844   0.3860   0.3870   0.3879   0.3890   0.3895   0.3904   0.3909
  0.3916   0.3921   0.3932   0.3947   0.3954   0.3957   0.3960   0.3968
  0.3981   0.3989   0.3996   0.4006   0.4013   0.4017   0.4028   0.4034
  0.4048   0.4064   0.4072   0.4082   0.4083   0.4091   0.4104   0.4105
  0.4109   0.4126   0.4135   0.4148   0.4157   0.4158   0.4189   0.4196
  0.4207   0.4212   0.4218   0.4238   0.4240   0.4251   0.4267   0.4277
  0.4279   0.4288   0.4305   0.4311   0.4317   0.4324   0.4328   0.4345
  0.4359   0.4374   0.4377   0.4387   0.4392   0.4404   0.4411   0.4433
  0.4439   0.4450   0.4460   0.4470   0.4479   0.4487   0.4502   0.4508
  0.4513   0.4519   0.4530   0.4552   0.4566   0.4577   0.4595   0.4603
  0.4622   0.4627   0.4639   0.4645   0.4673   0.4684   0.4693   0.4696
  0.4709   0.4715   0.4726   0.4732   0.4752   0.4778   0.4787   0.4791
  0.4800   0.4809   0.4833   0.4840   0.4855   0.4867   0.4880   0.4894
  0.4902   0.4916   0.4928   0.4946   0.4962   0.4975   0.4986   0.4998
  0.5023   0.5029   0.5041   0.5053   0.5059   0.5080   0.5098   0.5118
  0.5126   0.5141   0.5170   0.5183   0.5196   0.5207   0.5216   0.5240
  0.5262   0.5273   0.5281   0.5304   0.5321   0.5330   0.5338   0.5361
  0.5370   0.5389   0.5404   0.5420   0.5436   0.5465   0.5466   0.5483
  0.5498   0.5521   0.5528   0.5543   0.5557   0.5575   0.5588   0.5595
  0.5617   0.5629   0.5648   0.5662   0.5672   0.5687   0.5699   0.5718
  0.5734   0.5749   0.5794   0.5798   0.5802   0.5816   0.5829   0.5840
  0.5854   0.5869   0.5881   0.5891   0.5909   0.5920   0.5928   0.5938
  0.5962   0.5976   0.5989   0.6002   0.6013   0.6023   0.6025   0.6032
  0.6047   0.6056   0.6079   0.6081   0.6095   0.6106   0.6115   0.6128
  0.6150   0.6153   0.6159   0.6172   0.6183   0.6200   0.6212   0.6218
  0.6239   0.6245   0.6257   0.6270   0.6289   0.6294   0.6307   0.6320
  0.6337   0.6355   0.6358   0.6364   0.6380   0.6382   0.6400   0.6405
  0.6410   0.6416   0.6434   0.6445   0.6454   0.6471   0.6490   0.6494
  0.6503   0.6516   0.6529   0.6540   0.6549   0.6554   0.6568   0.6573
  0.6582   0.6604   0.6612   0.6623   0.6634   0.6652   0.6661   0.6666
  0.6675   0.6678   0.6702   0.6708   0.6715   0.6724   0.6752   0.6754
  0.6775   0.6787   0.6789   0.6800   0.6815   0.6817   0.6826   0.6832
  0.6850   0.6863   0.6877   0.6896   0.6897   0.6903   0.6908   0.6919
  0.6942   0.6954   0.6967   0.6970   0.6982   0.7004   0.7006   0.7016
  0.7019   0.7029   0.7054   0.7072   0.7078   0.7087   0.7089   0.7100
  0.7110   0.7118   0.7132   0.7144   0.7163   0.7174   0.7179   0.7193
  0.7198   0.7209   0.7219   0.7233   0.7237   0.7249   0.7253   0.7277
  0.7297   0.7301   0.7312   0.7334   0.7339   0.7350   0.7366   0.7371
  0.7377   0.7406   0.7419   0.7426   0.7457   0.7463   0.7482   0.7497
  0.7513   0.7520   0.7549   0.7558   0.7574   0.7587   0.7613   0.7624
  0.7633   0.7648   0.7662   0.7673   0.7681   0.7690   0.7697   0.7709
  0.7740   0.7743   0.7759   0.7771   0.7784   0.7796   0.7815   0.7819
  0.7832   0.7862   0.7866   0.7899   0.7914   0.7921   0.7930   0.7952
  0.7962   0.7975   0.7985   0.7988   0.7998   0.8017   0.8027   0.8035
  0.8057   0.8075   0.8083   0.8099   0.8103   0.8132   0.8140   0.8159
  0.8162   0.8176   0.8197   0.8207   0.8238   0.8251   0.8255   0.8259
  0.8272   0.8283   0.8300   0.8310   0.8327   0.8351   0.8373   0.8388
  0.8392   0.8398   0.8407   0.8430   0.8445   0.8472   0.8494   0.8497
  0.8505   0.8518   0.8525   0.8540   0.8551   0.8561   0.8567   0.8579
  0.8597   0.8614   0.8623   0.8631   0.8650   0.8659   0.8669   0.8674
  0.8686   0.8690   0.8727   0.8729   0.8743   0.8754   0.8763   0.8774
  0.8790   0.8807   0.8818   0.8832   0.8833   0.8845   0.8853   0.8869
  0.8872   0.8879   0.8906   0.8914   0.8925   0.8936   0.8955   0.8964
  0.8970   0.8983   0.8999   0.9005   0.9021   0.9034   0.9041   0.9045
  0.9060   0.9065   0.9078   0.9101   0.9104   0.9129   0.9136   0.9138
  0.9151   0.9167   0.9182   0.9194   0.9203   0.9217   0.9225   0.9231
  0.9241   0.9250   0.9259   0.9263   0.9285   0.9288   0.9303   0.9318
  0.9331   0.9342   0.9351   0.9372   0.9381   0.9384   0.9393   0.9415
  0.9417   0.9427   0.9446   0.9454   0.9472   0.9483   0.9485   0.9491
  0.9506   0.9523   0.9528   0.9545   0.9550   0.9560   0.9588   0.9593
  0.9597   0.9608   0.9616   0.9629   0.9633   0.9653   0.9667   0.9669
  0.9690   0.9706   0.9711   0.9716   0.9724   0.9736   0.9761   0.9766
  0.9769   0.9779   0.9795   0.9805   0.9809   0.9819   0.9830   0.9839
  0.9849   0.9856   0.9868   0.9874   0.9884   0.9892   0.9916   0.9934
  0.9951   0.9953   0.9959   0.9963   0.9978   0.9984   0.9998   1.0013
  1.0021   1.0029   1.0040   1.0053   1.0067   1.0071   1.0080   1.0095
  1.0103   1.0112   1.0124   1.0146   1.0150   1.0158   1.0173   1.0182
  1.0200   1.0201   1.0215   1.0221   1.0238   1.0246   1.0268   1.0275
  1.0287   1.0292   1.0299   1.0315   1.0321   1.0335   1.0345   1.0354
  1.0364   1.0381   1.0384   1.0401   1.0409   1.0415   1.0427   1.0442
  1.0452   1.0471   1.0474   1.0490   1.0501   1.0507   1.0514   1.0517
  1.0538   1.0551   1.0559   1.0568   1.0588   1.0603   1.0611   1.0612
  1.0630   1.0642   1.0650   1.0665   1.0678   1.0689   1.0709   1.0714
  1.0724   1.0732   1.0741   1.0770   1.0779   1.0796   1.0798   1.0808
  1.0823   1.0841   1.0865   1.0876   1.0881   1.0891   1.0914   1.0922
  1.0926   1.0968   1.0978   1.0985   1.0998   1.1007   1.1015   1.1023
  1.1043   1.1051   1.1061   1.1075   1.1095   1.1107   1.1111   1.1117
  1.1137   1.1160   1.1168   1.1172   1.1179   1.1190   1.1192   1.1212
  1.1229   1.1251   1.1263   1.1269   1.1279   1.1302   1.1318   1.1339
  1.1350   1.1357   1.1365   1.1372   1.1377   1.1396   1.1408   1.1413
  1.1421   1.1442   1.1442   1.1476   1.1493   1.1508   1.1515   1.1521
  1.1535   1.1550   1.1572   1.1592   1.1601   1.1609   1.1630   1.1638
  1.1651   1.1668   1.1678   1.1696   1.1708   1.1716   1.1735   1.1748
  1.1753   1.1778   1.1791   1.1801   1.1818   1.1829   1.1856   1.1863
  1.1874   1.1887   1.1901   1.1910   1.1941   1.1951   1.1984   1.1986
  1.1990   1.2009   1.2056   1.2081   1.2094   1.2099   1.2122   1.2136
  1.2142   1.2147   1.2178   1.2185   1.2205   1.2223   1.2229   1.2244
  1.2253   1.2269   1.2306   1.2325   1.2340   1.2357   1.2370   1.2382
  1.2395   1.2399   1.2433   1.2441   1.2458   1.2503   1.2508   1.2535
  1.2576   1.2583   1.2607   1.2627   1.2648   1.2663   1.2671   1.2710
  1.2724   1.2738   1.2750   1.2787   1.2809   1.2828   1.2866   1.2876
  1.2890   1.2898   1.2918   1.2933   1.2947   1.2965   1.2980   1.3013
  1.3033   1.3059   1.3069   1.3097   1.3112   1.3137   1.3155   1.3169
  1.3186   1.3210   1.3226   1.3250   1.3276   1.3298   1.3319   1.3344
  1.3362   1.3365   1.3388   1.3398   1.3406   1.3439   1.3463   1.3477
  1.3492   1.3502   1.3524   1.3537   1.3552   1.3566   1.3593   1.3611
  1.3627   1.3656   1.3676   1.3688   1.3694   1.3709   1.3717   1.3735
  1.3738   1.3764   1.3777   1.3784   1.3813   1.3823   1.3832   1.3840
  1.3850   1.3853   1.3866   1.3883   1.3891   1.3906   1.3925   1.3931
  1.3948   1.3960   1.3976   1.4015   1.4033   1.4044   1.4061   1.4075
  1.4087   1.4108   1.4115   1.4134   1.4142   1.4150   1.4166   1.4173
  1.4183   1.4203   1.4227   1.4242   1.4261   1.4281   1.4294   1.4319
  1.4327   1.4339   1.4351   1.4354   1.4378   1.4389   1.4412   1.4426
  1.4439   1.4442   1.4457   1.4465   1.4472   1.4477   1.4499   1.4525
  1.4536   1.4559   1.4580   1.4581   1.4589   1.4618   1.4622   1.4627
  1.4646   1.4673   1.4689   1.4697   1.4716   1.4733   1.4747   1.4757
  1.4770   1.4791   1.4817   1.4832   1.4846   1.4890   1.4906   1.4920
  1.4935   1.4951   1.4960   1.4979   1.5005   1.5033   1.5050   1.5070
  1.5075   1.5099   1.5133   1.5156   1.5175   1.5224   1.5227   1.5254
  1.5284   1.5299   1.5308   1.5320   1.5370   1.5384   1.5423   1.5442
  1.5464   1.5498   1.5503   1.5525   1.5543   1.5573   1.5580   1.5611
  1.5656   1.5680   1.5704   1.5735   1.5754   1.5806   1.5854   1.5878
  1.5899   1.5943   1.5983   1.6003   1.6030   1.6123   1.6125   1.6142
  1.6178   1.6196   1.6224   1.6261   1.6270   1.6317   1.6355   1.6392
  1.6432   1.6486   1.6502   1.6515   1.6529   1.6545   1.6587   1.6590
  1.6607   1.6628   1.6639   1.6657   1.6673   1.6696   1.6720   1.6726
  1.6741   1.6752   1.6764   1.6773   1.6781   1.6813   1.6828   1.6835
  1.6841   1.6865   1.6879   1.6888   1.6905   1.6909   1.6919   1.6936
  1.6951   1.6977   1.6981   1.6991   1.6994   1.7006   1.7022   1.7034
  1.7046   1.7061   1.7086   1.7095   1.7109   1.7110   1.7136   1.7143
  1.7154   1.7176   1.7176   1.7191   1.7211   1.7214   1.7219   1.7246
  1.7254   1.7268   1.7282   1.7288   1.7298   1.7317   1.7326   1.7346
  1.7366   1.7375   1.7382   1.7400   1.7409   1.7421   1.7428   1.7449
  1.7463   1.7476   1.7492   1.7504   1.7511   1.7524   1.7538   1.7553
  1.7559   1.7567   1.7575   1.7597   1.7608   1.7640   1.7656   1.7691
  1.7695   1.7703   1.7716   1.7722   1.7740   1.7745   1.7765   1.7773
  1.7793   1.7807   1.7810   1.7836   1.7845   1.7854   1.7884   1.7901
  1.7943   1.7947   1.7960   1.7975   1.8015   1.8024   1.8061   1.8068
  1.8102   1.8123   1.8130   1.8158   1.8177   1.8185   1.8215   1.8250
  1.8286   1.8309   1.8345   1.8374   1.8398   1.8416   1.8437   1.8458
  1.8462   1.8528   1.8547   1.8570   1.8595   1.8623   1.8642   1.8654
  1.8687   1.8692   1.8727   1.8753   1.8760   1.8775   1.8782   1.8790
  1.8802   1.8823   1.8828   1.8861   1.8862   1.8878   1.8893   1.8908
  1.8925   1.8937   1.8956   1.8961   1.8981   1.8988   1.9002   1.9009
  1.9029   1.9035   1.9040   1.9044   1.9060   1.9066   1.9076   1.9085
  1.9105   1.9118   1.9140   1.9149   1.9165   1.9182   1.9185   1.9195
  1.9214   1.9218   1.9249   1.9263   1.9279   1.9287   1.9304   1.9311
  1.9329   1.9343   1.9360   1.9369   1.9390   1.9398   1.9427   1.9450
  1.9475   1.9482   1.9511   1.9525   1.9540   1.9564   1.9571   1.9594
  1.9629   1.9673   1.9745   1.9766   1.9821   1.9857   1.9900   1.9957
  2.0000   2.0012   2.0128   2.0162   2.0187   2.0251   2.0281   2.0350
  2.0414   2.0450   2.0510   2.0522   2.0528   2.0544   2.0549   2.0571
  2.0589   2.0598   2.0606   2.0627   2.0655   2.0667   2.0671   2.0687
  2.0709   2.0721   2.0721   2.0741   2.0755   2.0760   2.0774   2.0815
  2.0827   2.0853   2.0861   2.0877   2.0893   2.0898   2.0903   2.0915
  2.0928   2.0933   2.0951   2.0968   2.0979   2.0997   2.1001   2.1029
  2.1040   2.1064   2.1072   2.1086   2.1101   2.1159   2.1166   2.1189
  2.1205   2.1217   2.1233   2.1250   2.1271   2.1284   2.1298   2.1335
  2.1360   2.1370   2.1434   2.1467   2.1499   2.1512   2.1626   2.1642
  2.1659   2.1691   2.1749   2.1812   2.1844   2.1852   2.1876   2.1883
  2.1907   2.1913   2.1965   2.1979   2.1992   2.1999   2.2009   2.2021
  2.2056   2.2074   2.2076   2.2081   2.2091   2.2123   2.2125   2.2133
  2.2146   2.2151   2.2181   2.2211   2.2238   2.2242   2.2247   2.2261
  2.2278   2.2283   2.2294   2.2318   2.2335   2.2339   2.2360   2.2400
  2.2406   2.2418   2.2436   2.2447   2.2451   2.2462   2.2480   2.2504
  2.2512   2.2520   2.2530   2.2547   2.2554   2.2561   2.2574   2.2577
  2.2599   2.2602   2.2611   2.2618   2.2623   2.2630   2.2635   2.2640
  2.2645   2.2657   2.2660   2.2671   2.2678   2.2685   2.2686   2.2693
  2.2705   2.2715   2.2721   2.2731   2.2733   2.2742   2.2749   2.2757
  2.2762   2.2771   2.2781   2.2784   2.2791   2.2807   2.2811   2.2817
  2.2825   2.2830   2.2841   2.2858   2.2870   2.2876   2.2886   2.2891
  2.2893   2.2914   2.2921   2.2940   2.2956   2.2965   2.2974   2.2978
  2.2994   2.3003   2.3021   2.3035   2.3042   2.3046   2.3053   2.3079
  2.3086   2.3088   2.3101   2.3114   2.3136   2.3145   2.3162   2.3165
  2.3170   2.3196   2.3202   2.3206   2.3233   2.3252   2.3266   2.3278
  2.3302   2.3307   2.3309   2.3327   2.3343   2.3357   2.3360   2.3380
  2.3404   2.3405   2.3434   2.3441   2.3446   2.3462   2.3485   2.3508
  2.3521   2.3539   2.3542   2.3547   2.3568   2.3587   2.3592   2.3618
  2.3628   2.3640   2.3670   2.3679   2.3697   2.3711   2.3729   2.3757
  2.3764   2.3798   2.3826   2.3834   2.3850   2.3911   2.3953   2.3962
  2.4034   2.4052   2.4136   2.4183   2.4271   2.4345   2.4581   2.4723
  2.4769   2.5141   2.5506   2.5808   2.6904   2.7293   2.7541   2.7930
  2.8030   2.8083   2.8182   2.8210   2.8255   2.8327   2.8373   2.8396
  2.8406   2.8414   2.8425   2.8432   2.8457   2.8468   2.8499   2.8519
  2.8528   2.8572   2.8601   2.8612   2.8653   2.8683   2.8686   2.8718
  2.8761   2.8796   2.8829   2.8843   2.8874   2.8898   2.9003   2.9145
  2.9466   3.1101   3.2836   3.9393   3.9515   3.9605   3.9616   3.9656
  3.9690   3.9698   3.9736   3.9779   3.9798   3.9818   3.9827   3.9859
  3.9867   3.9877   3.9908   3.9942   3.9946   3.9994   4.0038   4.0058
  4.0098   4.0132   4.0164   4.0229   4.0284   4.0369   4.0424   4.1974
  4.2067   4.2091   4.2128   4.2225   4.2282   4.2310   4.2453   4.2465
  4.2536   4.2566   4.2588   4.2612   4.2650   4.2668   4.2698   4.2731
  4.2746   4.2754   4.2774   4.2788   4.2800   4.2819   4.2846   4.2884
  4.2887   4.2905   4.2944   4.2969   4.2996   4.3003   4.3020   4.3056
  4.3071   4.3105   4.3126   4.3153   4.3172   4.3188   4.3196   4.3210
  4.3243   4.3262   4.3279   4.3283   4.3321   4.3373   4.3394   4.3412
  4.3421   4.3462   4.3491   4.3504   4.3550   4.3598   4.3614   4.3683
  4.3704   4.3783   4.3835   4.3837   4.3876   4.3935   4.3947   4.3985
  4.4008   4.4055   4.4062   4.4182   4.4209   4.4297   4.4356   4.4421
  4.4572   4.4629   4.4700   4.4752   4.4818   4.4877   4.4922   4.5080
  4.5175   4.5236   4.5273   4.5509   4.5733   4.5944   4.6388   4.6681
  4.7070   4.7560   4.7853   4.9158
 --------------------------------------------------------------
 
          Ground-State Mulliken Net Atomic Charges

     Atom                 Charge (a.u.)
  ----------------------------------------
      1 C                    -0.250069
      2 C                    -0.163872
      3 C                    -0.469403
      4 C                    -0.430750
      5 C                    -0.319864
      6 C                    -0.648346
      7 H                     0.227203
      8 H                     0.224624
      9 H                     0.201075
     10 H                     0.204753
     11 H                     0.197589
     12 H                     0.205713
     13 H                     0.178016
     14 H                     0.168332
     15 H                     0.234776
     16 H                     0.226077
     17 H                     0.218028
     18 N                    -0.463836
     19 H                     0.502239
     20 C                     0.279134
     21 H                     0.174646
     22 O                    -0.496065
     23 C                    -1.037541
     24 H                     0.290791
     25 H                     0.272425
     26 H                     0.273842
     27 S                     1.086479
     28 C                    -0.992625
     29 H                     0.320596
     30 H                     0.227996
     31 H                     0.235455
     32 O                    -0.694354
     33 C                    -1.174220
     34 H                     0.283507
     35 H                     0.259724
     36 H                     0.253754
     37 S                     1.471343
     38 C                    -1.242685
     39 H                     0.274869
     40 H                     0.280008
     41 H                     0.253045
     42 O                    -0.677048
     43 C                    -0.845939
     44 H                     0.249979
     45 H                     0.270359
     46 H                     0.271533
     47 S                     1.063425
     48 C                    -1.070430
     49 H                     0.246585
     50 H                     0.260677
     51 H                     0.265626
     52 O                    -0.616786
     53 C                    -0.797586
     54 H                     0.236359
     55 H                     0.242091
     56 H                     0.241036
     57 S                     0.977344
     58 C                    -0.859582
     59 H                     0.262115
     60 H                     0.233066
     61 H                     0.262214
     62 O                    -0.722374
     63 C                    -1.056985
     64 H                     0.258166
     65 H                     0.258791
     66 H                     0.237056
     67 S                     1.298374
     68 C                    -1.080543
     69 H                     0.231609
     70 H                     0.254858
     71 H                     0.307172
     72 O                    -0.712660
     73 C                    -0.722832
     74 H                     0.246338
     75 H                     0.290837
     76 H                     0.275293
     77 S                     0.553639
     78 C                    -0.708333
     79 H                     0.292166
     80 H                     0.233739
     81 H                     0.255006
     82 O                    -0.750828
     83 C                    -0.933862
     84 H                     0.247806
     85 H                     0.273386
     86 H                     0.248590
     87 S                     0.898719
     88 C                    -0.860059
     89 H                     0.285394
     90 H                     0.234632
     91 H                     0.267150
     92 O                    -0.663219
     93 C                    -0.667637
     94 H                     0.242745
     95 H                     0.262545
     96 H                     0.249922
     97 S                     0.521153
     98 C                    -0.805697
     99 H                     0.277141
    100 H                     0.259359
    101 H                     0.245790
    102 O                    -0.541914
    103 C                    -0.808688
    104 H                     0.250373
    105 H                     0.251461
    106 H                     0.267797
    107 S                     0.860358
    108 C                    -0.880838
    109 H                     0.242157
    110 H                     0.237857
    111 H                     0.245833
    112 O                    -0.713656
    113 C                    -0.996222
    114 H                     0.285092
    115 H                     0.263707
    116 H                     0.269394
    117 S                     1.059826
    118 C                    -0.950703
    119 H                     0.257055
    120 H                     0.237105
    121 H                     0.267507
    122 O                    -0.680054
    123 C                    -0.789664
    124 H                     0.229910
    125 H                     0.253477
    126 H                     0.257915
    127 S                     0.932036
    128 C                    -0.916022
    129 H                     0.237831
    130 H                     0.262528
    131 H                     0.260532
    132 O                    -0.716079
    133 C                    -0.883944
    134 H                     0.241878
    135 H                     0.266637
    136 H                     0.245022
    137 S                     0.990665
    138 C                    -0.905998
    139 H                     0.239702
    140 H                     0.262824
    141 H                     0.293337
    142 O                    -0.733161
    143 C                    -0.891423
    144 H                     0.250836
    145 H                     0.259260
    146 H                     0.261423
    147 S                     1.028341
    148 C                    -0.872638
    149 H                     0.232631
    150 H                     0.260106
    151 H                     0.249369
    152 O                    -0.733459
    153 C                    -0.749978
    154 H                     0.290736
    155 H                     0.232462
    156 H                     0.271593
    157 S                     0.632492
    158 C                    -0.834503
    159 H                     0.263146
    160 H                     0.256679
    161 H                     0.242563
    162 O                    -0.660989
    163 C                    -0.877046
    164 H                     0.234954
    165 H                     0.273131
    166 H                     0.267353
    167 S                     0.834539
    168 C                    -0.779128
    169 H                     0.253588
    170 H                     0.241732
    171 H                     0.252471
    172 O                    -0.702844
    173 C                    -1.070806
    174 H                     0.283807
    175 H                     0.276005
    176 H                     0.287161
    177 S                     1.259629
    178 C                    -0.947744
    179 H                     0.237343
    180 H                     0.250085
    181 H                     0.246907
    182 O                    -0.683827
    183 C                    -0.868823
    184 H                     0.254318
    185 H                     0.280616
    186 H                     0.251169
    187 S                     0.692306
    188 C                    -0.925639
    189 H                     0.262971
    190 H                     0.278669
    191 H                     0.244046
    192 O                    -0.527477
    193 C                    -0.761462
    194 H                     0.218247
    195 H                     0.240962
    196 H                     0.284034
    197 S                     0.890780
    198 C                    -0.927675
    199 H                     0.248769
    200 H                     0.320116
    201 H                     0.214653
    202 O                    -0.683233
    203 C                    -0.726720
    204 H                     0.256533
    205 H                     0.272324
    206 H                     0.271998
    207 S                     0.781968
    208 C                    -0.840180
    209 H                     0.262698
    210 H                     0.239721
    211 H                     0.233464
    212 O                    -0.713634
    213 C                    -0.859279
    214 H                     0.275286
    215 H                     0.249763
    216 H                     0.282616
    217 S                     0.768808
    218 C                    -0.865018
    219 H                     0.265186
    220 H                     0.238333
    221 H                     0.273775
    222 O                    -0.594802
    223 C                    -0.748767
    224 H                     0.260110
    225 H                     0.271459
    226 H                     0.267821
    227 S                     0.645959
    228 C                    -0.892350
    229 H                     0.276089
    230 H                     0.262928
    231 H                     0.257731
    232 O                    -0.620921
    233 C                    -0.639329
    234 H                     0.304826
    235 H                     0.206101
    236 H                     0.265114
    237 S                     0.390742
    238 C                    -0.628973
    239 H                     0.271560
    240 H                     0.215082
    241 H                     0.221951
    242 O                    -0.668446
    243 C                    -0.919583
    244 H                     0.269187
    245 H                     0.275343
    246 H                     0.266080
    247 S                     0.927301
    248 C                    -0.960105
    249 H                     0.296945
    250 H                     0.272923
    251 H                     0.252861
    252 O                    -0.695554
    253 C                    -1.072092
    254 H                     0.307989
    255 H                     0.260325
    256 H                     0.236568
    257 S                     1.167386
    258 C                    -1.138202
    259 H                     0.264453
    260 H                     0.301548
    261 H                     0.257949
    262 O                    -0.647792
    263 C                    -0.865496
    264 H                     0.240506
    265 H                     0.244082
    266 H                     0.258019
    267 S                     1.094709
    268 C                    -1.051106
    269 H                     0.249045
    270 H                     0.248936
    271 H                     0.272396
    272 O                    -0.729142
    273 C                    -0.903011
    274 H                     0.248629
    275 H                     0.245157
    276 H                     0.230394
    277 S                     0.985095
    278 C                    -0.863808
    279 H                     0.272955
    280 H                     0.252285
    281 H                     0.251053
    282 O                    -0.734463
    283 C                    -0.870699
    284 H                     0.286202
    285 H                     0.251955
    286 H                     0.266648
    287 S                     0.808988
    288 C                    -0.796661
    289 H                     0.268048
    290 H                     0.227682
    291 H                     0.274733
    292 O                    -0.676703
    293 C                    -1.725699
    294 H                     0.309326
    295 H                     0.292706
    296 H                     0.224028
    297 S                     1.724591
    298 C                    -1.015156
    299 H                     0.293580
    300 H                     0.276009
    301 H                     0.321044
    302 O                    -0.847887
  ----------------------------------------
  Sum of atomic charges =     0.000000

 -----------------------------------------------------------------
                    Cartesian Multipole Moments
 -----------------------------------------------------------------
    Charge (ESU x 10^10)
                -0.0000
    Dipole Moment (Debye)
         X      15.7758      Y      22.3808      Z       3.0693
       Tot      27.5535
    Quadrupole Moments (Debye-Ang)
        XX    -305.9054     XY     867.6676     YY    -435.6314
        XZ     621.0927     YZ     759.0941     ZZ    -708.6002
    Octopole Moments (Debye-Ang^2)
       XXX  -40084.0615    XXY   11222.5644    XYY    -584.1626
       YYY  -37640.2531    XXZ   -1026.8380    XYZ   29455.6858
       YYZ   -8034.1687    XZZ    4086.5532    YZZ   10193.0515
       ZZZ  -66698.9451
    Hexadecapole Moments (Debye-Ang^3)
      XXXX ************   XXXY -224583.7939   XXYY -116226.5418
      XYYY -612725.6257   YYYY ************   XXXZ -851220.7988
      XXYZ  492209.9452   XYYZ  122399.8340   YYYZ -943178.2008
      XXZZ -234401.7152   XYZZ  663459.6493   YYZZ -391618.8142
      XZZZ -770371.9402   YZZZ -437692.0564   ZZZZ ************
 -----------------------------------------------------------------
Archival summary:
[...]
    1  -0.0166991  -0.0938264   0.0030513  -0.0250154   0.0114936   0.0152181
    2   0.0268647   0.0219547   0.0026718   0.0153595   0.0272850  -0.0104500
    3   0.0014113   0.0553101  -0.0096647  -0.0089195   0.0093503  -0.0289522
          157         158         159         160         161         162
    1  -0.0296131   0.0060747  -0.0040255   0.0212231   0.0180094  -0.0555552
    2   0.0334781  -0.0052665  -0.0224391  -0.0098750   0.0215123  -0.0711127
    3   0.0458182  -0.0019642   0.0231915  -0.0226182   0.0135101  -0.0622555
          163         164         165         166         167         168
    1   0.0059780   0.0292121  -0.0036090   0.0016013  -0.0495979   0.0058492
    2   0.0066117  -0.0112035   0.0133146   0.0311928   0.0323162  -0.0039536
    3  -0.0045115  -0.0033443  -0.0265168   0.0111329   0.0134812   0.0032646
          169         170         171         172         173         174
    1  -0.0151409   0.0264996   0.0064441  -0.0031926  -0.0091964  -0.0230939
    2  -0.0196505  -0.0174017   0.0214389  -0.0868168  -0.0019582   0.0022965
    3   0.0190432  -0.0006541   0.0253149  -0.0662200   0.0090655  -0.0222476
          175         176         177         178         179         180
    1   0.0087432  -0.0067051   0.0233996   0.0005714   0.0134942   0.0289564
    2  -0.0325300   0.0196204  -0.0493142   0.0034568  -0.0203350   0.0034905
    3   0.0054615   0.0246627  -0.0275564   0.0023981   0.0256457  -0.0082462
          181         182         183         184         185         186
    1  -0.0118343  -0.0418804   0.0070567   0.0156501   0.0069638   0.0203073
    2   0.0282850   0.0815899   0.0023732   0.0099162   0.0184376  -0.0173458
    3   0.0051234  -0.0604509   0.0047445  -0.0255343   0.0254650   0.0193537
          187         188         189         190         191         192
    1  -0.0056569  -0.0049984  -0.0230180   0.0012275   0.0094307  -0.0547632
    2  -0.0491510   0.0105312   0.0087185   0.0287629  -0.0095196   0.0200800
    3  -0.0308429  -0.0044526  -0.0040543   0.0204912  -0.0325756   0.0938389
          193         194         195         196         197         198
    1  -0.0059598  -0.0085229  -0.0005254  -0.0257865   0.0087953   0.0016430
    2  -0.0013299   0.0106438  -0.0304529   0.0054127  -0.0106915   0.0089746
    3  -0.0026463  -0.0285010  -0.0113044   0.0195603   0.0539649  -0.0023401
          199         200         201         202         203         204
    1  -0.0207793   0.0320712  -0.0103621   0.0742037  -0.0012829   0.0251715
    2   0.0207885   0.0216584  -0.0018766  -0.0075553  -0.0057923  -0.0181090
    3   0.0200635   0.0060477  -0.0272763  -0.0804408   0.0059630  -0.0041005
          205         206         207         208         209         210
    1  -0.0101882  -0.0301765  -0.0502041   0.0028985   0.0226515  -0.0240219
    2   0.0104491  -0.0146340   0.0242004  -0.0035901  -0.0201876  -0.0134100
    3   0.0291210   0.0124644  -0.0046621  -0.0046152   0.0153022  -0.0197498
          211         212         213         214         215         216
    1   0.0075815   0.0907405  -0.0020618  -0.0252895   0.0008144   0.0226402
    2   0.0208914   0.0507766   0.0091547   0.0096461   0.0224527  -0.0054680
    3  -0.0241669   0.0322468  -0.0070683  -0.0224165   0.0254538  -0.0178258
          217         218         219         220         221         222
    1  -0.0487806   0.0039668   0.0233767   0.0023620   0.0021145  -0.0155751
    2   0.0138310  -0.0056032  -0.0087371   0.0151035  -0.0308353  -0.0725497
    3   0.0395787   0.0018110  -0.0121790   0.0283071   0.0113304  -0.0820514
          223         224         225         226         227         228
    1   0.0071300  -0.0200184   0.0224507   0.0266610  -0.0338312  -0.0031004
    2   0.0018185   0.0122930   0.0166547  -0.0272778  -0.0438253   0.0104728
    3  -0.0088293  -0.0285018   0.0142746  -0.0008894  -0.0150768   0.0016248
          229         230         231         232         233         234
    1  -0.0262101   0.0272158  -0.0207460   0.0681168  -0.0006128   0.0202752
    2  -0.0022201   0.0207803   0.0009380  -0.0015896  -0.0069044  -0.0184258
    3   0.0219659   0.0010245  -0.0253539   0.0850253  -0.0066000  -0.0309743
          235         236         237         238         239         240
    1   0.0218855  -0.0204810   0.0484880  -0.0058528  -0.0256867   0.0167740
    2  -0.0182508  -0.0231143   0.0303193  -0.0038924  -0.0187246  -0.0185820
    3   0.0127391   0.0052758   0.0100595   0.0045870  -0.0082492   0.0184024
          241         242         243         244         245         246
    1  -0.0105935  -0.0738686   0.0049702  -0.0229455   0.0221366   0.0128116
    2   0.0287547   0.0301916  -0.0003530  -0.0075878  -0.0248163   0.0183496
    3   0.0006505  -0.0763552   0.0081467   0.0155373   0.0094534   0.0223623
          247         248         249         250         251         252
    1   0.0095163   0.0076199  -0.0062820   0.0320993  -0.0081214  -0.0975683
    2  -0.0468225   0.0085799   0.0231686  -0.0130825   0.0107040   0.0508019
    3  -0.0328444   0.0006486   0.0251246   0.0011476  -0.0288482   0.0023407
          253         254         255         256         257         258
    1   0.0015807   0.0080641  -0.0284710   0.0185088   0.0532198  -0.0033988
    2   0.0105284   0.0239434   0.0103707   0.0032337  -0.0237839  -0.0013562
    3   0.0004831  -0.0240213   0.0042644   0.0264931  -0.0016250  -0.0075848
          259         260         261         262         263         264
    1   0.0233071  -0.0184833  -0.0131716  -0.0850634   0.0032787  -0.0197067
    2   0.0016554  -0.0218665   0.0246552  -0.0430771   0.0107941   0.0249707
    3  -0.0258808  -0.0168122  -0.0029595   0.0534464  -0.0020296   0.0115830
          265         266         267         268         269         270
    1   0.0281792   0.0038771  -0.0443602  -0.0029038  -0.0112914   0.0343666
    2  -0.0185400   0.0181865   0.0155952   0.0024543  -0.0246149  -0.0035334
    3   0.0111712  -0.0252649  -0.0218255   0.0102846   0.0025861   0.0057885
          271         272         273         274         275         276
    1  -0.0208641   0.0673792   0.0016288  -0.0093395   0.0310239  -0.0068626
    2   0.0263304  -0.0820174  -0.0018389  -0.0304109  -0.0086322   0.0198602
    3   0.0175536  -0.0330720   0.0059264  -0.0020475  -0.0069679   0.0297140
          277         278         279         280         281         282
    1   0.0138056  -0.0083002  -0.0049569  -0.0079176   0.0006818   0.0278721
    2   0.0520364  -0.0017934   0.0229924  -0.0034534  -0.0341338  -0.0767094
    3  -0.0056708   0.0016501   0.0237871  -0.0342464   0.0021238  -0.0760698
          283         284         285         286         287         288
    1  -0.0041655   0.0059340  -0.0334306   0.0181857  -0.0348938  -0.0004834
    2  -0.0070473   0.0124279  -0.0154681  -0.0215448   0.0403687  -0.0056423
    3   0.0033846   0.0278329  -0.0003501  -0.0184583   0.0090957  -0.0065726
          289         290         291         292         293         294
    1  -0.0318398   0.0188033   0.0192379   0.1074228   0.0025441   0.0150178
    2  -0.0194814   0.0179800  -0.0238706  -0.0006080  -0.0002645   0.0243434
    3   0.0020764  -0.0250345  -0.0041422   0.0221038   0.0106415   0.0167701
          295         296         297         298         299         300
    1   0.0046282   0.0189837  -0.0161703   0.0022623   0.0154346  -0.0276773
    2  -0.0250896  -0.0043615  -0.0247775   0.0117133   0.0002176   0.0132507
    3   0.0193156  -0.0156107  -0.0384839   0.0035292  -0.0245404  -0.0044777
          301         302
    1   0.0193810  -0.0166323
    2   0.0033681  -0.0115352
    3   0.0316655   0.1184271
  --- DONE ESP SUMMARY ---
Archival summary:
1\1\n0073.mhg0\SP\ProcedureUnspecified\6-31+G*\282856h22\ymao\FriMar1216:33:542021FriMar1216:33:542021\0\\#,ProcedureUnspecified,6-31+G*,\\0,1\S\O,1,1.49719\Gh,2,1.78801,1,120.961\Gh,3,1.01377,2,161.379,1,-166.374,0\Gh,4,1.37861,3,120.014,2,74.6836,0\Gh,5,1.10456,4,116.953,3,8.0059,0\Gh,5,1.21874,4,122.944,3,177.492,0\Gh,4,1.46154,3,113.129,2,-102.241,0\Gh,8,1.09671,4,106.19,3,-148.377,0\Gh,8,1.53705,4,107.126,3,93.3902,0\Gh,10,1.09676,8,110.3,4,63.0448,0\Gh,10,1.09716,8,108.703,4,-57.1415,0\Gh,10,1.53683,8,111.632,4,-175.712,0\Gh,13,1.09713,10,110.247,8,171.733,0\Gh,13,1.09718,10,112.611,8,-71.8086,0\Gh,13,1.53795,10,112.59,8,46.9768,0\Gh,16,1.0965,13,106.242,10,-169.586,0\Gh,16,1.0966,13,109.567,10,67.0136,0\Gh,16,1.538,13,116.114,10,-48.1166,0\Gh,19,1.09688,16,106.736,13,-64.2073,0\Gh,19,1.0969,16,102.751,13,176.499,0\Gh,19,1.53726,16,108.523,13,51.8678,0\Gh,22,1.09654,19,115.441,16,70.7447,0\Gh,22,1.09669,19,104.75,16,-172.06,0\C,1,1.80701,2,99.9583,3,1.16061,0\H,25,1.09275,1,105.147,2,-68.7988,0\H,25,1.09283,1,107.516,2,164.289,0\H,25,1.0933,1,101.314,2,45.9087,0\C,1,1.80748,2,104.249,3,-97.79,0\H,29,1.09266,1,113.366,2,35.435,0\H,29,1.09282,1,112.495,2,158.473,0\H,29,1.09314,1,108.928,2,-80.1203,0\H,27,2.15163,25,152.21,1,-38.0169,0\C,33,1.09307,27,101.817,25,164.354,0\H,34,1.09253,33,107.525,27,16.3759,0\H,34,1.09296,33,110.768,27,144.499,0\S,34,1.80714,33,108.87,27,-98.3981,0\O,37,1.4975,34,105.646,33,51.7794,0\C,37,1.80673,34,93.8633,33,-55.676,0\H,39,1.0927,37,105.582,34,-45.4838,0\H,39,1.09321,37,110.306,34,-171.562,0\H,39,1.09367,37,97.1674,34,71.2346,0\H,18,2.27913,16,143.07,13,-173.582,0\C,43,1.09233,18,139.167,16,13.9582,0\H,44,1.09259,43,110.999,18,57.678,0\H,44,1.09361,43,118.268,18,178.44,0\S,44,1.80699,43,105.134,18,-66.887,0\O,47,1.49691,44,100.258,43,-80.8007,0\C,47,1.80744,44,91.126,43,171.33,0\H,49,1.09233,47,114.072,44,-66.0996,0\H,49,1.09285,47,110.193,44,52.0802,0\H,49,1.09321,47,110.412,44,174.038,0\H,46,2.26748,44,170.289,43,126.388,0\C,53,1.09342,46,102.529,44,164.096,0\H,54,1.09279,53,105.803,46,-155.71,0\H,54,1.09334,53,111.802,46,75.4366,0\S,54,1.80754,53,110.778,46,-41.106,0\O,57,1.49724,54,99.9871,53,-49.377,0\C,57,1.80766,54,104.342,53,-162.511,0\H,59,1.09268,57,103.977,54,-62.1068,0\H,59,1.09291,57,99.1316,54,176.575,0\H,59,1.09324,57,101.546,54,60.9459,0\H,56,2.18905,54,98.1593,53,34.3251,0\C,63,1.09281,56,138.354,54,-95.234,0\H,64,1.09328,63,111.443,56,43.188,0\H,64,1.09333,63,99.4343,56,164.464,0\S,64,1.80699,63,106.209,56,-80.6737,0\O,67,1.49719,64,100.593,63,-70.4091,0\C,67,1.80697,64,97.5948,63,-175.549,0\H,69,1.09229,67,105.595,64,173.38,0\H,69,1.0925,67,109.181,64,-57.8189,0\H,69,1.09349,67,109.565,64,60.1743,0\H,35,2.28207,34,123.235,33,57.2009,0\C,73,1.09237,35,123.739,34,148.827,0\H,74,1.0926,73,114.815,35,-127.484,0\H,74,1.09316,73,106.152,35,-4.94914,0\S,74,1.80771,73,118.987,35,106.912,0\O,77,1.49725,74,102.506,73,171.117,0\C,77,1.80682,74,101.767,73,71.0088,0\H,79,1.09268,77,111.556,74,49.9531,0\H,79,1.09313,77,109.683,74,164.399,0\H,79,1.09358,77,105.909,74,-71.3862,0\H,58,2.29919,57,92.1978,54,179.303,0\C,83,1.09304,58,123.953,57,-149.122,0\H,84,1.09261,83,109.071,58,1.06849,0\H,84,1.09304,83,111.336,58,-110.336,0\S,84,1.8069,83,112.401,58,125.514,0\O,87,1.49715,84,105.913,83,-60.1027,0\C,87,1.80762,84,94.0038,83,-167.813,0\H,89,1.09277,87,114.848,84,-41.847,0\H,89,1.093,87,104.712,84,77.9533,0\H,89,1.09324,87,105.008,84,-160.246,0\O,52,2.38365,49,116.763,47,85.0366,0\S,93,1.49731,52,161.74,49,-64.3354,0\C,94,1.8066,93,109.124,52,92.9991,0\H,95,1.09236,94,104.737,93,173.842,0\H,95,1.09279,94,99.1673,93,52.3112,0\H,95,1.09351,94,111.197,93,-61.9745,0\C,94,1.80676,93,104.583,52,-10.2029,0\H,99,1.09327,94,108.337,93,50.7441,0\H,99,1.09328,94,112.67,93,170.152,0\H,99,1.09337,94,113.352,93,-70.3393,0\H,102,2.02999,99,136.053,94,-150.553,0\C,103,1.09339,102,137.615,99,55.9886,0\H,104,1.09303,103,108.642,102,-36.3616,0\H,104,1.09344,103,108.635,102,92.4285,0\S,104,1.8074,103,102.461,102,-145.483,0\O,107,1.49662,104,99.8544,103,68.9123,0\C,107,1.80716,104,100.087,103,172.665,0\H,109,1.09262,107,110.528,104,161.653,0\H,109,1.09314,107,100.4,104,-83.5411,0\H,109,1.09316,107,111.452,104,44.8949,0\H,101,2.21231,99,158.493,94,62.4659,0\C,113,1.0936,101,112.603,99,-99.4167,0\H,114,1.0926,113,108.096,101,38.5144,0\H,114,1.09273,113,111.786,101,160.966,0\S,114,1.80706,113,113.66,101,-78.7061,0\O,117,1.49688,114,105.604,113,76.5452,0\C,117,1.80675,114,96.6851,113,-170.201,0\H,119,1.0927,117,120.183,114,-179.724,0\H,119,1.09282,117,102.768,114,66.2631,0\H,119,1.09352,117,105.488,114,-50.0563,0\H,96,2.25683,95,120.481,94,-137.151,0\C,123,1.0928,96,146.999,95,-60.0084,0\H,124,1.09237,123,108.629,96,-73.1547,0\H,124,1.09366,123,111.373,96,157.028,0\S,124,1.80622,123,109.181,96,38.6332,0\O,127,1.49759,124,107.283,123,37.984,0\C,127,1.80724,124,97.3218,123,-69.3286,0\H,129,1.09288,127,112.532,124,-87.9655,0\H,129,1.09295,127,109.977,124,33.2779,0\H,129,1.09319,127,112.6,124,155.341,0\H,130,2.38803,129,107.625,127,155.988,0\C,133,1.09359,130,148.637,129,-159.209,0\H,134,1.09237,133,107.089,130,161.046,0\H,134,1.09261,133,106.843,130,46.8002,0\S,134,1.8078,133,108.177,130,-83.2094,0\O,137,1.49631,134,107.019,133,83.7301,0\C,137,1.80685,134,93.7786,133,-173.745,0\H,139,1.09302,137,110.1,134,-176.236,0\H,139,1.09302,137,105.368,134,69.0517,0\H,139,1.09372,137,117.835,134,-49.8446,0\H,135,2.27322,134,127.766,133,-131.401,0\C,143,1.09344,135,140.601,134,-158.602,0\H,144,1.09285,143,105.927,135,98.6215,0\H,144,1.09343,143,113.356,135,-139.545,0\S,144,1.8075,143,106.708,135,-13.5562,0\O,147,1.49722,144,109.603,143,46.6941,0\C,147,1.80706,144,100.62,143,-57.6319,0\H,149,1.0921,147,108.272,144,175.201,0\H,149,1.0932,147,111.603,144,-61.0764,0\H,149,1.09349,147,103.505,144,60.1311,0\H,15,2.40172,13,124.601,10,-72.0098,0\C,153,1.09343,15,126.869,13,100.45,0\H,154,1.09277,153,108.792,15,-37.5751,0\H,154,1.09343,153,101.215,15,81.9067,0\S,154,1.80681,153,114.438,15,-158.085,0\O,157,1.49674,154,103.887,153,-155.759,0\C,157,1.80723,154,87.9407,153,-56.1086,0\H,159,1.0929,157,115.379,154,-76.6522,0\H,159,1.09298,157,98.1943,154,165.91,0\H,159,1.09366,157,114.895,154,55.4622,0\H,140,2.42286,139,149.212,137,-135.429,0\C,163,1.09321,140,126.142,139,143.827,0\H,164,1.09258,163,109.747,140,-65.5971,0\H,164,1.09266,163,113.319,140,179.9,0\S,164,1.80805,163,113.389,140,48.4692,0\O,167,1.49679,164,96.7397,163,152.313,0\C,167,1.80696,164,96.6663,163,39.4638,0\H,169,1.09237,167,109.988,164,161.233,0\H,169,1.09261,167,109.269,164,39.3688,0\H,169,1.09342,167,108.389,164,-82.4186,0\H,165,2.33868,164,129.932,163,-176.59,0\C,173,1.09262,165,102.223,164,74.534,0\H,174,1.09291,173,111.921,165,17.6507,0\H,174,1.09372,173,110.57,165,-107.941,0\S,174,1.80667,173,103.125,165,140.416,0\O,177,1.49651,174,105.047,173,60.4903,0\C,177,1.8076,174,96.3878,173,-48.7358,0\H,179,1.09259,177,114.534,174,54.5437,0\H,179,1.09273,177,111.863,174,-75.4941,0\H,179,1.09342,177,107.333,174,172.595,0\H,178,2.26094,177,135.959,174,-13.1501,0\C,183,1.09264,178,147.925,177,66.851,0\H,184,1.09324,183,103.307,178,-33.0589,0\H,184,1.09354,183,109.257,178,94.7206,0\S,184,1.80666,183,103.821,178,-149.306,0\O,187,1.49749,184,101.925,183,169.922,0\C,187,1.80735,184,93.3778,183,57.6027,0\H,189,1.09305,187,107.076,184,42.3089,0\H,189,1.09313,187,106.048,184,156.526,0\H,189,1.09314,187,103.438,184,-77.9066,0\H,32,2.42621,29,137.655,1,-59.6428,0\C,193,1.09296,32,119.573,29,9.04857,0\H,194,1.09286,193,107.102,32,-16.2578,0\H,194,1.09302,193,106.258,32,-129.516,0\S,194,1.80687,193,114.439,32,110.894,0\O,197,1.4971,194,104.591,193,52.9352,0\C,197,1.80711,194,97.5267,193,-55.6347,0\H,199,1.09269,197,106.027,194,-92.1052,0\H,199,1.09297,197,107.009,194,25.0793,0\H,199,1.09339,197,107.766,194,146.991,0\H,201,2.18626,199,98.8319,197,73.344,0\C,203,1.09276,201,109.91,199,144.218,0\H,204,1.09298,203,111.82,201,-20.4213,0\H,204,1.09317,203,111.433,201,-134.2,0\S,204,1.8072,203,110.611,201,108.205,0\O,207,1.49735,204,104.578,203,-65.0276,0\C,207,1.80607,204,93.7894,203,35.9806,0\H,209,1.09307,207,105.801,204,-54.5177,0\H,209,1.09353,207,104.265,204,64.9266,0\H,209,1.09396,207,115.609,204,-168.61,0\H,202,2.27032,199,98.3938,197,154.806,0\C,213,1.09288,202,152.838,199,94.8794,0\H,214,1.093,213,109.236,202,58.9441,0\H,214,1.09322,213,103.118,202,-68.6545,0\S,214,1.80629,213,110.185,202,174.939,0\O,217,1.49706,214,97.2493,213,60.0975,0\C,217,1.80703,214,94.7954,213,-44.1769,0\H,219,1.09279,217,105.595,214,43.9005,0\H,219,1.0933,217,103.036,214,160.95,0\H,219,1.09397,217,111.601,214,-79.8758,0\H,70,2.43271,69,110.184,67,83.3822,0\C,223,1.09295,70,120.794,69,-125.028,0\H,224,1.09243,223,101.312,70,-90.8781,0\H,224,1.09341,223,107.679,70,28.2261,0\S,224,1.80667,223,112.78,70,151.751,0\O,227,1.49778,224,108.959,223,47.8132,0\C,227,1.80716,224,95.7253,223,-54.7961,0\H,229,1.09253,227,116,224,-55.4093,0\H,229,1.09273,227,110.302,224,65.4386,0\H,229,1.09277,227,108.511,224,-168.837,0\H,14,2.44913,13,137.361,10,143.257,0\C,233,1.09356,14,116.859,13,49.4751,0\H,234,1.0928,233,109.833,14,-19.6747,0\H,234,1.09302,233,109.872,14,104.824,0\S,234,1.80687,233,104.901,14,-131.494,0\O,237,1.49763,234,105.763,233,-41.6284,0\C,237,1.8073,234,95.3256,233,-151.629,0\H,239,1.09313,237,109.274,234,-42.0124,0\H,239,1.09323,237,107.598,234,-157.006,0\H,239,1.09323,237,110.439,234,85.4441,0\H,236,1.99972,234,101.606,233,45.978,0\C,243,1.09311,236,143.577,234,149.259,0\H,244,1.09278,243,115.24,236,-74.6722,0\H,244,1.093,243,102.795,236,171.304,0\S,244,1.80673,243,111.023,236,55.7276,0\O,247,1.49673,244,104.767,243,171.238,0\C,247,1.80748,244,91.743,243,-91.7155,0\H,249,1.09255,247,107.689,244,-165.562,0\H,249,1.09287,247,103.256,244,-44.587,0\H,249,1.09363,247,115.66,244,74.4021,0\H,236,2.2739,234,115.412,233,-89.6261,0\C,253,1.09327,236,137.575,234,-119.155,0\H,254,1.09254,253,118.245,236,157.6,0\H,254,1.09279,253,108.133,236,-75.3021,0\S,254,1.80767,253,102.682,236,39.0187,0\O,257,1.49619,254,103.17,253,-81.356,0\C,257,1.80677,254,93.9558,253,169.333,0\H,259,1.0927,257,107.524,254,139.285,0\H,259,1.09297,257,109.97,254,20.9907,0\H,259,1.09346,257,107.41,254,-101.094,0\H,228,2.49889,227,96.5664,224,141.768,0\C,263,1.09319,228,115.729,227,-157.935,0\H,264,1.09296,263,109.983,228,-100.905,0\H,264,1.0931,263,111.03,228,20.2093,0\S,264,1.80733,263,108.462,228,139.64,0\O,267,1.49682,264,106.95,263,56.8107,0\C,267,1.80664,264,98.7169,263,165.934,0\H,269,1.09223,267,102.797,264,-60.5154,0\H,269,1.09317,267,108.915,264,58.3334,0\H,269,1.09322,267,106.122,264,-176.557,0\O,73,2.53606,35,106.598,34,-37.4064,0\S,273,1.49696,73,140.927,35,16.3846,0\C,274,1.80701,273,102.479,73,64.9173,0\H,275,1.09258,274,103.866,273,-55.8618,0\H,275,1.09325,274,108.54,273,-176.934,0\H,275,1.09338,274,117.348,273,58.5924,0\C,274,1.80704,273,100.828,73,167.358,0\H,279,1.09298,274,103.179,273,51.0334,0\H,279,1.09306,274,107.954,273,176.761,0\H,279,1.09329,274,109.469,273,-62.3131,0\H,80,2.5655,79,113.296,77,-178.168,0\C,283,1.0927,80,118.709,79,-90.7504,0\H,284,1.0929,283,110.012,80,-168.255,0\H,284,1.09315,283,101.784,80,78.5985,0\S,284,1.80682,283,109.541,80,-42.018,0\O,287,1.49676,284,100.812,283,-63.5086,0\C,287,1.8069,284,96.4416,283,-165.91,0\H,289,1.09247,287,109.596,284,169.684,0\H,289,1.0927,287,105.822,284,-77.3131,0\H,289,1.09297,287,113.27,284,41.9708,0\H,268,2.61297,267,119.427,264,-156.054,0\C,293,1.09323,268,111.796,267,145.398,0\H,294,1.09276,293,116.019,268,-161.676,0\H,294,1.09311,293,110.665,268,81.4053,0\S,294,1.80682,293,112.331,268,-29.6795,0\O,297,1.49747,294,101.116,293,-170.901,0\C,297,1.80671,294,101.215,293,-61.819,0\H,299,1.0926,297,113.953,294,-45.5541,0\H,299,1.09267,297,103.551,294,-160.098,0\H,299,1.09363,297,110.147,294,76.4579,0\\\@

 Total job time:  79.57s(wall), 259.29s(cpu) 
 Fri Mar 12 16:33:54 2021

        *************************************************************
        *                                                           *
        *  Thank you very much for using Q-Chem.  Have a nice day.  *
        *                                                           *
        *************************************************************


