                  Welcome to Q-Chem
     A Quantum Leap Into The Future Of Chemistry


 Q-Chem 5.2 (devel), Q-Chem, Inc., Pleasanton, CA (2019)

 Yihan Shao,  Zhengting Gan,  E. Epifanovsky,  A. T. B. Gilbert,  M. Wormit,  
 J. Kussmann,  A. W. Lange,  A. Behn,  Jia Deng,  Xintian Feng,  D. Ghosh,  
 M. Goldey,  P. R. Horn,  L. D. Jacobson,  I. Kaliman,  T. Kus,  A. Landau,  
 Jie Liu,  E. I. Proynov,  R. M. Richard,  R. P. Steele,  E. J. Sundstrom,  
 H. L. Woodcock III,  P. M. Zimmerman,  D. Zuev,  B. Alam,  B. Albrecht,  
 E. Alguire,  S. A. Baeppler,  D. Barton,  Z. Benda,  Y. A. Bernard,  
 E. J. Berquist,  K. B. Bravaya,  H. Burton,  K. Carter-Fenk,  D. Casanova,  
 Chun-Min Chang,  Yunqing Chen,  A. Chien,  K. D. Closser,  M. P. Coons,  
 S. Coriani,  S. Dasgupta,  A. L. Dempwolff,  M. Diedenhofen,  Hainam Do,  
 R. G. Edgar,  Po-Tung Fang,  S. Faraji,  S. Fatehi,  Qingguo Feng,  
 J. Fosso-Tande,  J. Gayvert,  Qinghui Ge,  A. Ghysels,  G. Gidofalvi,  
 J. Gomes,  J. Gonthier,  A. Gunina,  D. Hait,  M. W. D. Hanson-Heine,  
 P. H. P. Harbach,  A. W. Hauser,  M. F. Herbst,  J. E. Herr,  
 E. G. Hohenstein,  Z. C. Holden,  Kerwin Hui,  B. C. Huynh,  T.-C. Jagau,  
 Hyunjun Ji,  B. Kaduk,  K. Khistyaev,  Jaehoon Kim,  P. Klunzinger,  K. Koh,  
 D. Kosenkov,  L. Koulias,  T. Kowalczyk,  C. M. Krauter,  A. Kunitsa,  
 Ka Un Lao,  A. Laurent,  K. V. Lawler,  Joonho Lee,  D. Lefrancois,  
 S. Lehtola,  D. S. Levine,  Yi-Pei Li,  You-Sheng Lin,  Fenglai Liu,  
 Kuan-Yu Liu,  E. Livshits,  M. Loipersberger,  A. Luenser,  P. Manohar,  
 E. Mansoor,  S. F. Manzer,  Shan-Ping Mao,  Yuezhi Mao,  N. Mardirossian,  
 A. V. Marenich,  T. Markovich,  L. A. Martinez-Martinez,  S. A. Maurer,  
 N. J. Mayhall,  S. C. McKenzie,  J.-M. Mewes,  P. Morgante,  A. F. Morrison,  
 J. W. Mullinax,  K. Nanda,  T. S. Nguyen-Beck,  R. Olivares-Amaya,  
 J. A. Parkhill,  S. K. Paul,  F. Pavosevic,  Zheng Pei,  T. M. Perrine,  
 F. Plasser,  P. Pokhilko,  S. Prager,  A. Prociuk,  E. Ramos,  B. Rana,  
 D. R. Rehn,  F. Rob,  M. Scheurer,  M. Schneider,  N. Sergueev,  
 S. M. Sharada,  S. Sharma,  D. W. Small,  T. Stauch,  C. J. Stein,  
 T. Stein,  Yu-Chuan Su,  S. P. Veccham,  Zhen Tao,  A. J. W. Thom,  
 A. Tkatchenko,  T. Tsuchimochi,  N. M. Tubman,  L. Vogt,  M. L. Vidal,  
 O. Vydrov,  M. A. Watson,  J. Wenzel,  M. de Wergifosse,  T. A. Wesolowski,  
 A. White,  J. Witte,  A. Yamada,  Jun Yang,  K. Yao,  S. Yeganeh,  
 S. R. Yost,  Zhi-Qiang You,  A. Zech,  Igor Ying Zhang,  Xing Zhang,  
 Yan Zhao,  Ying Zhu,  B. R. Brooks,  G. K. L. Chan,  C. J. Cramer,  
 M. S. Gordon,  W. J. Hehre,  A. Klamt,  M. W. Schmidt,  C. D. Sherrill,  
 D. G. Truhlar,  A. Aspuru-Guzik,  R. Baer,  A. T. Bell,  N. A. Besley,  
 Jeng-Da Chai,  A. E. DePrince, III,  R. A. DiStasio Jr.,  A. Dreuw,  
 B. D. Dunietz,  T. R. Furlani,  Chao-Ping Hsu,  Yousung Jung,  Jing Kong,  
 D. S. Lambrecht,  WanZhen Liang,  C. Ochsenfeld,  V. A. Rassolov,  
 L. V. Slipchenko,  J. E. Subotnik,  T. Van Voorhis,  J. M. Herbert,  
 A. I. Krylov,  P. M. W. Gill,  M. Head-Gordon

 Contributors to earlier versions of Q-Chem not listed above: 
 R. D. Adamson,  B. Austin,  J. Baker,  G. J. O. Beran,  K. Brandhorst,  
 S. T. Brown,  E. F. C. Byrd,  A. K. Chakraborty,  C.-L. Cheng,  
 Siu Hung Chien,  D. M. Chipman,  D. L. Crittenden,  H. Dachsel,  
 R. J. Doerksen,  A. D. Dutoi,  L. Fusti-Molnar,  W. A. Goddard III,  
 A. Golubeva-Zadorozhnaya,  S. R. Gwaltney,  G. Hawkins,  A. Heyden,  
 S. Hirata,  G. Kedziora,  F. J. Keil,  C. Kelley,  Jihan Kim,  R. A. King,  
 R. Z. Khaliullin,  P. P. Korambath,  W. Kurlancheek,  A. M. Lee,  M. S. Lee,  
 S. V. Levchenko,  Ching Yeh Lin,  D. Liotard,  R. C. Lochan,  I. Lotan,  
 P. E. Maslen,  N. Nair,  D. P. O'Neill,  D. Neuhauser,  E. Neuscamman,  
 C. M. Oana,  R. Olson,  B. Peters,  R. Peverati,  P. A. Pieniazek,  
 Y. M. Rhee,  J. Ritchie,  M. A. Rohrdanz,  E. Rosta,  N. J. Russ,  
 H. F. Schaefer III,  N. E. Schultz,  N. Shenvi,  A. C. Simmonett,  A. Sodt,  
 D. Stuck,  K. S. Thanthiriwatte,  V. Vanovschi,  Tao Wang,  A. Warshel,  
 C. F. Williams,  Q. Wu,  X. Xu,  W. Zhang

 Please cite Q-Chem as follows:
 Y. Shao et al., Mol. Phys. 113, 184-215 (2015)
 DOI: 10.1080/00268976.2014.952696

 Q-Chem 5.2.2 for Intel X86 EM64T Linux

 Parts of Q-Chem use Armadillo 9.800.1 (Horizon Scraper).
 http://arma.sourceforge.net/

 Q-Chem begins on Thu Mar 11 13:37:42 2021  

Host: n0093.mhg0
0

     Scratch files written to /local/scratch/users/ymao/r7.00_frame_0094_almo_B3LYP_dp.in20210311133739//

Checking the input file for inconsistencies... 	...done.

--------------------------------------------------------------
User input:
--------------------------------------------------------------
$molecule
0 1
--
0 1
C    24.98900   29.25000   25.74300  
C    26.01400   29.16800   26.88600  
C    26.47600   27.72200   27.12700  
C    27.07600   27.11000   25.85100  
C    26.09300   27.17800   24.67000  
C    25.43500   28.55000   24.44900  
H    27.24100   27.62800   27.90700  
H    26.83800   29.74400   26.44700  
H    24.09900   28.85500   26.24700  
H    24.78000   30.30600   25.53200  
H    28.03400   27.60400   25.64700  
H    27.35600   26.05200   25.92300  
H    26.71400   26.92800   23.80100  
H    25.24300   26.49200   24.77000  
H    26.05900   29.28700   23.92900  
H    24.56600   28.34300   23.81300  
H    25.65600   27.04700   27.40300  
N    25.44000   29.76900   28.09000  
H    25.05700   29.27700   28.88800  
C    25.31900   31.13300   28.24700  
H    25.09200   31.35800   29.30500  
O    25.56600   31.92900   27.35800  
--
0 1
C    23.47200   25.89100   22.16400  
H    22.91000   25.15200   21.58800  
H    23.67500   25.82000   23.23500  
H    23.03900   26.88400   22.01500  
S    25.08700   26.05700   21.37100  
C    24.57600   25.87900   19.64700  
H    23.85200   25.07400   19.49700  
H    24.20600   26.87700   19.39800  
H    25.46400   25.63600   19.05900  
O    25.72700   24.74600   21.70600  
C    32.51700   26.88200   23.83500  
H    32.45600   25.89200   24.29300  
H    32.94100   26.90200   22.82700  
H    33.01300   27.58800   24.50600  
S    30.85900   27.60000   23.89400  
C    30.05200   26.51700   22.69400  
H    30.63100   26.43900   21.77000  
H    29.89200   25.51600   23.10200  
H    29.10000   26.96800   22.40500  
O    30.96000   28.89200   23.14500  
C    27.32600   23.45000   31.97300  
H    27.43400   24.53100   32.10000  
H    26.76800   23.22800   31.06000  
H    26.68600   22.96400   32.71400  
S    29.01800   22.82900   32.10300  
C    28.61100   21.10100   32.43600  
H    28.05200   21.12200   33.37500  
H    28.16200   20.43600   31.69200  
H    29.53300   20.56400   32.67200  
O    29.45200   23.39500   33.41900  
C    31.08400   29.81600   31.81300  
H    30.61200   29.84300   30.82800  
H    31.69800   28.91800   31.92100  
H    30.32900   29.95800   32.59100  
S    32.23700   31.20400   31.89600  
C    31.18100   32.67100   31.88200  
H    30.46700   32.77400   32.70300  
H    31.90100   33.48600   31.98800  
H    30.62600   32.90500   30.97000  
O    32.84600   31.21400   30.52900  
C    24.21700   29.91600   16.30000  
H    24.48700   30.88200   16.73300  
H    24.33400   30.18300   15.24700  
H    23.18900   29.59400   16.48700  
S    25.31900   28.56300   16.77000  
C    24.06900   27.27000   16.59800  
H    23.07500   27.42000   17.02800  
H    24.00200   27.14700   15.51400  
H    24.46300   26.39300   17.11800  
O    25.54500   28.62300   18.24900  
C    27.03700   35.64900   27.00600  
H    26.45900   36.53000   27.29600  
H    27.12400   34.90300   27.80000  
H    27.99500   35.97000   26.58700  
S    26.03700   35.06500   25.61900  
C    27.21000   33.84500   24.98700  
H    26.93300   32.91800   25.49600  
H    27.17800   33.75900   23.89800  
H    28.24600   34.05400   25.26400  
O    26.25700   36.16200   24.62400  
C    26.33300   31.21300   21.36600  
H    25.93600   31.86900   20.58700  
H    26.21800   30.18200   21.02300  
H    25.86900   31.44500   22.32800  
S    28.03700   31.80600   21.46500  
C    28.15800   31.00800   23.08200  
H    28.02600   29.93200   22.94500  
H    29.17200   31.23000   23.42400  
H    27.45200   31.46300   23.78100  
O    27.97600   33.27000   21.77100  
C    30.41900   30.03900   26.73900  
H    31.43500   29.85100   26.38100  
H    30.11200   29.13800   27.27600  
H    29.65300   30.20800   25.97800  
S    30.55400   31.36300   27.96100  
C    28.85700   31.24900   28.57200  
H    28.74000   30.34300   29.17100  
H    28.63500   32.11600   29.19900  
H    28.22300   30.99200   27.71900  
O    30.68500   32.66300   27.23000  
C    31.43200   19.55800   28.51900  
H    31.43400   19.53900   29.61200  
H    31.61100   18.55800   28.11600  
H    32.25400   20.20900   28.21000  
S    29.86200   20.24400   27.94600  
C    30.15600   21.82400   28.77300  
H    30.62100   21.75000   29.75900  
H    30.80100   22.40400   28.10900  
H    29.14300   22.22600   28.86200  
O    28.94500   19.55000   28.90500  
C    24.37900   25.37200   31.78800  
H    25.29000   25.83600   32.17500  
H    23.56900   26.03600   32.10300  
H    24.21300   24.30900   31.97600  
S    24.47300   25.54500   29.99200  
C    22.70200   25.28300   29.75000  
H    22.44500   24.44100   30.39800  
H    22.09700   26.17400   29.93600  
H    22.56000   25.01700   28.69900  
O    25.12700   24.30800   29.45900  
C    24.02600   23.89900   26.62800  
H    23.83200   24.96500   26.77300  
H    23.30300   23.34600   27.23300  
H    25.01400   23.71400   27.05600  
S    24.16900   23.52400   24.86700  
C    22.39200   23.58200   24.54100  
H    22.25800   23.41000   23.47000  
H    21.83400   22.79600   25.05700  
H    22.12200   24.58500   24.87900  
O    24.41000   22.05000   24.96700  
C    28.96800   28.63800   19.80700  
H    28.85600   29.68300   19.50500  
H    27.95900   28.21800   19.82600  
H    29.51900   28.50600   20.74200  
S    29.94600   27.75300   18.57300  
C    28.65100   27.36800   17.37300  
H    28.35200   28.30800   16.90000  
H    29.00900   26.64500   16.63600  
H    27.75300   26.92400   17.81100  
O    30.29100   26.42100   19.16200  
C    23.02300   33.17200   24.04100  
H    23.73800   33.09800   23.21800  
H    23.62600   33.34500   24.93600  
H    22.45400   32.25500   24.21500  
S    21.73800   34.41700   23.78800  
C    22.89200   35.80700   23.77000  
H    23.42300   35.88900   24.72200  
H    23.60500   35.62300   22.96200  
H    22.25700   36.68500   23.62800  
O    21.00100   34.50200   25.08900  
C    28.95900   28.42900   34.78600  
H    28.89200   27.80400   35.68000  
H    29.35400   27.79200   33.99100  
H    29.70600   29.18000   35.05600  
S    27.38500   28.99100   34.09900  
C    26.46600   29.37200   35.60700  
H    26.95900   30.23800   36.05700  
H    25.49100   29.65300   35.20100  
H    26.49300   28.38200   36.06900  
O    26.58200   27.76100   33.80800  
C    25.71300   20.94300   29.65400  
H    26.50800   20.43400   29.10300  
H    25.76400   22.02900   29.53700  
H    25.59800   20.61900   30.69200  
S    24.15100   20.56100   28.83000  
C    23.12900   21.60300   29.89500  
H    22.13000   21.73100   29.47200  
H    23.13400   21.15300   30.89100  
H    23.70400   22.53100   29.95100  
O    23.94700   19.12300   29.19000  
C    18.66500   28.42600   25.30700  
H    18.06600   28.57100   26.20900  
H    18.73000   29.26300   24.60800  
H    18.35800   27.44300   24.94000  
S    20.38000   28.22100   25.83900  
C    21.01800   28.04700   24.15700  
H    21.29100   28.99100   23.67900  
H    21.84600   27.33400   24.13400  
H    20.23700   27.61600   23.52500  
O    20.46600   26.73400   25.98400  
C    35.78900   29.45500   28.42300  
H    36.31300   28.72400   27.80300  
H    36.19300   30.43500   28.15700  
H    35.73700   29.27100   29.49900  
S    34.15500   29.23800   27.68200  
C    33.45800   28.19400   28.98200  
H    32.45000   27.93100   28.64900  
H    34.16100   27.38900   29.20900  
H    33.31200   28.88100   29.81900  
O    34.24700   28.30900   26.51200  
C    22.22000   29.09600   32.52400  
H    21.23800   29.49500   32.79000  
H    22.14500   28.03800   32.26200  
H    22.87300   29.29400   33.37800  
S    22.84900   29.92900   31.05000  
C    21.58500   29.50900   29.82900  
H    21.28300   28.46000   29.86800  
H    20.66400   30.07900   29.97600  
H    22.09900   29.72800   28.88900  
O    24.19100   29.37900   30.67700  
C    28.91600   21.95900   17.79900  
H    29.01100   21.77400   16.72600  
H    29.84300   21.57400   18.23200  
H    27.97900   21.63200   18.25800  
S    28.87500   23.74800   18.04400  
C    28.69900   23.58200   19.83500  
H    29.47600   22.93300   20.24500  
H    28.73800   24.61100   20.20300  
H    27.67600   23.35100   20.14400  
O    27.43900   24.03700   17.73100  
C    27.75500   28.19400   30.63600  
H    28.31500   28.94400   31.20100  
H    27.18000   28.69000   29.85100  
H    26.98600   27.75200   31.27500  
S    28.79900   26.86000   30.00600  
C    29.56700   26.31400   31.54800  
H    30.08300   25.36100   31.40800  
H    30.10900   27.16400   31.97000  
H    28.74300   26.11000   32.23600  
O    29.96300   27.58800   29.41000  
C    21.34700   28.99400   20.36400  
H    20.70400   29.25800   19.52100  
H    22.13700   28.28700   20.09600  
H    20.70300   28.59000   21.14900  
S    22.24500   30.47700   20.87400  
C    23.22500   30.72000   19.37500  
H    22.57100   30.65200   18.50200  
H    23.71100   31.64800   19.68600  
H    23.99700   29.94600   19.35200  
O    23.22800   30.05800   21.92200  
C    21.30800   32.04100   27.26100  
H    21.46900   30.96200   27.19100  
H    21.81300   32.47400   26.39400  
H    21.73900   32.27100   28.23800  
S    19.50500   32.12800   27.34900  
C    19.47900   33.51100   28.51100  
H    20.28900   33.44000   29.24100  
H    19.53500   34.36200   27.82700  
H    18.49800   33.65200   28.97200  
O    19.21000   31.05300   28.34800  
C    27.51300   22.21900   25.93700  
H    27.64400   22.50900   26.98300  
H    26.48600   21.89800   25.74400  
H    28.21900   21.38800   25.85000  
S    27.93500   23.71200   25.01100  
C    27.60800   23.26900   23.29000  
H    28.29600   22.43500   23.12800  
H    26.59100   22.87300   23.23200  
H    27.67800   24.24500   22.80400  
O    29.43200   23.69400   25.04000  
C    25.84200   32.09500   32.77100  
H    26.15100   31.07600   32.52300  
H    25.47300   32.18000   33.79700  
H    25.06700   32.48500   32.10700  
S    27.34100   33.09500   32.90200  
C    26.40700   34.59900   33.26400  
H    26.98000   35.39600   32.78300  
H    25.42300   34.54100   32.79100  
H    26.30000   34.65900   34.35000  
O    28.02300   33.24500   31.57800  
C    22.89400   35.54200   28.49700  
H    21.83800   35.30500   28.34900  
H    22.93000   36.63500   28.49100  
H    23.51400   35.15400   27.68500  
S    23.33700   34.78100   30.07500  
C    25.10700   34.64700   29.73700  
H    25.26600   34.08600   28.81300  
H    25.48100   35.67300   29.70700  
H    25.47100   34.11200   30.61900  
O    22.97700   33.35900   29.77900  
$end

$rem
JOBTYPE  SP
METHOD  B3LYP
BASIS  6-31+G(D)
SYMMETRY  FALSE
SYM_IGNORE  TRUE
MEM_TOTAL  16000
MEM_STATIC  8000
MAX_SUB_FILE_NUM  16000
BASIS_LIN_DEP_THRESH  6
THRESH  14
SCF_CONVERGENCE  8
GEN_SCFMAN  TRUE
SCF_GUESS  FRAGMO
FD_MAT_VEC_PROD  FALSE
XC_GRID  000075000302
NL_GRID  1
MAX_SCF_CYCLES  200
FRGM_METHOD  STOLL
SCFMI_MODE  1
$end

$development
almo_efield  1
$end

$rem_frgm
SCF_CONVERGENCE  4
$end

--------------------------------------------------------------
 ----------------------------------------------------------------
             Standard Nuclear Orientation (Angstroms)
    I     Atom           X                Y                Z
 ----------------------------------------------------------------
    1      C      24.9890000000    29.2500000000    25.7430000000
    2      C      26.0140000000    29.1680000000    26.8860000000
    3      C      26.4760000000    27.7220000000    27.1270000000
    4      C      27.0760000000    27.1100000000    25.8510000000
    5      C      26.0930000000    27.1780000000    24.6700000000
    6      C      25.4350000000    28.5500000000    24.4490000000
    7      H      27.2410000000    27.6280000000    27.9070000000
    8      H      26.8380000000    29.7440000000    26.4470000000
    9      H      24.0990000000    28.8550000000    26.2470000000
   10      H      24.7800000000    30.3060000000    25.5320000000
   11      H      28.0340000000    27.6040000000    25.6470000000
   12      H      27.3560000000    26.0520000000    25.9230000000
   13      H      26.7140000000    26.9280000000    23.8010000000
   14      H      25.2430000000    26.4920000000    24.7700000000
   15      H      26.0590000000    29.2870000000    23.9290000000
   16      H      24.5660000000    28.3430000000    23.8130000000
   17      H      25.6560000000    27.0470000000    27.4030000000
   18      N      25.4400000000    29.7690000000    28.0900000000
   19      H      25.0570000000    29.2770000000    28.8880000000
   20      C      25.3190000000    31.1330000000    28.2470000000
   21      H      25.0920000000    31.3580000000    29.3050000000
   22      O      25.5660000000    31.9290000000    27.3580000000
   23      C      23.4720000000    25.8910000000    22.1640000000
   24      H      22.9100000000    25.1520000000    21.5880000000
   25      H      23.6750000000    25.8200000000    23.2350000000
   26      H      23.0390000000    26.8840000000    22.0150000000
   27      S      25.0870000000    26.0570000000    21.3710000000
   28      C      24.5760000000    25.8790000000    19.6470000000
   29      H      23.8520000000    25.0740000000    19.4970000000
   30      H      24.2060000000    26.8770000000    19.3980000000
   31      H      25.4640000000    25.6360000000    19.0590000000
   32      O      25.7270000000    24.7460000000    21.7060000000
   33      C      32.5170000000    26.8820000000    23.8350000000
   34      H      32.4560000000    25.8920000000    24.2930000000
   35      H      32.9410000000    26.9020000000    22.8270000000
   36      H      33.0130000000    27.5880000000    24.5060000000
   37      S      30.8590000000    27.6000000000    23.8940000000
   38      C      30.0520000000    26.5170000000    22.6940000000
   39      H      30.6310000000    26.4390000000    21.7700000000
   40      H      29.8920000000    25.5160000000    23.1020000000
   41      H      29.1000000000    26.9680000000    22.4050000000
   42      O      30.9600000000    28.8920000000    23.1450000000
   43      C      27.3260000000    23.4500000000    31.9730000000
   44      H      27.4340000000    24.5310000000    32.1000000000
   45      H      26.7680000000    23.2280000000    31.0600000000
   46      H      26.6860000000    22.9640000000    32.7140000000
   47      S      29.0180000000    22.8290000000    32.1030000000
   48      C      28.6110000000    21.1010000000    32.4360000000
   49      H      28.0520000000    21.1220000000    33.3750000000
   50      H      28.1620000000    20.4360000000    31.6920000000
   51      H      29.5330000000    20.5640000000    32.6720000000
   52      O      29.4520000000    23.3950000000    33.4190000000
   53      C      31.0840000000    29.8160000000    31.8130000000
   54      H      30.6120000000    29.8430000000    30.8280000000
   55      H      31.6980000000    28.9180000000    31.9210000000
   56      H      30.3290000000    29.9580000000    32.5910000000
   57      S      32.2370000000    31.2040000000    31.8960000000
   58      C      31.1810000000    32.6710000000    31.8820000000
   59      H      30.4670000000    32.7740000000    32.7030000000
   60      H      31.9010000000    33.4860000000    31.9880000000
   61      H      30.6260000000    32.9050000000    30.9700000000
   62      O      32.8460000000    31.2140000000    30.5290000000
   63      C      24.2170000000    29.9160000000    16.3000000000
   64      H      24.4870000000    30.8820000000    16.7330000000
   65      H      24.3340000000    30.1830000000    15.2470000000
   66      H      23.1890000000    29.5940000000    16.4870000000
   67      S      25.3190000000    28.5630000000    16.7700000000
   68      C      24.0690000000    27.2700000000    16.5980000000
   69      H      23.0750000000    27.4200000000    17.0280000000
   70      H      24.0020000000    27.1470000000    15.5140000000
   71      H      24.4630000000    26.3930000000    17.1180000000
   72      O      25.5450000000    28.6230000000    18.2490000000
   73      C      27.0370000000    35.6490000000    27.0060000000
   74      H      26.4590000000    36.5300000000    27.2960000000
   75      H      27.1240000000    34.9030000000    27.8000000000
   76      H      27.9950000000    35.9700000000    26.5870000000
   77      S      26.0370000000    35.0650000000    25.6190000000
   78      C      27.2100000000    33.8450000000    24.9870000000
   79      H      26.9330000000    32.9180000000    25.4960000000
   80      H      27.1780000000    33.7590000000    23.8980000000
   81      H      28.2460000000    34.0540000000    25.2640000000
   82      O      26.2570000000    36.1620000000    24.6240000000
   83      C      26.3330000000    31.2130000000    21.3660000000
   84      H      25.9360000000    31.8690000000    20.5870000000
   85      H      26.2180000000    30.1820000000    21.0230000000
   86      H      25.8690000000    31.4450000000    22.3280000000
   87      S      28.0370000000    31.8060000000    21.4650000000
   88      C      28.1580000000    31.0080000000    23.0820000000
   89      H      28.0260000000    29.9320000000    22.9450000000
   90      H      29.1720000000    31.2300000000    23.4240000000
   91      H      27.4520000000    31.4630000000    23.7810000000
   92      O      27.9760000000    33.2700000000    21.7710000000
   93      C      30.4190000000    30.0390000000    26.7390000000
   94      H      31.4350000000    29.8510000000    26.3810000000
   95      H      30.1120000000    29.1380000000    27.2760000000
   96      H      29.6530000000    30.2080000000    25.9780000000
   97      S      30.5540000000    31.3630000000    27.9610000000
   98      C      28.8570000000    31.2490000000    28.5720000000
   99      H      28.7400000000    30.3430000000    29.1710000000
  100      H      28.6350000000    32.1160000000    29.1990000000
  101      H      28.2230000000    30.9920000000    27.7190000000
  102      O      30.6850000000    32.6630000000    27.2300000000
  103      C      31.4320000000    19.5580000000    28.5190000000
  104      H      31.4340000000    19.5390000000    29.6120000000
  105      H      31.6110000000    18.5580000000    28.1160000000
  106      H      32.2540000000    20.2090000000    28.2100000000
  107      S      29.8620000000    20.2440000000    27.9460000000
  108      C      30.1560000000    21.8240000000    28.7730000000
  109      H      30.6210000000    21.7500000000    29.7590000000
  110      H      30.8010000000    22.4040000000    28.1090000000
  111      H      29.1430000000    22.2260000000    28.8620000000
  112      O      28.9450000000    19.5500000000    28.9050000000
  113      C      24.3790000000    25.3720000000    31.7880000000
  114      H      25.2900000000    25.8360000000    32.1750000000
  115      H      23.5690000000    26.0360000000    32.1030000000
  116      H      24.2130000000    24.3090000000    31.9760000000
  117      S      24.4730000000    25.5450000000    29.9920000000
  118      C      22.7020000000    25.2830000000    29.7500000000
  119      H      22.4450000000    24.4410000000    30.3980000000
  120      H      22.0970000000    26.1740000000    29.9360000000
  121      H      22.5600000000    25.0170000000    28.6990000000
  122      O      25.1270000000    24.3080000000    29.4590000000
  123      C      24.0260000000    23.8990000000    26.6280000000
  124      H      23.8320000000    24.9650000000    26.7730000000
  125      H      23.3030000000    23.3460000000    27.2330000000
  126      H      25.0140000000    23.7140000000    27.0560000000
  127      S      24.1690000000    23.5240000000    24.8670000000
  128      C      22.3920000000    23.5820000000    24.5410000000
  129      H      22.2580000000    23.4100000000    23.4700000000
  130      H      21.8340000000    22.7960000000    25.0570000000
  131      H      22.1220000000    24.5850000000    24.8790000000
  132      O      24.4100000000    22.0500000000    24.9670000000
  133      C      28.9680000000    28.6380000000    19.8070000000
  134      H      28.8560000000    29.6830000000    19.5050000000
  135      H      27.9590000000    28.2180000000    19.8260000000
  136      H      29.5190000000    28.5060000000    20.7420000000
  137      S      29.9460000000    27.7530000000    18.5730000000
  138      C      28.6510000000    27.3680000000    17.3730000000
  139      H      28.3520000000    28.3080000000    16.9000000000
  140      H      29.0090000000    26.6450000000    16.6360000000
  141      H      27.7530000000    26.9240000000    17.8110000000
  142      O      30.2910000000    26.4210000000    19.1620000000
  143      C      23.0230000000    33.1720000000    24.0410000000
  144      H      23.7380000000    33.0980000000    23.2180000000
  145      H      23.6260000000    33.3450000000    24.9360000000
  146      H      22.4540000000    32.2550000000    24.2150000000
  147      S      21.7380000000    34.4170000000    23.7880000000
  148      C      22.8920000000    35.8070000000    23.7700000000
  149      H      23.4230000000    35.8890000000    24.7220000000
  150      H      23.6050000000    35.6230000000    22.9620000000
  151      H      22.2570000000    36.6850000000    23.6280000000
  152      O      21.0010000000    34.5020000000    25.0890000000
  153      C      28.9590000000    28.4290000000    34.7860000000
  154      H      28.8920000000    27.8040000000    35.6800000000
  155      H      29.3540000000    27.7920000000    33.9910000000
  156      H      29.7060000000    29.1800000000    35.0560000000
  157      S      27.3850000000    28.9910000000    34.0990000000
  158      C      26.4660000000    29.3720000000    35.6070000000
  159      H      26.9590000000    30.2380000000    36.0570000000
  160      H      25.4910000000    29.6530000000    35.2010000000
  161      H      26.4930000000    28.3820000000    36.0690000000
  162      O      26.5820000000    27.7610000000    33.8080000000
  163      C      25.7130000000    20.9430000000    29.6540000000
  164      H      26.5080000000    20.4340000000    29.1030000000
  165      H      25.7640000000    22.0290000000    29.5370000000
  166      H      25.5980000000    20.6190000000    30.6920000000
  167      S      24.1510000000    20.5610000000    28.8300000000
  168      C      23.1290000000    21.6030000000    29.8950000000
  169      H      22.1300000000    21.7310000000    29.4720000000
  170      H      23.1340000000    21.1530000000    30.8910000000
  171      H      23.7040000000    22.5310000000    29.9510000000
  172      O      23.9470000000    19.1230000000    29.1900000000
  173      C      18.6650000000    28.4260000000    25.3070000000
  174      H      18.0660000000    28.5710000000    26.2090000000
  175      H      18.7300000000    29.2630000000    24.6080000000
  176      H      18.3580000000    27.4430000000    24.9400000000
  177      S      20.3800000000    28.2210000000    25.8390000000
  178      C      21.0180000000    28.0470000000    24.1570000000
  179      H      21.2910000000    28.9910000000    23.6790000000
  180      H      21.8460000000    27.3340000000    24.1340000000
  181      H      20.2370000000    27.6160000000    23.5250000000
  182      O      20.4660000000    26.7340000000    25.9840000000
  183      C      35.7890000000    29.4550000000    28.4230000000
  184      H      36.3130000000    28.7240000000    27.8030000000
  185      H      36.1930000000    30.4350000000    28.1570000000
  186      H      35.7370000000    29.2710000000    29.4990000000
  187      S      34.1550000000    29.2380000000    27.6820000000
  188      C      33.4580000000    28.1940000000    28.9820000000
  189      H      32.4500000000    27.9310000000    28.6490000000
  190      H      34.1610000000    27.3890000000    29.2090000000
  191      H      33.3120000000    28.8810000000    29.8190000000
  192      O      34.2470000000    28.3090000000    26.5120000000
  193      C      22.2200000000    29.0960000000    32.5240000000
  194      H      21.2380000000    29.4950000000    32.7900000000
  195      H      22.1450000000    28.0380000000    32.2620000000
  196      H      22.8730000000    29.2940000000    33.3780000000
  197      S      22.8490000000    29.9290000000    31.0500000000
  198      C      21.5850000000    29.5090000000    29.8290000000
  199      H      21.2830000000    28.4600000000    29.8680000000
  200      H      20.6640000000    30.0790000000    29.9760000000
  201      H      22.0990000000    29.7280000000    28.8890000000
  202      O      24.1910000000    29.3790000000    30.6770000000
  203      C      28.9160000000    21.9590000000    17.7990000000
  204      H      29.0110000000    21.7740000000    16.7260000000
  205      H      29.8430000000    21.5740000000    18.2320000000
  206      H      27.9790000000    21.6320000000    18.2580000000
  207      S      28.8750000000    23.7480000000    18.0440000000
  208      C      28.6990000000    23.5820000000    19.8350000000
  209      H      29.4760000000    22.9330000000    20.2450000000
  210      H      28.7380000000    24.6110000000    20.2030000000
  211      H      27.6760000000    23.3510000000    20.1440000000
  212      O      27.4390000000    24.0370000000    17.7310000000
  213      C      27.7550000000    28.1940000000    30.6360000000
  214      H      28.3150000000    28.9440000000    31.2010000000
  215      H      27.1800000000    28.6900000000    29.8510000000
  216      H      26.9860000000    27.7520000000    31.2750000000
  217      S      28.7990000000    26.8600000000    30.0060000000
  218      C      29.5670000000    26.3140000000    31.5480000000
  219      H      30.0830000000    25.3610000000    31.4080000000
  220      H      30.1090000000    27.1640000000    31.9700000000
  221      H      28.7430000000    26.1100000000    32.2360000000
  222      O      29.9630000000    27.5880000000    29.4100000000
  223      C      21.3470000000    28.9940000000    20.3640000000
  224      H      20.7040000000    29.2580000000    19.5210000000
  225      H      22.1370000000    28.2870000000    20.0960000000
  226      H      20.7030000000    28.5900000000    21.1490000000
  227      S      22.2450000000    30.4770000000    20.8740000000
  228      C      23.2250000000    30.7200000000    19.3750000000
  229      H      22.5710000000    30.6520000000    18.5020000000
  230      H      23.7110000000    31.6480000000    19.6860000000
  231      H      23.9970000000    29.9460000000    19.3520000000
  232      O      23.2280000000    30.0580000000    21.9220000000
  233      C      21.3080000000    32.0410000000    27.2610000000
  234      H      21.4690000000    30.9620000000    27.1910000000
  235      H      21.8130000000    32.4740000000    26.3940000000
  236      H      21.7390000000    32.2710000000    28.2380000000
  237      S      19.5050000000    32.1280000000    27.3490000000
  238      C      19.4790000000    33.5110000000    28.5110000000
  239      H      20.2890000000    33.4400000000    29.2410000000
  240      H      19.5350000000    34.3620000000    27.8270000000
  241      H      18.4980000000    33.6520000000    28.9720000000
  242      O      19.2100000000    31.0530000000    28.3480000000
  243      C      27.5130000000    22.2190000000    25.9370000000
  244      H      27.6440000000    22.5090000000    26.9830000000
  245      H      26.4860000000    21.8980000000    25.7440000000
  246      H      28.2190000000    21.3880000000    25.8500000000
  247      S      27.9350000000    23.7120000000    25.0110000000
  248      C      27.6080000000    23.2690000000    23.2900000000
  249      H      28.2960000000    22.4350000000    23.1280000000
  250      H      26.5910000000    22.8730000000    23.2320000000
  251      H      27.6780000000    24.2450000000    22.8040000000
  252      O      29.4320000000    23.6940000000    25.0400000000
  253      C      25.8420000000    32.0950000000    32.7710000000
  254      H      26.1510000000    31.0760000000    32.5230000000
  255      H      25.4730000000    32.1800000000    33.7970000000
  256      H      25.0670000000    32.4850000000    32.1070000000
  257      S      27.3410000000    33.0950000000    32.9020000000
  258      C      26.4070000000    34.5990000000    33.2640000000
  259      H      26.9800000000    35.3960000000    32.7830000000
  260      H      25.4230000000    34.5410000000    32.7910000000
  261      H      26.3000000000    34.6590000000    34.3500000000
  262      O      28.0230000000    33.2450000000    31.5780000000
  263      C      22.8940000000    35.5420000000    28.4970000000
  264      H      21.8380000000    35.3050000000    28.3490000000
  265      H      22.9300000000    36.6350000000    28.4910000000
  266      H      23.5140000000    35.1540000000    27.6850000000
  267      S      23.3370000000    34.7810000000    30.0750000000
  268      C      25.1070000000    34.6470000000    29.7370000000
  269      H      25.2660000000    34.0860000000    28.8130000000
  270      H      25.4810000000    35.6730000000    29.7070000000
  271      H      25.4710000000    34.1120000000    30.6190000000
  272      O      22.9770000000    33.3590000000    29.7790000000
 ----------------------------------------------------------------
 Nuclear Repulsion Energy =       42290.37215455 hartrees
 There are      560 alpha and      560 beta electrons
 Requested basis set is 6-31+G(d)
 There are 896 shells and 2497 basis functions

 Total QAlloc Memory Limit  16000 MB
 Mega-Array Size      7821 MB
 MEM_STATIC part      8000 MB
 A cutoff of  1.0D-14 yielded 156547 shell pairs
 There are   1356107 function pairs
 Smallest overlap matrix eigenvalue = 5.33E-07
 Linear dependence detected in AO basis
 Tighter screening thresholds may be required for diffuse basis sets
 Use S2THRESH > 14 and THRESH = 14 in case of SCF convergence issues
 Number of orthogonalized atomic orbitals = 2495
 Maximum deviation from orthogonality = 1.580E-10

 Scale SEOQF with 1.000000e-03/1.000000e-03/1.000000e-03

 Standard Electronic Orientation quadrupole field applied
 Nucleus-field energy     =     0.0000000744 hartrees
Attempting to make child job directory: /local/scratch/users/ymao/r7.00_frame_0094_almo_B3LYP_dp.in20210311133739//Frg1/
Attempting to make child job directory: /local/scratch/users/ymao/r7.00_frame_0094_almo_B3LYP_dp.in20210311133739//Frg2/
Creating input file /local/scratch/users/ymao/r7.00_frame_0094_almo_B3LYP_dp.in20210311133739/Frg1.input
using default PutDataFrgm: nothing
calling putenv with: QCSCRATCH=/local/scratch/users/ymao/r7.00_frame_0094_almo_B3LYP_dp.in20210311133739/ 
Spawning Job For Fragment 0
Done Job For Fragment 0
calling putenv with: QCSCRATCH=/local/scratch/users/ymao 
calling putenv with: QCTHREADS=8 
Creating input file /local/scratch/users/ymao/r7.00_frame_0094_almo_B3LYP_dp.in20210311133739/Frg2.input
using default PutDataFrgm: nothing
calling putenv with: QCSCRATCH=/local/scratch/users/ymao/r7.00_frame_0094_almo_B3LYP_dp.in20210311133739/ 
Spawning Job For Fragment 1
Done Job For Fragment 1
calling putenv with: QCSCRATCH=/local/scratch/users/ymao 
calling putenv with: QCTHREADS=8 
 Time for running child jobs:  CPU 0.75 s  wall 16678.81 s

 -----------------------------------------------------------------------
  General SCF calculation program by
  Eric Jon Sundstrom, Paul Horn, Yuezhi Mao, Dmitri Zuev, Alec White,
  David Stuck, Shaama M.S., Shane Yost, Joonho Lee, David Small,
  Daniel Levine, Susi Lehtola, Hugh Burton, Evgeny Epifanovsky,
  Bang C. Huynh
 -----------------------------------------------------------------------
Performing Restricted Closed Shell SCFMI
Doing General SCFMI
 Exchange:     0.2000 Hartree-Fock + 0.0800 Slater + 0.7200 B88
 Correlation:  0.1900 VWN1RPA + 0.8100 LYP
 Using Euler-Maclaurin-Lebedev (75,302) quadrature formula
performing fock build before subrot guess so that all methods have access
Printing subrot_rss_gen Method Specification:
Occupied Subspace Method is 0
Virtual Subspace Method is 0
Energy prior to optimization (guess energy) = -14234.280280195373
Begin Timing: Total SCF Calculation
begin iterations for algorithm: DIIS         
the SCF tolerance is set to 1.00e-08
    1  -14234.2802801954      5.11e-05     00000 
    2  -14234.2751567389      8.53e-05     00000 
    3  -14234.2903383128      1.64e-05     00000 
    4  -14234.2909216129      6.34e-06     00000 
    5  -14234.2910262480      3.07e-06     00000 
    6  -14234.2910454386      2.10e-06     00000 
    7  -14234.2910540587      1.25e-06     00000 
    8  -14234.2910575900      6.27e-07     00000 
    9  -14234.2910582347      4.34e-07     00000 
   10  -14234.2910584852      3.21e-07     00000 
   11  -14234.2910586758      1.67e-07     00000 
   12  -14234.2910587328      9.88e-08     00000 
   13  -14234.2910587534      5.75e-08     00000 
   14  -14234.2910587594      3.67e-08     00000 
   15  -14234.2910587615      2.38e-08     00000 
   16  -14234.2910587624      1.04e-08     00000 
   17  -14234.2910587629      6.01e-09     00000 Convergence criterion met
write pseudocanon occs and virts to disk
write pseudocanon orbital energies to disk
Timing for Total SCF: 43185.00s (wall), 339386.64s (cpu)
SCFMI Energy  -14234.2910587629
<S^2>            0.00000
 Total energy in the final basis set =   -14234.2910587629
    ==================================================
        The end of Object-Oriented SCFman: SCFMI      
    ==================================================
 
 --------------------------------------------------------------
 
                    Orbital Energies (a.u.)
 --------------------------------------------------------------
 
 Alpha MOs
 -- Occupied --
-89.0342 -89.0305 -89.0247 -89.0205 -89.0154 -89.0140 -89.0138 -89.0123
-89.0040 -89.0021 -89.0020 -88.9982 -88.9969 -88.9962 -88.9962 -88.9923
-88.9832 -88.9795 -88.9793 -88.9766 -88.9718 -88.9705 -88.9609 -88.9593
-88.9546 -19.1482 -19.1464 -19.1459 -19.1412 -19.1411 -19.1392 -19.1310
-19.1225 -19.1200 -19.1173 -19.1136 -19.1109 -19.1090 -19.1047 -19.1046
-19.1018 -19.1016 -19.1015 -19.0995 -19.0937 -19.0871 -19.0868 -19.0845
-19.0832 -19.0782 -19.0758 -14.3601 -10.2863 -10.2517 -10.2515 -10.2498
-10.2471 -10.2467 -10.2467 -10.2447 -10.2445 -10.2394 -10.2358 -10.2343
-10.2303 -10.2300 -10.2298 -10.2296 -10.2258 -10.2243 -10.2231 -10.2204
-10.2192 -10.2159 -10.2153 -10.2141 -10.2129 -10.2113 -10.2112 -10.2106
-10.2105 -10.2094 -10.2090 -10.2055 -10.2036 -10.2026 -10.2021 -10.2013
-10.2008 -10.1990 -10.1985 -10.1984 -10.1910 -10.1905 -10.1891 -10.1876
-10.1855 -10.1840 -10.1838 -10.1825 -10.1816 -10.1803 -10.1789 -10.1787
-10.1756 -10.1744 -10.1742 -10.1732 -10.1728  -8.0800  -8.0768  -8.0707
 -8.0670  -8.0615  -8.0607  -8.0605  -8.0588  -8.0494  -8.0478  -8.0477
 -8.0445  -8.0430  -8.0426  -8.0422  -8.0384  -8.0293  -8.0261  -8.0253
 -8.0231  -8.0180  -8.0172  -8.0069  -8.0060  -8.0001  -6.0444  -6.0431
 -6.0409  -6.0400  -6.0373  -6.0351  -6.0343  -6.0338  -6.0313  -6.0302
 -6.0281  -6.0259  -6.0249  -6.0246  -6.0245  -6.0241  -6.0237  -6.0235
 -6.0234  -6.0221  -6.0187  -6.0184  -6.0183  -6.0154  -6.0137  -6.0126
 -6.0122  -6.0119  -6.0111  -6.0110  -6.0089  -6.0075  -6.0073  -6.0068
 -6.0067  -6.0064  -6.0059  -6.0056  -6.0053  -6.0052  -6.0051  -6.0025
 -6.0019  -6.0019  -6.0007  -6.0003  -5.9998  -5.9956  -5.9937  -5.9925
 -5.9903  -5.9896  -5.9889  -5.9882  -5.9873  -5.9864  -5.9862  -5.9837
 -5.9831  -5.9824  -5.9816  -5.9812  -5.9809  -5.9804  -5.9753  -5.9746
 -5.9713  -5.9703  -5.9701  -5.9691  -5.9645  -5.9643  -5.9634  -5.9631
 -5.9571  -1.0573  -1.0559  -1.0498  -1.0493  -1.0480  -1.0472  -1.0438
 -1.0391  -1.0368  -1.0256  -1.0253  -1.0243  -1.0237  -1.0205  -1.0179
 -1.0167  -1.0127  -1.0081  -1.0070  -1.0064  -0.9984  -0.9976  -0.9948
 -0.9896  -0.9870  -0.9792  -0.9243  -0.8396  -0.8370  -0.8301  -0.8260
 -0.8257  -0.8253  -0.8233  -0.8086  -0.8071  -0.8058  -0.8002  -0.8002
 -0.7963  -0.7941  -0.7919  -0.7892  -0.7883  -0.7883  -0.7857  -0.7845
 -0.7779  -0.7715  -0.7714  -0.7676  -0.7654  -0.7643  -0.7628  -0.7589
 -0.7580  -0.7543  -0.7511  -0.7461  -0.7454  -0.7450  -0.7399  -0.7384
 -0.7364  -0.7344  -0.7277  -0.7270  -0.7232  -0.7214  -0.7201  -0.7187
 -0.7151  -0.7084  -0.7057  -0.7038  -0.7025  -0.6998  -0.6972  -0.6903
 -0.6899  -0.6500  -0.6421  -0.6370  -0.6362  -0.6324  -0.6295  -0.6287
 -0.6281  -0.6243  -0.6201  -0.6178  -0.6159  -0.6143  -0.6095  -0.6092
 -0.6089  -0.6068  -0.6043  -0.5969  -0.5938  -0.5916  -0.5853  -0.5842
 -0.5820  -0.5796  -0.5723  -0.5713  -0.5692  -0.5588  -0.5301  -0.5197
 -0.5187  -0.5112  -0.5102  -0.5097  -0.5050  -0.5047  -0.5018  -0.5004
 -0.4998  -0.4996  -0.4968  -0.4943  -0.4938  -0.4921  -0.4913  -0.4908
 -0.4893  -0.4883  -0.4867  -0.4853  -0.4837  -0.4833  -0.4826  -0.4820
 -0.4802  -0.4773  -0.4767  -0.4767  -0.4747  -0.4738  -0.4730  -0.4712
 -0.4710  -0.4705  -0.4694  -0.4683  -0.4679  -0.4671  -0.4664  -0.4656
 -0.4653  -0.4642  -0.4636  -0.4632  -0.4630  -0.4622  -0.4618  -0.4608
 -0.4600  -0.4598  -0.4586  -0.4570  -0.4564  -0.4563  -0.4557  -0.4547
 -0.4546  -0.4543  -0.4535  -0.4527  -0.4515  -0.4513  -0.4503  -0.4498
 -0.4497  -0.4490  -0.4485  -0.4476  -0.4467  -0.4460  -0.4442  -0.4430
 -0.4425  -0.4411  -0.4409  -0.4406  -0.4401  -0.4394  -0.4386  -0.4380
 -0.4369  -0.4365  -0.4360  -0.4349  -0.4348  -0.4344  -0.4340  -0.4311
 -0.4307  -0.4302  -0.4300  -0.4286  -0.4283  -0.4258  -0.4251  -0.4246
 -0.4235  -0.4220  -0.4218  -0.4212  -0.4204  -0.4198  -0.4194  -0.4181
 -0.4180  -0.4170  -0.4160  -0.4159  -0.4151  -0.4140  -0.4136  -0.4131
 -0.4124  -0.4122  -0.4101  -0.4092  -0.4089  -0.4077  -0.4064  -0.4060
 -0.4052  -0.4048  -0.4042  -0.4034  -0.4028  -0.4011  -0.4006  -0.3993
 -0.3985  -0.3974  -0.3969  -0.3956  -0.3938  -0.3934  -0.3918  -0.3896
 -0.3892  -0.3888  -0.3877  -0.3874  -0.3862  -0.3856  -0.3851  -0.3850
 -0.3840  -0.3837  -0.3829  -0.3826  -0.3824  -0.3821  -0.3808  -0.3801
 -0.3798  -0.3784  -0.3781  -0.3759  -0.3740  -0.3730  -0.3729  -0.3710
 -0.3690  -0.3678  -0.3644  -0.3618  -0.3617  -0.3615  -0.3604  -0.3600
 -0.3596  -0.3583  -0.3581  -0.3573  -0.3506  -0.3501  -0.3499  -0.3492
 -0.3459  -0.3427  -0.3399  -0.3384  -0.3371  -0.3329  -0.3275  -0.3237
 -0.3200  -0.3175  -0.3138  -0.3107  -0.3095  -0.3057  -0.3038  -0.3026
 -0.3023  -0.3014  -0.2833  -0.2801  -0.2788  -0.2764  -0.2724  -0.2720
 -0.2705  -0.2694  -0.2661  -0.2649  -0.2640  -0.2640  -0.2633  -0.2629
 -0.2623  -0.2605  -0.2601  -0.2571  -0.2568  -0.2541  -0.2505  -0.2499
 -0.2488  -0.2464  -0.2463  -0.2445  -0.2437  -0.2430  -0.2429  -0.2403
 -0.2402  -0.2381  -0.2376  -0.2368  -0.2366  -0.2352  -0.2271  -0.2269
 -0.2251  -0.2213  -0.2169  -0.2112  -0.2099  -0.2033  -0.2017  -0.1914
 -- Virtual --
 -0.0414  -0.0402  -0.0353  -0.0305  -0.0287  -0.0274  -0.0243  -0.0238
 -0.0197  -0.0178  -0.0156  -0.0152  -0.0140  -0.0127  -0.0105  -0.0102
 -0.0093  -0.0079  -0.0068  -0.0056  -0.0032  -0.0024  -0.0018  -0.0003
  0.0004   0.0012   0.0021   0.0030   0.0032   0.0042   0.0043   0.0049
  0.0061   0.0080   0.0082   0.0089   0.0099   0.0106   0.0110   0.0117
  0.0123   0.0133   0.0139   0.0149   0.0151   0.0163   0.0172   0.0175
  0.0183   0.0191   0.0194   0.0200   0.0209   0.0231   0.0236   0.0242
  0.0252   0.0263   0.0265   0.0274   0.0282   0.0286   0.0288   0.0301
  0.0306   0.0312   0.0318   0.0327   0.0336   0.0342   0.0347   0.0350
  0.0362   0.0370   0.0375   0.0383   0.0386   0.0395   0.0402   0.0409
  0.0414   0.0421   0.0431   0.0439   0.0441   0.0454   0.0463   0.0466
  0.0477   0.0485   0.0486   0.0495   0.0497   0.0506   0.0508   0.0514
  0.0527   0.0529   0.0537   0.0547   0.0556   0.0556   0.0568   0.0571
  0.0582   0.0585   0.0591   0.0595   0.0606   0.0611   0.0618   0.0621
  0.0629   0.0631   0.0639   0.0646   0.0653   0.0661   0.0673   0.0680
  0.0682   0.0694   0.0695   0.0699   0.0705   0.0717   0.0726   0.0732
  0.0740   0.0751   0.0756   0.0762   0.0766   0.0775   0.0777   0.0780
  0.0793   0.0800   0.0801   0.0808   0.0816   0.0821   0.0828   0.0834
  0.0842   0.0843   0.0855   0.0859   0.0873   0.0875   0.0879   0.0886
  0.0894   0.0901   0.0907   0.0912   0.0916   0.0927   0.0934   0.0947
  0.0952   0.0969   0.0976   0.0980   0.0984   0.0989   0.0995   0.1002
  0.1005   0.1010   0.1022   0.1024   0.1030   0.1038   0.1047   0.1050
  0.1064   0.1066   0.1071   0.1082   0.1088   0.1096   0.1103   0.1109
  0.1117   0.1120   0.1131   0.1140   0.1149   0.1150   0.1155   0.1163
  0.1172   0.1174   0.1182   0.1191   0.1191   0.1196   0.1198   0.1209
  0.1218   0.1224   0.1228   0.1241   0.1244   0.1254   0.1259   0.1265
  0.1270   0.1275   0.1287   0.1294   0.1300   0.1311   0.1318   0.1326
  0.1333   0.1339   0.1342   0.1347   0.1356   0.1358   0.1367   0.1377
  0.1379   0.1395   0.1401   0.1406   0.1411   0.1413   0.1421   0.1430
  0.1435   0.1447   0.1449   0.1456   0.1460   0.1467   0.1478   0.1486
  0.1487   0.1494   0.1497   0.1503   0.1507   0.1513   0.1516   0.1522
  0.1536   0.1541   0.1549   0.1559   0.1564   0.1568   0.1577   0.1582
  0.1587   0.1593   0.1598   0.1603   0.1612   0.1616   0.1629   0.1630
  0.1633   0.1644   0.1650   0.1658   0.1663   0.1666   0.1669   0.1677
  0.1680   0.1689   0.1698   0.1701   0.1714   0.1720   0.1721   0.1723
  0.1733   0.1745   0.1747   0.1756   0.1762   0.1769   0.1779   0.1781
  0.1782   0.1791   0.1791   0.1806   0.1808   0.1813   0.1821   0.1834
  0.1839   0.1847   0.1849   0.1857   0.1865   0.1869   0.1877   0.1897
  0.1901   0.1905   0.1908   0.1914   0.1924   0.1925   0.1930   0.1935
  0.1940   0.1950   0.1957   0.1962   0.1968   0.1974   0.1981   0.1985
  0.1988   0.1998   0.2006   0.2013   0.2022   0.2031   0.2032   0.2042
  0.2044   0.2049   0.2061   0.2066   0.2076   0.2085   0.2087   0.2095
  0.2101   0.2107   0.2113   0.2113   0.2123   0.2132   0.2134   0.2140
  0.2150   0.2159   0.2162   0.2171   0.2175   0.2180   0.2188   0.2189
  0.2196   0.2199   0.2210   0.2215   0.2223   0.2228   0.2233   0.2243
  0.2254   0.2259   0.2265   0.2272   0.2277   0.2280   0.2294   0.2305
  0.2309   0.2321   0.2326   0.2337   0.2341   0.2345   0.2357   0.2361
  0.2366   0.2376   0.2380   0.2384   0.2393   0.2400   0.2409   0.2415
  0.2424   0.2429   0.2437   0.2440   0.2444   0.2452   0.2460   0.2470
  0.2473   0.2486   0.2495   0.2501   0.2505   0.2517   0.2523   0.2527
  0.2531   0.2546   0.2547   0.2553   0.2558   0.2570   0.2581   0.2584
  0.2590   0.2603   0.2606   0.2614   0.2614   0.2630   0.2636   0.2638
  0.2648   0.2661   0.2664   0.2668   0.2678   0.2686   0.2689   0.2693
  0.2702   0.2718   0.2723   0.2736   0.2743   0.2749   0.2753   0.2763
  0.2771   0.2775   0.2779   0.2784   0.2807   0.2809   0.2814   0.2824
  0.2827   0.2832   0.2845   0.2864   0.2868   0.2880   0.2885   0.2892
  0.2896   0.2899   0.2909   0.2914   0.2933   0.2941   0.2944   0.2955
  0.2970   0.2977   0.2994   0.3000   0.3006   0.3013   0.3016   0.3021
  0.3035   0.3036   0.3042   0.3066   0.3074   0.3079   0.3084   0.3086
  0.3110   0.3115   0.3126   0.3132   0.3145   0.3154   0.3159   0.3173
  0.3181   0.3188   0.3203   0.3205   0.3217   0.3230   0.3243   0.3253
  0.3263   0.3266   0.3281   0.3285   0.3296   0.3309   0.3316   0.3325
  0.3332   0.3345   0.3351   0.3363   0.3370   0.3382   0.3398   0.3403
  0.3407   0.3414   0.3423   0.3428   0.3436   0.3445   0.3459   0.3467
  0.3484   0.3486   0.3495   0.3503   0.3511   0.3517   0.3523   0.3533
  0.3549   0.3557   0.3569   0.3578   0.3593   0.3600   0.3611   0.3616
  0.3627   0.3634   0.3640   0.3647   0.3658   0.3667   0.3673   0.3692
  0.3698   0.3707   0.3713   0.3729   0.3731   0.3741   0.3759   0.3774
  0.3784   0.3786   0.3788   0.3794   0.3799   0.3813   0.3820   0.3827
  0.3836   0.3839   0.3856   0.3864   0.3878   0.3885   0.3897   0.3900
  0.3916   0.3924   0.3927   0.3941   0.3953   0.3961   0.3966   0.3971
  0.3981   0.3999   0.4006   0.4014   0.4019   0.4031   0.4035   0.4042
  0.4052   0.4060   0.4066   0.4082   0.4085   0.4101   0.4117   0.4121
  0.4142   0.4150   0.4158   0.4167   0.4179   0.4187   0.4199   0.4206
  0.4215   0.4223   0.4233   0.4236   0.4248   0.4258   0.4273   0.4283
  0.4287   0.4306   0.4310   0.4339   0.4342   0.4351   0.4356   0.4363
  0.4376   0.4388   0.4407   0.4416   0.4425   0.4429   0.4445   0.4454
  0.4470   0.4491   0.4495   0.4516   0.4518   0.4533   0.4546   0.4558
  0.4567   0.4586   0.4597   0.4600   0.4617   0.4631   0.4635   0.4655
  0.4671   0.4688   0.4695   0.4705   0.4718   0.4741   0.4761   0.4774
  0.4779   0.4786   0.4830   0.4844   0.4849   0.4861   0.4883   0.4893
  0.4898   0.4901   0.4921   0.4933   0.4947   0.4955   0.4970   0.4992
  0.5005   0.5018   0.5064   0.5078   0.5086   0.5099   0.5107   0.5134
  0.5166   0.5187   0.5200   0.5205   0.5221   0.5245   0.5255   0.5265
  0.5281   0.5290   0.5313   0.5332   0.5341   0.5365   0.5382   0.5401
  0.5413   0.5437   0.5453   0.5475   0.5479   0.5494   0.5503   0.5526
  0.5533   0.5542   0.5572   0.5592   0.5600   0.5612   0.5644   0.5655
  0.5679   0.5686   0.5703   0.5705   0.5714   0.5757   0.5766   0.5784
  0.5793   0.5804   0.5818   0.5826   0.5839   0.5856   0.5862   0.5882
  0.5900   0.5911   0.5925   0.5953   0.5961   0.5977   0.5987   0.6004
  0.6017   0.6025   0.6031   0.6057   0.6071   0.6086   0.6104   0.6111
  0.6123   0.6139   0.6166   0.6173   0.6190   0.6200   0.6205   0.6223
  0.6244   0.6253   0.6260   0.6290   0.6301   0.6314   0.6322   0.6332
  0.6347   0.6363   0.6389   0.6396   0.6399   0.6413   0.6433   0.6451
  0.6459   0.6469   0.6471   0.6492   0.6499   0.6519   0.6538   0.6545
  0.6554   0.6569   0.6574   0.6584   0.6597   0.6604   0.6621   0.6631
  0.6651   0.6666   0.6674   0.6680   0.6695   0.6700   0.6711   0.6726
  0.6736   0.6751   0.6766   0.6780   0.6799   0.6805   0.6828   0.6835
  0.6850   0.6855   0.6866   0.6883   0.6887   0.6900   0.6904   0.6917
  0.6935   0.6949   0.6951   0.6976   0.6986   0.6991   0.6996   0.7020
  0.7029   0.7050   0.7056   0.7067   0.7082   0.7100   0.7108   0.7119
  0.7121   0.7149   0.7154   0.7164   0.7185   0.7205   0.7207   0.7214
  0.7224   0.7249   0.7258   0.7267   0.7284   0.7305   0.7311   0.7325
  0.7329   0.7355   0.7359   0.7375   0.7387   0.7390   0.7416   0.7424
  0.7433   0.7463   0.7473   0.7494   0.7511   0.7515   0.7536   0.7549
  0.7568   0.7579   0.7595   0.7601   0.7626   0.7643   0.7654   0.7671
  0.7689   0.7693   0.7706   0.7725   0.7737   0.7756   0.7763   0.7787
  0.7811   0.7826   0.7837   0.7865   0.7870   0.7886   0.7892   0.7899
  0.7911   0.7929   0.7945   0.7950   0.7974   0.7987   0.7998   0.8031
  0.8038   0.8043   0.8052   0.8080   0.8101   0.8109   0.8147   0.8148
  0.8171   0.8174   0.8186   0.8199   0.8214   0.8218   0.8236   0.8251
  0.8264   0.8276   0.8294   0.8313   0.8333   0.8347   0.8360   0.8368
  0.8387   0.8413   0.8432   0.8440   0.8450   0.8460   0.8472   0.8480
  0.8491   0.8492   0.8532   0.8562   0.8586   0.8594   0.8601   0.8610
  0.8622   0.8628   0.8645   0.8650   0.8667   0.8693   0.8696   0.8723
  0.8729   0.8745   0.8774   0.8789   0.8803   0.8815   0.8823   0.8843
  0.8858   0.8871   0.8889   0.8897   0.8900   0.8914   0.8932   0.8936
  0.8948   0.8979   0.8985   0.8997   0.9011   0.9018   0.9033   0.9037
  0.9055   0.9061   0.9075   0.9094   0.9111   0.9122   0.9131   0.9155
  0.9161   0.9168   0.9180   0.9202   0.9206   0.9216   0.9226   0.9233
  0.9254   0.9265   0.9285   0.9304   0.9318   0.9330   0.9332   0.9341
  0.9356   0.9375   0.9380   0.9384   0.9400   0.9411   0.9424   0.9440
  0.9451   0.9457   0.9474   0.9488   0.9504   0.9507   0.9513   0.9523
  0.9541   0.9559   0.9562   0.9581   0.9584   0.9616   0.9617   0.9637
  0.9652   0.9666   0.9668   0.9677   0.9684   0.9705   0.9724   0.9726
  0.9745   0.9752   0.9761   0.9775   0.9788   0.9789   0.9799   0.9826
  0.9838   0.9849   0.9856   0.9857   0.9880   0.9884   0.9893   0.9903
  0.9921   0.9924   0.9941   0.9949   0.9951   0.9968   0.9979   0.9984
  1.0014   1.0017   1.0038   1.0042   1.0052   1.0062   1.0073   1.0085
  1.0098   1.0115   1.0126   1.0130   1.0141   1.0155   1.0164   1.0168
  1.0196   1.0203   1.0207   1.0213   1.0223   1.0251   1.0255   1.0281
  1.0288   1.0292   1.0311   1.0320   1.0343   1.0352   1.0367   1.0373
  1.0384   1.0401   1.0413   1.0423   1.0443   1.0453   1.0463   1.0477
  1.0488   1.0492   1.0515   1.0520   1.0541   1.0549   1.0584   1.0588
  1.0606   1.0610   1.0627   1.0648   1.0661   1.0670   1.0677   1.0702
  1.0719   1.0734   1.0739   1.0745   1.0777   1.0784   1.0801   1.0822
  1.0835   1.0844   1.0851   1.0868   1.0897   1.0899   1.0918   1.0935
  1.0951   1.0959   1.0992   1.1015   1.1017   1.1025   1.1041   1.1058
  1.1064   1.1088   1.1092   1.1112   1.1139   1.1148   1.1171   1.1185
  1.1188   1.1205   1.1223   1.1230   1.1240   1.1255   1.1269   1.1277
  1.1290   1.1295   1.1318   1.1328   1.1329   1.1347   1.1369   1.1381
  1.1388   1.1404   1.1415   1.1429   1.1438   1.1445   1.1466   1.1491
  1.1499   1.1510   1.1517   1.1530   1.1548   1.1555   1.1577   1.1581
  1.1610   1.1620   1.1629   1.1648   1.1654   1.1673   1.1680   1.1687
  1.1701   1.1712   1.1721   1.1733   1.1771   1.1789   1.1802   1.1813
  1.1825   1.1840   1.1868   1.1898   1.1907   1.1922   1.1949   1.1976
  1.1979   1.1996   1.2009   1.2028   1.2048   1.2054   1.2066   1.2102
  1.2118   1.2140   1.2146   1.2168   1.2196   1.2217   1.2231   1.2245
  1.2264   1.2281   1.2297   1.2315   1.2335   1.2346   1.2372   1.2376
  1.2396   1.2411   1.2434   1.2453   1.2481   1.2504   1.2510   1.2553
  1.2560   1.2593   1.2622   1.2643   1.2648   1.2676   1.2687   1.2730
  1.2762   1.2771   1.2795   1.2822   1.2845   1.2883   1.2894   1.2945
  1.2962   1.2991   1.3011   1.3042   1.3051   1.3072   1.3117   1.3132
  1.3160   1.3184   1.3212   1.3251   1.3264   1.3274   1.3300   1.3313
  1.3342   1.3356   1.3390   1.3404   1.3414   1.3434   1.3479   1.3487
  1.3519   1.3526   1.3544   1.3560   1.3565   1.3567   1.3607   1.3636
  1.3656   1.3666   1.3696   1.3708   1.3741   1.3745   1.3755   1.3803
  1.3817   1.3823   1.3846   1.3862   1.3866   1.3876   1.3896   1.3903
  1.3914   1.3929   1.3940   1.3958   1.3967   1.3974   1.4012   1.4019
  1.4021   1.4029   1.4051   1.4072   1.4083   1.4102   1.4113   1.4127
  1.4154   1.4167   1.4192   1.4204   1.4213   1.4224   1.4239   1.4252
  1.4263   1.4276   1.4294   1.4315   1.4336   1.4377   1.4383   1.4405
  1.4408   1.4432   1.4458   1.4494   1.4498   1.4499   1.4512   1.4526
  1.4530   1.4552   1.4566   1.4592   1.4602   1.4620   1.4643   1.4652
  1.4663   1.4680   1.4686   1.4705   1.4710   1.4743   1.4751   1.4762
  1.4794   1.4805   1.4825   1.4838   1.4852   1.4884   1.4890   1.4944
  1.4960   1.4977   1.4989   1.4999   1.5038   1.5047   1.5082   1.5096
  1.5116   1.5131   1.5169   1.5200   1.5230   1.5249   1.5273   1.5279
  1.5297   1.5310   1.5330   1.5360   1.5411   1.5427   1.5484   1.5505
  1.5534   1.5539   1.5566   1.5609   1.5643   1.5653   1.5698   1.5719
  1.5763   1.5807   1.5832   1.5870   1.5878   1.5981   1.5986   1.6047
  1.6077   1.6137   1.6155   1.6177   1.6266   1.6274   1.6423   1.6468
  1.6497   1.6529   1.6553   1.6574   1.6598   1.6613   1.6628   1.6661
  1.6666   1.6688   1.6710   1.6716   1.6723   1.6758   1.6793   1.6828
  1.6832   1.6840   1.6854   1.6870   1.6891   1.6902   1.6913   1.6920
  1.6934   1.6953   1.6958   1.6975   1.6981   1.7000   1.7004   1.7007
  1.7028   1.7053   1.7077   1.7079   1.7103   1.7121   1.7134   1.7145
  1.7157   1.7162   1.7177   1.7183   1.7195   1.7216   1.7242   1.7255
  1.7260   1.7275   1.7297   1.7310   1.7318   1.7329   1.7359   1.7365
  1.7373   1.7391   1.7400   1.7405   1.7418   1.7425   1.7461   1.7462
  1.7473   1.7478   1.7500   1.7521   1.7526   1.7538   1.7566   1.7580
  1.7609   1.7612   1.7634   1.7636   1.7649   1.7671   1.7683   1.7699
  1.7723   1.7730   1.7750   1.7773   1.7781   1.7791   1.7806   1.7814
  1.7834   1.7854   1.7887   1.7901   1.7924   1.7937   1.7953   1.7988
  1.8002   1.8037   1.8072   1.8082   1.8127   1.8133   1.8177   1.8204
  1.8217   1.8259   1.8268   1.8308   1.8325   1.8337   1.8369   1.8418
  1.8450   1.8496   1.8509   1.8538   1.8558   1.8570   1.8579   1.8602
  1.8628   1.8653   1.8662   1.8694   1.8711   1.8725   1.8758   1.8774
  1.8784   1.8795   1.8819   1.8836   1.8839   1.8851   1.8867   1.8876
  1.8912   1.8922   1.8930   1.8944   1.8956   1.8971   1.9000   1.9017
  1.9030   1.9037   1.9069   1.9091   1.9112   1.9123   1.9128   1.9143
  1.9152   1.9158   1.9190   1.9192   1.9198   1.9210   1.9237   1.9243
  1.9247   1.9262   1.9284   1.9298   1.9329   1.9333   1.9344   1.9368
  1.9380   1.9398   1.9416   1.9422   1.9460   1.9493   1.9503   1.9511
  1.9530   1.9532   1.9557   1.9591   1.9604   1.9649   1.9680   1.9696
  1.9734   1.9785   1.9816   1.9874   1.9985   2.0077   2.0183   2.0235
  2.0258   2.0346   2.0363   2.0419   2.0465   2.0478   2.0497   2.0507
  2.0557   2.0564   2.0584   2.0609   2.0615   2.0673   2.0722   2.0726
  2.0738   2.0748   2.0758   2.0786   2.0790   2.0811   2.0817   2.0835
  2.0851   2.0902   2.0912   2.0915   2.0927   2.0938   2.0950   2.0958
  2.0963   2.0965   2.0968   2.0996   2.0999   2.1008   2.1033   2.1085
  2.1099   2.1120   2.1127   2.1134   2.1152   2.1181   2.1202   2.1229
  2.1257   2.1265   2.1318   2.1324   2.1354   2.1388   2.1405   2.1513
  2.1544   2.1586   2.1603   2.1622   2.1653   2.1700   2.1730   2.1781
  2.1794   2.1814   2.1844   2.1867   2.1905   2.1920   2.1950   2.1982
  2.1995   2.2002   2.2007   2.2025   2.2035   2.2062   2.2091   2.2121
  2.2136   2.2149   2.2185   2.2228   2.2236   2.2243   2.2281   2.2313
  2.2323   2.2333   2.2336   2.2365   2.2390   2.2407   2.2416   2.2430
  2.2435   2.2444   2.2472   2.2476   2.2490   2.2495   2.2512   2.2522
  2.2541   2.2545   2.2550   2.2560   2.2575   2.2586   2.2601   2.2605
  2.2615   2.2633   2.2639   2.2647   2.2654   2.2662   2.2676   2.2681
  2.2693   2.2701   2.2705   2.2711   2.2724   2.2736   2.2747   2.2756
  2.2763   2.2789   2.2792   2.2802   2.2811   2.2816   2.2829   2.2840
  2.2842   2.2856   2.2860   2.2870   2.2881   2.2895   2.2906   2.2912
  2.2929   2.2932   2.2941   2.2952   2.2968   2.2977   2.2985   2.2997
  2.3011   2.3017   2.3032   2.3036   2.3041   2.3052   2.3075   2.3080
  2.3098   2.3113   2.3120   2.3133   2.3141   2.3149   2.3175   2.3187
  2.3212   2.3215   2.3229   2.3254   2.3265   2.3272   2.3277   2.3281
  2.3299   2.3312   2.3323   2.3345   2.3358   2.3377   2.3392   2.3398
  2.3414   2.3435   2.3447   2.3448   2.3458   2.3497   2.3504   2.3548
  2.3563   2.3569   2.3591   2.3597   2.3621   2.3626   2.3651   2.3652
  2.3674   2.3712   2.3726   2.3780   2.3808   2.3835   2.3871   2.3874
  2.3900   2.3934   2.3965   2.3968   2.4131   2.4155   2.4268   2.4363
  2.4587   2.4858   2.5100   2.5250   2.5345   2.5903   2.6681   2.7212
  2.7381   2.7809   2.8135   2.8196   2.8230   2.8284   2.8302   2.8327
  2.8337   2.8383   2.8406   2.8444   2.8486   2.8503   2.8517   2.8525
  2.8555   2.8565   2.8604   2.8646   2.8733   2.8760   2.8774   2.8797
  2.8814   2.8859   2.8884   2.8896   2.8910   2.8964   2.9031   2.9772
  3.0998   3.2408   3.9470   3.9482   3.9554   3.9575   3.9594   3.9668
  3.9688   3.9743   3.9781   3.9787   3.9796   3.9860   3.9868   3.9913
  3.9958   3.9972   3.9981   4.0025   4.0077   4.0087   4.0123   4.0241
  4.0289   4.0434   4.0483   4.2025   4.2201   4.2208   4.2272   4.2360
  4.2383   4.2458   4.2472   4.2500   4.2521   4.2549   4.2578   4.2600
  4.2621   4.2626   4.2712   4.2723   4.2751   4.2781   4.2797   4.2813
  4.2842   4.2890   4.2915   4.2928   4.2968   4.2974   4.2987   4.2995
  4.3023   4.3071   4.3100   4.3107   4.3127   4.3151   4.3175   4.3204
  4.3214   4.3237   4.3296   4.3317   4.3351   4.3378   4.3404   4.3439
  4.3469   4.3491   4.3540   4.3553   4.3607   4.3615   4.3643   4.3654
  4.3715   4.3736   4.3771   4.3851   4.3872   4.3910   4.3934   4.3983
  4.4059   4.4124   4.4179   4.4213   4.4332   4.4351   4.4447   4.4512
  4.4627   4.4679   4.4731   4.4931   4.4993   4.5176   4.5356   4.5585
  4.6330   4.6512   4.6684   4.7072   4.7264   4.7515   4.9892
 --------------------------------------------------------------
 
          Ground-State Mulliken Net Atomic Charges

     Atom                 Charge (a.u.)
  ----------------------------------------
      1 C                    -0.096133
      2 C                    -0.244556
      3 C                    -0.499728
      4 C                    -0.418468
      5 C                    -0.431610
      6 C                    -0.512048
      7 H                     0.180280
      8 H                     0.218871
      9 H                     0.183331
     10 H                     0.233955
     11 H                     0.224144
     12 H                     0.223465
     13 H                     0.209391
     14 H                     0.173686
     15 H                     0.192103
     16 H                     0.212363
     17 H                     0.205635
     18 N                    -0.509002
     19 H                     0.487121
     20 C                     0.317672
     21 H                     0.185034
     22 O                    -0.535505
     23 C                    -0.889608
     24 H                     0.244578
     25 H                     0.247744
     26 H                     0.247577
     27 S                     0.886016
     28 C                    -0.865483
     29 H                     0.239598
     30 H                     0.241167
     31 H                     0.311058
     32 O                    -0.696184
     33 C                    -0.871183
     34 H                     0.242841
     35 H                     0.247160
     36 H                     0.302315
     37 S                     1.012248
     38 C                    -1.031859
     39 H                     0.301582
     40 H                     0.269316
     41 H                     0.231821
     42 O                    -0.718620
     43 C                    -0.787733
     44 H                     0.223734
     45 H                     0.282998
     46 H                     0.243853
     47 S                     0.956830
     48 C                    -0.982652
     49 H                     0.252972
     50 H                     0.293271
     51 H                     0.259309
     52 O                    -0.715816
     53 C                    -0.759913
     54 H                     0.313447
     55 H                     0.254016
     56 H                     0.211130
     57 S                     0.672551
     58 C                    -0.812318
     59 H                     0.225646
     60 H                     0.246703
     61 H                     0.301261
     62 O                    -0.672577
     63 C                    -0.852935
     64 H                     0.274324
     65 H                     0.257465
     66 H                     0.233084
     67 S                     0.907615
     68 C                    -0.842405
     69 H                     0.250682
     70 H                     0.244409
     71 H                     0.288765
     72 O                    -0.723426
     73 C                    -1.007958
     74 H                     0.226972
     75 H                     0.249188
     76 H                     0.275243
     77 S                     1.155705
     78 C                    -0.957738
     79 H                     0.262081
     80 H                     0.309904
     81 H                     0.279040
     82 O                    -0.738943
     83 C                    -0.844791
     84 H                     0.216482
     85 H                     0.270030
     86 H                     0.250218
     87 S                     0.857700
     88 C                    -0.929065
     89 H                     0.241158
     90 H                     0.297908
     91 H                     0.250589
     92 O                    -0.658676
     93 C                    -0.890032
     94 H                     0.272763
     95 H                     0.291656
     96 H                     0.254176
     97 S                     0.705954
     98 C                    -0.797601
     99 H                     0.247582
    100 H                     0.277236
    101 H                     0.249879
    102 O                    -0.610924
    103 C                    -0.913764
    104 H                     0.256181
    105 H                     0.247360
    106 H                     0.232783
    107 S                     1.078598
    108 C                    -0.904738
    109 H                     0.251810
    110 H                     0.266673
    111 H                     0.239365
    112 O                    -0.717533
    113 C                    -0.777402
    114 H                     0.288786
    115 H                     0.231658
    116 H                     0.261649
    117 S                     0.654598
    118 C                    -0.739868
    119 H                     0.256787
    120 H                     0.236851
    121 H                     0.273101
    122 O                    -0.546370
    123 C                    -0.724983
    124 H                     0.230392
    125 H                     0.268353
    126 H                     0.304337
    127 S                     0.640851
    128 C                    -0.839085
    129 H                     0.244824
    130 H                     0.270469
    131 H                     0.255866
    132 O                    -0.695377
    133 C                    -0.808857
    134 H                     0.251198
    135 H                     0.263224
    136 H                     0.300272
    137 S                     0.793416
    138 C                    -0.877381
    139 H                     0.224171
    140 H                     0.264802
    141 H                     0.283571
    142 O                    -0.711857
    143 C                    -1.036038
    144 H                     0.253043
    145 H                     0.294930
    146 H                     0.250458
    147 S                     0.961863
    148 C                    -0.827898
    149 H                     0.271732
    150 H                     0.259779
    151 H                     0.238670
    152 O                    -0.717393
    153 C                    -0.918236
    154 H                     0.260974
    155 H                     0.265696
    156 H                     0.251432
    157 S                     0.960069
    158 C                    -0.846427
    159 H                     0.229107
    160 H                     0.248884
    161 H                     0.263854
    162 O                    -0.687679
    163 C                    -0.865180
    164 H                     0.307263
    165 H                     0.248398
    166 H                     0.241907
    167 S                     0.882104
    168 C                    -0.838425
    169 H                     0.241106
    170 H                     0.251665
    171 H                     0.254606
    172 O                    -0.707145
    173 C                    -0.856009
    174 H                     0.275399
    175 H                     0.231679
    176 H                     0.273122
    177 S                     0.932179
    178 C                    -0.904941
    179 H                     0.241132
    180 H                     0.254100
    181 H                     0.239496
    182 O                    -0.776802
    183 C                    -0.974512
    184 H                     0.265422
    185 H                     0.250521
    186 H                     0.240405
    187 S                     0.986204
    188 C                    -0.795673
    189 H                     0.293390
    190 H                     0.231902
    191 H                     0.257403
    192 O                    -0.733484
    193 C                    -0.695145
    194 H                     0.256091
    195 H                     0.231785
    196 H                     0.249757
    197 S                     0.493956
    198 C                    -0.686012
    199 H                     0.230219
    200 H                     0.321937
    201 H                     0.257015
    202 O                    -0.656518
    203 C                    -0.868243
    204 H                     0.235431
    205 H                     0.227280
    206 H                     0.252762
    207 S                     1.001443
    208 C                    -0.878187
    209 H                     0.218326
    210 H                     0.292265
    211 H                     0.304791
    212 O                    -0.770050
    213 C                    -0.981941
    214 H                     0.253886
    215 H                     0.302166
    216 H                     0.289685
    217 S                     0.634057
    218 C                    -0.789053
    219 H                     0.279462
    220 H                     0.248839
    221 H                     0.246745
    222 O                    -0.566448
    223 C                    -0.798180
    224 H                     0.234885
    225 H                     0.245960
    226 H                     0.255680
    227 S                     0.619158
    228 C                    -0.752662
    229 H                     0.219822
    230 H                     0.254023
    231 H                     0.336363
    232 O                    -0.583806
    233 C                    -0.954940
    234 H                     0.235717
    235 H                     0.262815
    236 H                     0.321407
    237 S                     1.217318
    238 C                    -1.036159
    239 H                     0.271722
    240 H                     0.246014
    241 H                     0.250704
    242 O                    -0.750305
    243 C                    -1.050107
    244 H                     0.229437
    245 H                     0.327194
    246 H                     0.260542
    247 S                     0.696963
    248 C                    -0.612037
    249 H                     0.244970
    250 H                     0.275469
    251 H                     0.280384
    252 O                    -0.694871
    253 C                    -0.806711
    254 H                     0.279791
    255 H                     0.229195
    256 H                     0.276107
    257 S                     0.760670
    258 C                    -0.886748
    259 H                     0.273174
    260 H                     0.238836
    261 H                     0.248481
    262 O                    -0.665991
    263 C                    -0.842934
    264 H                     0.262283
    265 H                     0.238863
    266 H                     0.264597
    267 S                     0.992360
    268 C                    -0.879027
    269 H                     0.316031
    270 H                     0.237516
    271 H                     0.218956
    272 O                    -0.786127
  ----------------------------------------
  Sum of atomic charges =     0.000000

 -----------------------------------------------------------------
                    Cartesian Multipole Moments
 -----------------------------------------------------------------
    Charge (ESU x 10^10)
                 0.0000
    Dipole Moment (Debye)
         X     -18.2555      Y       7.8171      Z       5.6140
       Tot      20.6370
    Quadrupole Moments (Debye-Ang)
        XX   -1872.8695     XY    -395.3583     YY    -595.5607
        XZ    -248.9092     YZ     448.9239     ZZ    -327.4306
    Octopole Moments (Debye-Ang^2)
       XXX -110573.5147    XXY  -52278.5982    XYY  -34966.8952
       YYY  -68117.2891    XXZ  -41115.3259    XYZ   -1532.9677
       YYZ   -6236.9006    XZZ  -17615.2719    YZZ    1322.4612
       ZZZ  -38151.0980
    Hexadecapole Moments (Debye-Ang^3)
      XXXX ************   XXXY ************   XXYY ************
      XYYY ************   YYYY ************   XXXZ ************
      XXYZ ************   XYYZ -600312.7032   YYYZ ************
      XXZZ ************   XYZZ -271297.8054   YYZZ -406880.4005
      XZZZ ************   YZZZ -703678.2291   ZZZZ ************
 -----------------------------------------------------------------
Archival summary:
[...]
    2  -0.0200081  -0.0043723  -0.0289598   0.0249719   0.0075108   0.0951834
    3   0.0451396   0.0040363   0.0249976   0.0151017  -0.0234312  -0.0519033
          103         104         105         106         107         108
    1   0.0073224  -0.0077920   0.0020685   0.0289729  -0.0048259   0.0006386
    2  -0.0026947  -0.0052842  -0.0294247   0.0168780   0.0050014   0.0075001
    3   0.0034849   0.0303224  -0.0096143  -0.0111117  -0.0496003   0.0019020
          109         110         111         112         113         114
    1   0.0093409   0.0126893  -0.0232923  -0.0675203   0.0026490   0.0259165
    2  -0.0070306   0.0297507   0.0237325  -0.0532675   0.0022219   0.0052000
    3   0.0279497  -0.0183725   0.0046868   0.0690826   0.0057538   0.0218660
          115         116         117         118         119         120
    1  -0.0239379  -0.0012236   0.0165282  -0.0065204  -0.0177851  -0.0152845
    2   0.0141575  -0.0277396   0.0610004  -0.0022886  -0.0227433   0.0258697
    3   0.0170157   0.0150775  -0.0147271  -0.0037795   0.0132948   0.0075981
          121         122         123         124         125         126
    1  -0.0074067   0.0505274   0.0043312  -0.0030883  -0.0202291   0.0259530
    2  -0.0076400  -0.0843822   0.0034126   0.0352883  -0.0251559  -0.0029717
    3  -0.0271146  -0.0425629   0.0100155   0.0058582   0.0051526   0.0177756
          127         128         129         130         131         132
    1   0.0256454  -0.0070347  -0.0078335  -0.0077608  -0.0290705   0.0163599
    2   0.0344699   0.0002409  -0.0000407  -0.0228166   0.0288563  -0.1090272
    3  -0.0237959   0.0000231  -0.0302261   0.0210510   0.0053848   0.0080282
          133         134         135         136         137         138
    1  -0.0052784   0.0028219  -0.0291243   0.0136638   0.0403530  -0.0085009
    2   0.0020459   0.0319435  -0.0150095   0.0042311   0.0356575  -0.0032658
    3   0.0074430  -0.0028118   0.0071681   0.0294509  -0.0241833  -0.0033134
          139         140         141         142         143         144
    1  -0.0089026   0.0149238  -0.0212902   0.0293654   0.0041021   0.0142625
    2   0.0251232  -0.0182225  -0.0153846  -0.0975498  -0.0066206  -0.0087682
    3  -0.0196144  -0.0204485   0.0191289   0.0416201   0.0018102  -0.0306911
          145         146         147         148         149         150
    1   0.0085414  -0.0069924  -0.0228322   0.0050554   0.0144932   0.0248604
    2   0.0111418  -0.0353198  -0.0047907   0.0072882   0.0051040   0.0087186
    3   0.0248550  -0.0044132  -0.0524146   0.0012660   0.0235928  -0.0238544
          151         152         153         154         155         156
    1  -0.0095659  -0.0581929   0.0081551  -0.0119356   0.0169713   0.0190903
    2   0.0324207   0.0075421  -0.0070390  -0.0240917  -0.0206519   0.0289400
    3  -0.0079374   0.0927944   0.0037206   0.0235863  -0.0178247   0.0005260
          157         158         159         160         161         162
    1   0.0032618  -0.0017937   0.0082286  -0.0324625  -0.0091549  -0.0617751
    2   0.0440701  -0.0002457   0.0213928   0.0029666  -0.0216185  -0.0886968
    3  -0.0340356   0.0036662   0.0305096  -0.0016886   0.0251611  -0.0217006
          163         164         165         166         167         168
    1   0.0060652   0.0265381   0.0150694   0.0030123   0.0019514   0.0011915
    2   0.0026289  -0.0177389   0.0344679  -0.0125691   0.0186559   0.0033303
    3   0.0000242  -0.0080185   0.0022952   0.0283744  -0.0556763   0.0050016
          169         170         171         172         173         174
    1  -0.0286508  -0.0075127   0.0095383  -0.0135963  -0.0064194  -0.0205006
    2   0.0024176  -0.0171094   0.0335587  -0.1070580  -0.0031917   0.0171854
    3  -0.0089405   0.0283120  -0.0003599   0.0233562   0.0011256   0.0238731
          175         176         177         178         179         180
    1  -0.0208012  -0.0045310   0.0187460   0.0049087   0.0200002   0.0237042
    2   0.0243152  -0.0266276   0.0334072   0.0016134   0.0281038  -0.0152784
    3  -0.0226433  -0.0192228   0.0278746  -0.0098317  -0.0141927   0.0105481
          181         182         183         184         185         186
    1  -0.0249433   0.0071875   0.0063626   0.0281477   0.0090277   0.0064449
    2  -0.0188915  -0.1107870  -0.0016199  -0.0268686   0.0300244  -0.0046769
    3  -0.0109781   0.0095946  -0.0011456  -0.0069051  -0.0023814   0.0294138
          187         188         189         190         191         192
    1  -0.0349206  -0.0058557  -0.0266423   0.0124742  -0.0046865   0.0039332
    2   0.0530652  -0.0012270  -0.0201934  -0.0304424   0.0189532  -0.0663157
    3  -0.0012976   0.0054084  -0.0067021   0.0044452   0.0289031  -0.0866088
          193         194         195         196         197         198
    1  -0.0010993  -0.0305301  -0.0011694   0.0240342  -0.0056279  -0.0055784
    2  -0.0058613   0.0104798  -0.0342646  -0.0005848   0.0697392  -0.0026884
    3   0.0035151   0.0037194   0.0031611   0.0196427   0.0072728  -0.0072711
          199         200         201         202         203         204
    1  -0.0033629  -0.0226016   0.0075605   0.1080178  -0.0009883  -0.0079987
    2  -0.0344546   0.0254366   0.0043277  -0.0348444  -0.0040519  -0.0097300
    3  -0.0044567  -0.0062486  -0.0277906  -0.0394849  -0.0006243  -0.0314858
          205         206         207         208         209         210
    1   0.0228600  -0.0245740   0.0435366  -0.0029223   0.0211554   0.0189354
    2  -0.0195996  -0.0185313   0.0252617   0.0034486  -0.0139882   0.0287684
    3   0.0190411   0.0077974  -0.0131578   0.0100320   0.0222083   0.0149165
          211         212         213         214         215         216
    1  -0.0315857  -0.1048284  -0.0099009   0.0170941  -0.0172796  -0.0271240
    2  -0.0194382   0.0202601   0.0043671   0.0198124   0.0119423  -0.0068155
    3  -0.0026874  -0.0223561   0.0049101   0.0121485  -0.0283218   0.0247263
          217         218         219         220         221         222
    1  -0.0297014  -0.0005250   0.0246002   0.0267947  -0.0202881   0.0849954
    2  -0.0392351  -0.0016866  -0.0187209   0.0168554  -0.0086710   0.0508767
    3  -0.0268792   0.0078787  -0.0034749   0.0031466   0.0291884  -0.0450239
          223         224         225         226         227         228
    1  -0.0008749  -0.0193096   0.0157176  -0.0139027  -0.0376589   0.0092294
    2  -0.0066712   0.0024511  -0.0277882  -0.0103303   0.0463602  -0.0049138
    3  -0.0016038  -0.0282108  -0.0094196   0.0252305   0.0064204  -0.0022573
          229         230         231         232         233         234
    1  -0.0127237   0.0179024   0.0254308   0.0719234   0.0111594   0.0042186
    2   0.0122056   0.0327183  -0.0239929  -0.0288656  -0.0021988  -0.0351833
    3  -0.0287968  -0.0155458  -0.0040458   0.0786671   0.0039276  -0.0046815
          235         236         237         238         239         240
    1   0.0038807   0.0163392  -0.0249558  -0.0001785   0.0216049   0.0128190
    2   0.0246479   0.0165925   0.0096048   0.0073436  -0.0047577   0.0371124
    3  -0.0167866   0.0265954  -0.0428867   0.0033919   0.0202349  -0.0124521
          241         242         243         244         245         246
    1  -0.0287826  -0.0244282  -0.0057759  -0.0051772  -0.0322083   0.0224544
    2  -0.0093981  -0.0776094  -0.0089347   0.0121368  -0.0129348  -0.0199295
    3   0.0164466   0.0740038   0.0029098   0.0322663  -0.0047927  -0.0188961
          247         248         249         250         251         252
    1  -0.0323205  -0.0044615   0.0274245  -0.0315953   0.0010130   0.1093725
    2   0.0431716  -0.0022601  -0.0144662  -0.0059540   0.0160522   0.0002429
    3   0.0152582  -0.0055348  -0.0176053  -0.0117997  -0.0311915   0.0029906
          253         254         255         256         257         258
    1  -0.0063666  -0.0025010  -0.0210506  -0.0203156   0.0276118  -0.0035250
    2  -0.0074162  -0.0310976  -0.0108135   0.0019808  -0.0196582   0.0059883
    3  -0.0054598  -0.0122193   0.0293066  -0.0274668   0.0484073  -0.0011458
          259         260         261         262         263         264
    1   0.0149797  -0.0287078  -0.0018534   0.0533782  -0.0057609  -0.0294869
    2   0.0284241   0.0042658   0.0121639   0.0088940   0.0043577  -0.0112412
    3  -0.0048116  -0.0099178   0.0309591  -0.0939408  -0.0082709  -0.0117877
          265         266         267         268         269         270
    1   0.0042363   0.0084329  -0.0097073   0.0056038  -0.0002030   0.0256393
    2   0.0352962  -0.0133192   0.0264191  -0.0013126  -0.0164619   0.0283714
    3   0.0017519  -0.0217535   0.0415904   0.0033464  -0.0120272   0.0002060
          271         272
    1   0.0251888  -0.0256563
    2  -0.0180821  -0.1079574
    3   0.0160440  -0.0181189
  --- DONE ESP SUMMARY ---
Archival summary:
1\1\n0093.mhg0\SP\ProcedureUnspecified\6-31+G*\252550h22\ymao\FriMar1207:55:472021FriMar1207:55:472021\0\\#,ProcedureUnspecified,6-31+G*,\\0,1\S\O,1,1.4967\C,1,1.80713,2,98.9884\H,3,1.09267,1,105.854,2,158.717,0\H,3,1.09273,1,110.785,2,-86.9274,0\H,3,1.09286,1,107.774,2,45.6121,0\C,1,1.80732,2,103.24,3,102.423,0\H,7,1.09218,1,112.878,2,77.9841,0\H,7,1.09318,1,108.16,2,-168.123,0\H,7,1.09331,1,112.992,2,-46.5998,0\H,4,2.05553,3,125.591,1,71.0529,0\C,11,1.09378,4,146.074,3,49.1206,0\H,12,1.0928,11,110.377,4,-118.242,0\H,12,1.0931,11,114.741,4,129.477,0\S,12,1.80704,11,103.818,4,9.05257,0\O,15,1.49685,12,101.817,11,54.3976,0\C,15,1.80625,12,97.5301,11,161.9,0\H,17,1.09277,15,108.652,12,-173.105,0\H,17,1.093,15,104.788,12,-61.517,0\H,17,1.09424,15,123.265,12,69.0673,0\H,13,2.18292,12,158.33,11,-177.006,0\C,21,1.09347,13,119.492,12,1.24534,0\H,22,1.09303,21,112.002,13,-96.2976,0\H,22,1.09346,21,113.626,13,35.5925,0\S,22,1.80686,21,101.624,13,149.25,0\O,25,1.49635,22,102.199,21,-170.398,0\C,25,1.80679,22,95.6386,21,-58.9255,0\H,27,1.09239,25,110.893,22,167.405,0\H,27,1.09295,25,107.285,22,-67.6269,0\H,27,1.09314,25,102.841,22,45.5552,0\Gh,8,2.21601,7,113.477,1,10.7207,0\Gh,31,1.09657,8,124.313,7,156.147,0\Gh,32,1.09736,31,106.838,8,-82.0227,0\Gh,32,1.53702,31,113.695,8,43.5556,0\Gh,34,1.09703,32,109.325,31,67.7391,0\Gh,34,1.46297,32,112.047,31,-59.7701,0\Gh,36,1.0127,34,126.677,32,-21.6031,0\Gh,36,1.37833,34,122.325,32,160.61,0\Gh,38,1.10522,36,109.18,34,-166.589,0\Gh,38,1.21858,36,123.061,34,6.75923,0\Gh,32,1.53711,31,106.501,8,166.377,0\Gh,41,1.09679,32,115.418,31,60.2748,0\Gh,41,1.097,32,108.419,31,-54.5128,0\Gh,34,1.53746,32,111.539,31,177.499,0\Gh,44,1.09642,34,100.382,32,75.2351,0\Gh,44,1.09697,34,108.745,32,-173.456,0\Gh,44,1.53732,34,114.083,32,-51.0874,0\Gh,47,1.09659,44,110.135,34,160.694,0\Gh,47,1.09679,44,104.961,34,-83.7295,0\Gh,47,1.53759,44,114.172,34,43.2329,0\Gh,50,1.09686,47,103.86,44,82.5487,0\Gh,50,1.09695,47,109.376,44,-158.177,0\O,37,1.9902,36,147.995,34,-179.469,0\S,53,1.49753,37,129.247,36,64.0293,0\C,54,1.80616,53,110.241,37,152.178,0\H,55,1.09254,54,105.951,53,-60.1542,0\H,55,1.09283,54,110.071,53,-179.644,0\H,55,1.09313,54,110.243,53,63.4176,0\C,54,1.80691,53,111.913,37,39.9162,0\H,59,1.0923,54,113.111,53,73.4868,0\H,59,1.09305,54,112.169,53,-167.651,0\H,59,1.09351,54,101.859,53,-45.3142,0\H,62,2.19154,59,130.066,54,-128.037,0\C,63,1.09319,62,123.263,59,64.0868,0\H,64,1.09233,63,101.946,62,11.5836,0\H,64,1.0928,63,105.797,62,133.679,0\S,64,1.80724,63,101.394,62,-101.814,0\O,67,1.49688,64,101.218,63,45.3707,0\C,67,1.80655,64,94.7341,63,143.234,0\H,69,1.09272,67,111.672,64,-36.9017,0\H,69,1.09305,67,112.517,64,-165.309,0\H,69,1.09325,67,101.113,64,86.4822,0\H,6,2.24696,3,113.456,1,118.641,0\C,73,1.09262,6,159.86,3,-125.051,0\H,74,1.09286,73,106.497,6,-177.956,0\H,74,1.09312,73,109.464,6,-66.7263,0\S,74,1.80701,73,102.685,6,59.8907,0\O,77,1.49746,74,106.59,73,58.4585,0\C,77,1.8066,74,101.031,73,155.621,0\H,79,1.09283,77,98.5843,74,-59.5018,0\H,79,1.0929,77,101.417,74,-176.604,0\H,79,1.09339,77,106.332,74,67.7473,0\O,65,2.25634,64,158.26,63,132.884,0\S,83,1.49643,65,136.494,64,37.6867,0\C,84,1.80696,83,97.3646,65,-114.301,0\H,85,1.09245,84,105.714,83,168.247,0\H,85,1.0926,84,109.805,83,44.6672,0\H,85,1.09391,84,102.204,83,-74.9129,0\C,84,1.80706,83,99.6991,65,-16.6817,0\H,89,1.09234,84,105.304,83,57.5592,0\H,89,1.09283,84,111.115,83,-63.6204,0\H,89,1.09361,84,114.684,83,171.68,0\H,88,2.21448,85,133.54,84,-59.0215,0\C,93,1.09332,88,114.525,85,-120.671,0\H,94,1.09291,93,110.163,88,-171.344,0\H,94,1.09311,93,108.668,88,59.7223,0\S,94,1.80705,93,109.534,88,-53.6903,0\O,97,1.49686,94,109.225,93,85.011,0\C,97,1.8067,94,92.6572,93,-29.0541,0\H,99,1.09253,97,115.788,94,51.3166,0\H,99,1.09332,97,107.327,94,178.954,0\H,99,1.09365,97,99.7238,94,-63.7902,0\H,35,2.25693,34,121.718,32,-95.2469,0\C,103,1.09344,35,157.736,34,41.9215,0\H,104,1.09239,103,99.83,35,-0.41731,0\H,104,1.09275,103,121.084,35,-119.471,0\S,104,1.80724,103,107.19,35,113.974,0\O,107,1.49717,104,107.578,103,76.3239,0\C,107,1.80679,104,96.4465,103,-35.1324,0\H,109,1.09289,107,107.025,104,-57.1948,0\H,109,1.0929,107,114.205,104,59.573,0\H,109,1.09351,107,106.14,104,-170.373,0\H,87,2.26844,85,108.175,84,147.444,0\C,113,1.09294,87,120.335,85,-96.638,0\H,114,1.09286,113,113.551,87,54.1701,0\H,114,1.09379,113,114.135,87,-179.834,0\S,114,1.80688,113,112.402,87,-58.292,0\O,117,1.49728,114,101.069,113,-171.775,0\C,117,1.80659,114,97.3228,113,-70.4366,0\H,119,1.09257,117,113.441,114,-23.9048,0\H,119,1.09286,117,112.503,114,-145.788,0\H,119,1.09322,117,104.195,114,91.5278,0\H,66,2.28186,64,148.147,63,32.4605,0\C,123,1.09313,66,102.575,64,-176.819,0\H,124,1.09272,123,113.808,66,156.946,0\H,124,1.09296,123,106.835,66,40.9823,0\S,124,1.807,123,103.303,66,-78.9355,0\O,127,1.49766,124,105.511,123,64.1849,0\C,127,1.80669,124,94.4308,123,172.379,0\H,129,1.09283,127,104.375,124,-179.533,0\H,129,1.09316,127,111.057,124,-61.5371,0\H,129,1.0932,127,107.125,124,58.4158,0\H,49,2.29202,47,151.751,44,123.863,0\C,133,1.09269,49,109.084,47,-148.891,0\H,134,1.09273,133,114.342,49,10.4728,0\H,134,1.09291,133,110.569,49,133.067,0\S,134,1.80724,133,108.333,49,-112.831,0\O,137,1.49688,134,104.577,133,169.967,0\C,137,1.80695,134,88.1233,133,62.8007,0\H,139,1.09263,137,115.222,134,-82.7075,0\H,139,1.09296,137,106.407,134,46.8162,0\H,139,1.09306,137,100.638,134,161.776,0\H,51,2.29487,50,130.666,47,67.372,0\C,143,1.09238,51,139.794,50,8.93412,0\H,144,1.09258,143,124.646,51,151.784,0\H,144,1.0935,143,105.438,51,-80.0494,0\S,144,1.80683,143,105.674,51,27.6803,0\O,147,1.49685,144,101.741,143,64.1662,0\C,147,1.80693,144,99.0283,143,171.005,0\H,149,1.0924,147,107.794,144,-162.018,0\H,149,1.09302,147,113.005,144,-43.3713,0\H,149,1.09312,147,102.892,144,80.813,0\H,148,2.29412,147,131.453,144,-122.596,0\C,153,1.09255,148,110.702,147,152.263,0\H,154,1.09292,153,111.081,148,-7.78437,0\H,154,1.09323,153,125.118,148,123.969,0\S,154,1.80694,153,101.132,148,-122.117,0\O,157,1.49739,154,101.328,153,-85.0734,0\C,157,1.80682,154,104.08,153,168.972,0\H,159,1.09317,157,111.813,154,-56.23,0\H,159,1.09333,157,104.073,154,-176.189,0\H,159,1.09388,157,115.864,154,73.2645,0\O,160,2.22185,159,156.846,157,-10.287,0\S,163,1.49692,160,103.955,159,-24.2834,0\C,164,1.80615,163,98.7462,160,-72.4362,0\H,165,1.0925,164,105.974,163,66.4034,0\H,165,1.09296,164,119.145,163,-54.3798,0\H,165,1.09317,164,110.233,163,-179.462,0\C,164,1.80759,163,101.649,160,-169.679,0\H,169,1.09232,164,102.513,163,156.912,0\H,169,1.09297,164,106.99,163,-82.0986,0\H,169,1.09335,164,113.175,163,35.0923,0\H,168,2.30871,165,103.32,164,148.922,0\C,173,1.0934,168,137.376,165,105.144,0\H,174,1.09293,173,106.859,168,112.874,0\H,174,1.09312,173,110.603,168,-123.276,0\S,174,1.80656,173,106.939,168,-9.19894,0\O,177,1.49732,174,105.111,173,-52.4874,0\C,177,1.80676,174,93.9146,173,-161.594,0\H,179,1.09219,177,105.796,174,72.6877,0\H,179,1.09315,177,105.54,174,-160.787,0\H,179,1.09372,177,105.468,174,-50.0362,0\H,150,2.31139,149,91.5539,147,-158.102,0\C,183,1.09305,150,144.922,149,65.5677,0\H,184,1.09301,183,113.804,150,159.412,0\H,184,1.09336,183,104.518,150,-79.9837,0\S,184,1.80664,183,106.233,150,47.3325,0\O,187,1.49737,184,103.129,183,-53.5409,0\C,187,1.80718,184,95.1151,183,-164.008,0\H,189,1.09249,187,114.093,184,152.316,0\H,189,1.09261,187,111.611,184,-97.7202,0\H,189,1.09336,187,107.961,184,22.9445,0\H,188,2.31587,187,113.106,184,-83.7561,0\C,193,1.09343,188,152.417,187,-17.9063,0\H,194,1.09275,193,107.045,188,-98.2611,0\H,194,1.09292,193,111.201,188,38.7779,0\S,194,1.80733,193,107.765,188,158.486,0\O,197,1.49671,194,105.204,193,37.6963,0\C,197,1.80715,194,98.3786,193,-72.6824,0\H,199,1.09261,197,108.173,194,-64.8992,0\H,199,1.09278,197,113.172,194,176.399,0\H,199,1.09351,197,103.93,194,55.5525,0\H,6,2.36724,3,154.316,1,-55.9038,0\C,203,1.09319,6,103.514,3,105.357,0\H,204,1.09258,203,110.61,6,-68.3836,0\H,204,1.09338,203,115.102,6,56.876,0\S,204,1.80633,203,105.555,6,175.808,0\O,207,1.49655,204,102.88,203,78.1654,0\C,207,1.8076,204,104.499,203,-174.51,0\H,209,1.09264,207,102.688,204,177.028,0\H,209,1.09291,207,116.893,204,60.6419,0\H,209,1.09294,207,118.482,204,-68.1036,0\H,161,2.42027,159,141.808,157,-105.348,0\C,213,1.09348,161,123.612,159,14.0806,0\H,214,1.09239,213,113.658,161,59.2152,0\H,214,1.09266,213,110.224,161,-177.482,0\S,214,1.80742,213,102.001,161,-54.8606,0\O,217,1.4974,214,102.224,213,-58.9492,0\C,217,1.80661,214,92.6054,213,-158.542,0\H,219,1.09291,217,111.889,214,-176.28,0\H,219,1.09315,217,109.736,214,-55.7701,0\H,219,1.09317,217,108.984,214,61.0406,0\H,146,2.47304,144,103.857,143,-30.9803,0\C,223,1.09292,146,120.146,144,-156.384,0\H,224,1.09277,223,111.413,146,-49.6275,0\H,224,1.09323,223,105.775,146,64.4446,0\S,224,1.80733,223,110.477,146,-177.868,0\O,227,1.49653,224,88.523,223,-43.3761,0\C,227,1.80728,224,94.126,223,-144.59,0\H,229,1.09243,227,102.638,224,-54.9825,0\H,229,1.09244,227,106.997,224,-179.086,0\H,229,1.09326,227,105.266,224,70.6515,0\H,208,2.48277,207,109.349,204,-41.4654,0\C,233,1.09264,208,146.613,207,155.712,0\H,234,1.09259,233,112.959,208,147.634,0\H,234,1.09367,233,105.146,208,-81.5432,0\S,234,1.80714,233,103.849,208,29.5911,0\O,237,1.4968,234,103.147,233,-175.682,0\C,237,1.80724,234,97.073,233,71.9691,0\H,239,1.0924,237,96.929,234,101.23,0\H,239,1.09286,237,109.905,234,-21.8926,0\H,239,1.09287,237,110.005,234,-148.323,0\H,238,2.46305,237,141.953,234,94.244,0\C,243,1.09302,238,156.406,237,-122.129,0\H,244,1.09251,243,110.689,238,6.61194,0\H,244,1.09373,243,112.213,238,-123.511,0\S,244,1.80775,243,98.0257,238,118.434,0\O,247,1.49682,244,105.344,243,70.554,0\C,247,1.80669,244,98.6217,243,176.058,0\H,249,1.09235,247,108.513,244,-165.353,0\H,249,1.09273,247,111.501,244,72.7816,0\H,249,1.09321,247,111.567,244,-49.5299,0\H,250,2.3036,249,107.947,247,83.6482,0\C,253,1.09327,250,127.325,249,134.317,0\H,254,1.09309,253,113.826,250,20.3757,0\H,254,1.09351,253,113.778,250,142.111,0\S,254,1.80623,253,104.61,250,-98.3406,0\O,257,1.49672,254,106.978,253,46.7755,0\C,257,1.807,254,99.7907,253,154.477,0\H,259,1.09273,257,110.737,254,-168.21,0\H,259,1.09334,257,114.149,254,-49.0777,0\H,259,1.09395,257,107.454,254,69.7991,0\H,258,2.60223,257,129.708,254,53.0596,0\C,263,1.09352,258,122.764,257,122.863,0\H,264,1.09226,263,114.044,258,83.9016,0\H,264,1.09333,263,97.8786,258,-153.314,0\S,264,1.80727,263,104.099,258,-37.1252,0\O,267,1.49786,264,97.553,263,-83.4867,0\C,267,1.80616,264,92.6169,263,175.421,0\H,269,1.09297,267,107.626,264,179.283,0\H,269,1.09318,267,108.322,264,-67.9086,0\H,269,1.09343,267,102.699,264,56.5643,0\\\@

 Total job time:  63.97s(wall), 196.98s(cpu) 
 Fri Mar 12 07:55:47 2021

        *************************************************************
        *                                                           *
        *  Thank you very much for using Q-Chem.  Have a nice day.  *
        *                                                           *
        *************************************************************


