                  Welcome to Q-Chem
     A Quantum Leap Into The Future Of Chemistry


 Q-Chem 5.2 (devel), Q-Chem, Inc., Pleasanton, CA (2019)

 Yihan Shao,  Zhengting Gan,  E. Epifanovsky,  A. T. B. Gilbert,  M. Wormit,  
 J. Kussmann,  A. W. Lange,  A. Behn,  Jia Deng,  Xintian Feng,  D. Ghosh,  
 M. Goldey,  P. R. Horn,  L. D. Jacobson,  I. Kaliman,  T. Kus,  A. Landau,  
 Jie Liu,  E. I. Proynov,  R. M. Richard,  R. P. Steele,  E. J. Sundstrom,  
 H. L. Woodcock III,  P. M. Zimmerman,  D. Zuev,  B. Alam,  B. Albrecht,  
 E. Alguire,  S. A. Baeppler,  D. Barton,  Z. Benda,  Y. A. Bernard,  
 E. J. Berquist,  K. B. Bravaya,  H. Burton,  K. Carter-Fenk,  D. Casanova,  
 Chun-Min Chang,  Yunqing Chen,  A. Chien,  K. D. Closser,  M. P. Coons,  
 S. Coriani,  S. Dasgupta,  A. L. Dempwolff,  M. Diedenhofen,  Hainam Do,  
 R. G. Edgar,  Po-Tung Fang,  S. Faraji,  S. Fatehi,  Qingguo Feng,  
 J. Fosso-Tande,  J. Gayvert,  Qinghui Ge,  A. Ghysels,  G. Gidofalvi,  
 J. Gomes,  J. Gonthier,  A. Gunina,  D. Hait,  M. W. D. Hanson-Heine,  
 P. H. P. Harbach,  A. W. Hauser,  M. F. Herbst,  J. E. Herr,  
 E. G. Hohenstein,  Z. C. Holden,  Kerwin Hui,  B. C. Huynh,  T.-C. Jagau,  
 Hyunjun Ji,  B. Kaduk,  K. Khistyaev,  Jaehoon Kim,  P. Klunzinger,  K. Koh,  
 D. Kosenkov,  L. Koulias,  T. Kowalczyk,  C. M. Krauter,  A. Kunitsa,  
 Ka Un Lao,  A. Laurent,  K. V. Lawler,  Joonho Lee,  D. Lefrancois,  
 S. Lehtola,  D. S. Levine,  Yi-Pei Li,  You-Sheng Lin,  Fenglai Liu,  
 Kuan-Yu Liu,  E. Livshits,  M. Loipersberger,  A. Luenser,  P. Manohar,  
 E. Mansoor,  S. F. Manzer,  Shan-Ping Mao,  Yuezhi Mao,  N. Mardirossian,  
 A. V. Marenich,  T. Markovich,  L. A. Martinez-Martinez,  S. A. Maurer,  
 N. J. Mayhall,  S. C. McKenzie,  J.-M. Mewes,  P. Morgante,  A. F. Morrison,  
 J. W. Mullinax,  K. Nanda,  T. S. Nguyen-Beck,  R. Olivares-Amaya,  
 J. A. Parkhill,  S. K. Paul,  F. Pavosevic,  Zheng Pei,  T. M. Perrine,  
 F. Plasser,  P. Pokhilko,  S. Prager,  A. Prociuk,  E. Ramos,  B. Rana,  
 D. R. Rehn,  F. Rob,  M. Scheurer,  M. Schneider,  N. Sergueev,  
 S. M. Sharada,  S. Sharma,  D. W. Small,  T. Stauch,  C. J. Stein,  
 T. Stein,  Yu-Chuan Su,  S. P. Veccham,  Zhen Tao,  A. J. W. Thom,  
 A. Tkatchenko,  T. Tsuchimochi,  N. M. Tubman,  L. Vogt,  M. L. Vidal,  
 O. Vydrov,  M. A. Watson,  J. Wenzel,  M. de Wergifosse,  T. A. Wesolowski,  
 A. White,  J. Witte,  A. Yamada,  Jun Yang,  K. Yao,  S. Yeganeh,  
 S. R. Yost,  Zhi-Qiang You,  A. Zech,  Igor Ying Zhang,  Xing Zhang,  
 Yan Zhao,  Ying Zhu,  B. R. Brooks,  G. K. L. Chan,  C. J. Cramer,  
 M. S. Gordon,  W. J. Hehre,  A. Klamt,  M. W. Schmidt,  C. D. Sherrill,  
 D. G. Truhlar,  A. Aspuru-Guzik,  R. Baer,  A. T. Bell,  N. A. Besley,  
 Jeng-Da Chai,  A. E. DePrince, III,  R. A. DiStasio Jr.,  A. Dreuw,  
 B. D. Dunietz,  T. R. Furlani,  Chao-Ping Hsu,  Yousung Jung,  Jing Kong,  
 D. S. Lambrecht,  WanZhen Liang,  C. Ochsenfeld,  V. A. Rassolov,  
 L. V. Slipchenko,  J. E. Subotnik,  T. Van Voorhis,  J. M. Herbert,  
 A. I. Krylov,  P. M. W. Gill,  M. Head-Gordon

 Contributors to earlier versions of Q-Chem not listed above: 
 R. D. Adamson,  B. Austin,  J. Baker,  G. J. O. Beran,  K. Brandhorst,  
 S. T. Brown,  E. F. C. Byrd,  A. K. Chakraborty,  C.-L. Cheng,  
 Siu Hung Chien,  D. M. Chipman,  D. L. Crittenden,  H. Dachsel,  
 R. J. Doerksen,  A. D. Dutoi,  L. Fusti-Molnar,  W. A. Goddard III,  
 A. Golubeva-Zadorozhnaya,  S. R. Gwaltney,  G. Hawkins,  A. Heyden,  
 S. Hirata,  G. Kedziora,  F. J. Keil,  C. Kelley,  Jihan Kim,  R. A. King,  
 R. Z. Khaliullin,  P. P. Korambath,  W. Kurlancheek,  A. M. Lee,  M. S. Lee,  
 S. V. Levchenko,  Ching Yeh Lin,  D. Liotard,  R. C. Lochan,  I. Lotan,  
 P. E. Maslen,  N. Nair,  D. P. O'Neill,  D. Neuhauser,  E. Neuscamman,  
 C. M. Oana,  R. Olson,  B. Peters,  R. Peverati,  P. A. Pieniazek,  
 Y. M. Rhee,  J. Ritchie,  M. A. Rohrdanz,  E. Rosta,  N. J. Russ,  
 H. F. Schaefer III,  N. E. Schultz,  N. Shenvi,  A. C. Simmonett,  A. Sodt,  
 D. Stuck,  K. S. Thanthiriwatte,  V. Vanovschi,  Tao Wang,  A. Warshel,  
 C. F. Williams,  Q. Wu,  X. Xu,  W. Zhang

 Please cite Q-Chem as follows:
 Y. Shao et al., Mol. Phys. 113, 184-215 (2015)
 DOI: 10.1080/00268976.2014.952696

 Q-Chem 5.2.2 for Intel X86 EM64T Linux

 Parts of Q-Chem use Armadillo 9.800.1 (Horizon Scraper).
 http://arma.sourceforge.net/

 Q-Chem begins on Thu Mar 11 13:37:42 2021  

Host: n0093.mhg0
0

     Scratch files written to /local/scratch/users/ymao/r7.00_frame_0072_almo_B3LYP_dp.in20210311133739//

Checking the input file for inconsistencies... 	...done.

--------------------------------------------------------------
User input:
--------------------------------------------------------------
$molecule
0 1
--
0 1
C    28.18600   24.52800   27.62700  
C    27.28500   25.74800   27.37000  
C    26.00100   25.41000   26.59400  
C    25.22200   24.18300   27.09400  
C    26.13900   22.99700   27.43500  
C    27.40600   23.34900   28.23200  
H    25.34300   26.28400   26.66800  
H    26.97900   25.99400   28.39400  
H    28.58700   24.24000   26.64800  
H    29.07700   24.78300   28.21300  
H    24.67100   24.39600   28.01900  
H    24.52600   23.97100   26.27300  
H    25.60600   22.19500   27.95900  
H    26.52200   22.50200   26.53400  
H    27.11100   23.67200   29.23800  
H    28.11400   22.51600   28.32100  
H    26.30800   25.30300   25.54600  
N    27.96300   26.95800   26.90800  
H    28.30300   27.00900   25.95500  
C    28.22300   28.04300   27.71800  
H    28.90900   28.78900   27.27800  
O    27.90600   28.10600   28.89300  
--
0 1
C    24.67300   29.75800   24.94300  
H    25.54600   29.65400   25.59200  
H    23.99300   30.50700   25.35800  
H    24.10700   28.82300   24.94600  
S    25.08600   30.19600   23.23900  
C    26.33800   31.40100   23.73100  
H    26.75400   31.81600   22.80900  
H    25.92400   32.22300   24.32000  
H    27.21400   31.02100   24.26300  
O    23.97200   31.10200   22.81500  
C    21.51400   25.83900   32.68500  
H    22.48800   25.53900   32.29000  
H    21.32900   25.24200   33.58200  
H    20.67400   25.69000   32.00100  
S    21.54800   27.58500   33.14600  
C    22.65500   27.16100   34.51000  
H    22.68000   28.00400   35.20500  
H    22.17600   26.37200   35.09400  
H    23.64900   26.93300   34.11600  
O    20.20600   27.90800   33.72600  
C    26.35700   27.42000   33.89000  
H    26.75500   26.44200   34.17200  
H    27.07600   28.12200   34.32000  
H    25.48600   27.63600   34.51400  
S    26.03500   27.59700   32.12100  
C    26.19000   29.39100   31.97300  
H    25.96200   29.74400   30.96300  
H    25.45400   29.85500   32.63400  
H    27.23000   29.67600   32.15200  
O    24.59300   27.25600   31.90800  
C    35.23500   24.25600   32.58600  
H    36.05900   24.90100   32.90000  
H    35.61200   23.23500   32.68300  
H    34.90100   24.42900   31.56000  
S    33.87100   24.58400   33.72600  
C    32.70100   23.69700   32.67400  
H    32.73200   22.61500   32.83000  
H    31.79000   24.14300   33.08200  
H    32.85000   23.98900   31.63100  
O    33.42500   25.94400   33.28800  
C    34.46800   32.42300   29.62500  
H    34.20000   33.29500   30.22800  
H    35.50600   32.45400   29.28500  
H    33.78000   32.32700   28.78100  
S    34.45800   30.87400   30.55500  
C    34.38700   29.70600   29.17800  
H    34.22500   28.71300   29.60600  
H    33.56100   29.98400   28.51800  
H    35.29700   29.78900   28.57900  
O    33.04200   30.93800   31.03600  
C    30.70600   16.16300   24.13900  
H    30.75100   16.20200   23.04800  
H    31.56900   15.67700   24.60200  
H    29.76500   15.71000   24.45900  
S    30.52000   17.83500   24.79900  
C    31.77900   18.58500   23.74100  
H    31.95000   19.64300   23.95500  
H    32.68200   17.99700   23.92200  
H    31.49200   18.41700   22.70000  
O    31.18200   17.59800   26.12000  
C    29.65100   22.40500   31.15200  
H    30.12400   23.35800   30.90400  
H    28.87100   22.06300   30.46600  
H    29.29200   22.46300   32.18300  
S    30.81100   21.03200   30.96000  
C    31.00100   21.24200   29.17600  
H    29.99400   21.22600   28.75000  
H    31.50600   22.19900   29.02100  
H    31.61600   20.54300   28.60400  
O    29.88700   19.85400   30.97900  
C    25.00200   24.07400   31.76700  
H    24.19700   23.34500   31.88600  
H    24.71100   25.01500   32.24300  
H    25.09300   24.21700   30.68800  
S    26.54500   23.32500   32.33600  
C    26.22400   21.70000   31.61400  
H    25.47800   21.15000   32.19400  
H    25.82200   21.88200   30.61300  
H    27.13100   21.10800   31.46700  
O    26.06700   23.19200   33.74800  
C    20.84200   23.46900   25.50200  
H    20.01900   22.83900   25.84900  
H    20.58700   23.80600   24.49400  
H    21.80400   22.96100   25.60700  
S    20.79500   25.03800   26.39800  
C    20.76400   24.50200   28.12400  
H    20.51600   23.44200   28.22100  
H    21.74300   24.68700   28.57200  
H    20.07300   25.14000   28.68000  
O    19.37500   25.44200   26.14800  
C    36.84500   24.05300   29.28100  
H    37.10500   24.91600   28.66300  
H    36.78800   24.38600   30.32100  
H    37.58800   23.27400   29.09300  
S    35.26800   23.37300   28.71900  
C    35.18500   22.08100   29.98000  
H    35.21300   22.35900   31.03700  
H    34.33600   21.47600   29.65300  
H    35.99400   21.39500   29.71600  
O    35.61700   22.63100   27.46700  
C    32.75200   27.11800   25.93300  
H    32.05100   27.93200   26.13900  
H    33.65000   27.15700   26.55500  
H    33.12600   27.11800   24.90600  
S    31.68500   25.67600   26.15100  
C    33.06500   24.52600   25.95500  
H    33.28300   24.43000   24.88800  
H    33.92200   24.94300   26.49000  
H    32.95900   23.57100   26.47600  
O    30.84200   25.62700   24.91600  
C    30.23500   29.83700   24.83100  
H    30.91800   29.85500   23.97800  
H    29.99100   28.87700   25.29400  
H    29.28500   30.25500   24.48800  
S    30.88200   30.98500   26.06800  
C    31.69200   32.12700   24.92600  
H    32.24900   32.88300   25.48500  
H    32.39400   31.60200   24.27300  
H    30.94200   32.71200   24.38700  
O    31.94000   30.16800   26.74100  
C    27.97100   27.68600   21.49400  
H    28.29800   28.72500   21.40200  
H    28.40400   27.09400   20.68400  
H    26.88300   27.64600   21.40300  
S    28.47500   27.05600   23.11100  
C    27.59800   25.48300   23.26100  
H    27.96800   24.75600   22.53500  
H    27.99100   25.17100   24.23200  
H    26.51700   25.53500   23.10900  
O    27.71300   27.96800   24.02200  
C    21.87500   19.83200   23.39700  
H    21.88200   18.95200   22.74800  
H    22.47300   20.56700   22.85300  
H    22.08700   19.66400   24.45600  
S    20.25100   20.62500   23.43000  
C    19.36100   19.24900   24.19000  
H    19.48200   18.44500   23.45900  
H    19.81900   18.99100   25.14900  
H    18.34400   19.59000   24.39800  
O    19.81900   20.52600   22.00000  
C    26.00300   31.70600   29.00000  
H    25.78600   32.19900   29.95000  
H    25.03600   31.39600   28.59600  
H    26.67100   30.84500   29.08300  
S    26.73400   33.01400   27.98900  
C    25.20000   33.92200   27.69700  
H    24.26700   33.35700   27.77100  
H    25.14900   34.65100   28.51000  
H    25.22800   34.40400   26.71600  
O    27.16300   32.26000   26.76900  
C    22.28600   23.20400   21.66400  
H    21.38400   23.40200   22.24800  
H    22.19800   23.73200   20.71100  
H    22.28100   22.16800   21.31400  
S    23.68600   23.59500   22.73800  
C    24.95200   22.63500   21.87800  
H    24.52900   22.26700   20.94000  
H    25.89500   23.14600   21.66800  
H    25.24900   21.74500   22.43700  
O    23.50500   22.68100   23.91000  
C    24.49000   28.65500   28.46300  
H    25.34700   29.32900   28.39500  
H    24.77000   27.76500   29.03300  
H    24.02500   28.34300   27.52400  
S    23.26000   29.45900   29.51400  
C    22.08500   28.08700   29.55700  
H    22.19300   27.56700   30.51200  
H    21.02400   28.32700   29.45600  
H    22.53000   27.47100   28.77100  
O    22.68700   30.52700   28.63500  
C    23.07700   16.99200   28.64300  
H    22.95600   17.96800   29.12000  
H    22.93000   16.23100   29.41300  
H    24.13100   16.88600   28.37100  
S    22.02800   16.68600   27.20400  
C    22.78400   15.18500   26.54100  
H    22.24800   14.89000   25.63500  
H    23.79200   15.52100   26.28400  
H    22.84100   14.40800   27.30800  
O    22.54100   17.69900   26.22900  
C    24.96900   20.29700   25.48400  
H    24.83100   21.37200   25.34700  
H    23.93800   19.94500   25.56900  
H    25.64800   20.15000   26.32800  
S    25.56400   19.53500   23.95700  
C    25.80100   17.85200   24.57200  
H    24.82300   17.39300   24.73600  
H    26.22000   17.34700   23.69800  
H    26.38300   17.72900   25.48900  
O    26.97200   20.03400   23.86300  
C    22.29300   21.13100   27.57800  
H    22.38300   20.09900   27.22900  
H    21.22800   21.26600   27.77900  
H    22.66800   21.89200   26.88900  
S    23.03700   21.30000   29.21700  
C    21.87400   20.49600   30.34200  
H    22.04100   19.41900   30.26200  
H    22.04800   20.61800   31.41400  
H    20.81900   20.74700   30.20300  
O    22.77200   22.75500   29.44800  
C    21.49200   26.51900   22.94600  
H    22.38500   26.89500   23.45200  
H    20.64700   26.97300   23.47100  
H    21.41300   25.44900   23.15600  
S    21.49200   27.06800   21.22500  
C    19.90900   26.36100   20.71300  
H    19.62100   26.83100   19.76900  
H    19.98400   25.27700   20.59700  
H    19.04600   26.58800   21.34400  
O    22.45700   26.14200   20.55100  
C    29.38100   21.83500   25.20700  
H    29.59200   22.25800   26.19200  
H    28.33500   21.61000   24.98600  
H    29.73300   20.81000   25.06000  
S    30.08000   22.77000   23.82800  
C    29.52300   21.79500   22.41200  
H    29.62200   22.29900   21.44700  
H    30.24500   20.97500   22.41100  
H    28.51500   21.44600   22.64900  
O    31.54100   22.44400   23.81500  
C    27.91800   18.95800   27.73700  
H    27.38300   18.90200   26.78500  
H    28.09300   20.02300   27.91200  
H    28.85000   18.39900   27.63100  
S    26.93600   18.37100   29.13600  
C    26.83700   16.66000   28.56600  
H    26.34900   16.65200   27.58800  
H    27.85200   16.25600   28.59600  
H    26.27000   16.17100   29.36200  
O    25.56400   18.89300   28.84400  
C    29.62400   31.96400   29.35000  
H    30.67600   31.73900   29.15800  
H    28.86900   31.32200   28.88900  
H    29.50000   33.00300   29.03200  
S    29.38600   31.92700   31.14100  
C    29.85700   30.20300   31.41000  
H    29.37400   29.62100   30.62100  
H    30.92700   30.07800   31.22600  
H    29.68000   29.80700   32.41300  
O    27.90500   31.94400   31.36500  
C    29.67200   26.47600   31.06200  
H    29.46300   25.65500   31.75200  
H    29.56400   27.38800   31.65400  
H    29.00300   26.33800   30.20800  
S    31.38200   26.32100   30.49900  
C    31.27200   27.56100   29.18900  
H    30.64400   27.12900   28.40500  
H    30.89300   28.53000   29.52300  
H    32.29300   27.63500   28.80800  
O    31.44000   25.02100   29.75800  
$end

$rem
JOBTYPE  SP
METHOD  B3LYP
BASIS  6-31+G(D)
SYMMETRY  FALSE
SYM_IGNORE  TRUE
MEM_TOTAL  16000
MEM_STATIC  8000
MAX_SUB_FILE_NUM  16000
BASIS_LIN_DEP_THRESH  6
THRESH  14
SCF_CONVERGENCE  8
GEN_SCFMAN  TRUE
SCF_GUESS  FRAGMO
FD_MAT_VEC_PROD  FALSE
XC_GRID  000075000302
NL_GRID  1
MAX_SCF_CYCLES  200
FRGM_METHOD  STOLL
SCFMI_MODE  1
$end

$development
almo_efield  1
$end

$rem_frgm
SCF_CONVERGENCE  4
$end

--------------------------------------------------------------
 ----------------------------------------------------------------
             Standard Nuclear Orientation (Angstroms)
    I     Atom           X                Y                Z
 ----------------------------------------------------------------
    1      C      28.1860000000    24.5280000000    27.6270000000
    2      C      27.2850000000    25.7480000000    27.3700000000
    3      C      26.0010000000    25.4100000000    26.5940000000
    4      C      25.2220000000    24.1830000000    27.0940000000
    5      C      26.1390000000    22.9970000000    27.4350000000
    6      C      27.4060000000    23.3490000000    28.2320000000
    7      H      25.3430000000    26.2840000000    26.6680000000
    8      H      26.9790000000    25.9940000000    28.3940000000
    9      H      28.5870000000    24.2400000000    26.6480000000
   10      H      29.0770000000    24.7830000000    28.2130000000
   11      H      24.6710000000    24.3960000000    28.0190000000
   12      H      24.5260000000    23.9710000000    26.2730000000
   13      H      25.6060000000    22.1950000000    27.9590000000
   14      H      26.5220000000    22.5020000000    26.5340000000
   15      H      27.1110000000    23.6720000000    29.2380000000
   16      H      28.1140000000    22.5160000000    28.3210000000
   17      H      26.3080000000    25.3030000000    25.5460000000
   18      N      27.9630000000    26.9580000000    26.9080000000
   19      H      28.3030000000    27.0090000000    25.9550000000
   20      C      28.2230000000    28.0430000000    27.7180000000
   21      H      28.9090000000    28.7890000000    27.2780000000
   22      O      27.9060000000    28.1060000000    28.8930000000
   23      C      24.6730000000    29.7580000000    24.9430000000
   24      H      25.5460000000    29.6540000000    25.5920000000
   25      H      23.9930000000    30.5070000000    25.3580000000
   26      H      24.1070000000    28.8230000000    24.9460000000
   27      S      25.0860000000    30.1960000000    23.2390000000
   28      C      26.3380000000    31.4010000000    23.7310000000
   29      H      26.7540000000    31.8160000000    22.8090000000
   30      H      25.9240000000    32.2230000000    24.3200000000
   31      H      27.2140000000    31.0210000000    24.2630000000
   32      O      23.9720000000    31.1020000000    22.8150000000
   33      C      21.5140000000    25.8390000000    32.6850000000
   34      H      22.4880000000    25.5390000000    32.2900000000
   35      H      21.3290000000    25.2420000000    33.5820000000
   36      H      20.6740000000    25.6900000000    32.0010000000
   37      S      21.5480000000    27.5850000000    33.1460000000
   38      C      22.6550000000    27.1610000000    34.5100000000
   39      H      22.6800000000    28.0040000000    35.2050000000
   40      H      22.1760000000    26.3720000000    35.0940000000
   41      H      23.6490000000    26.9330000000    34.1160000000
   42      O      20.2060000000    27.9080000000    33.7260000000
   43      C      26.3570000000    27.4200000000    33.8900000000
   44      H      26.7550000000    26.4420000000    34.1720000000
   45      H      27.0760000000    28.1220000000    34.3200000000
   46      H      25.4860000000    27.6360000000    34.5140000000
   47      S      26.0350000000    27.5970000000    32.1210000000
   48      C      26.1900000000    29.3910000000    31.9730000000
   49      H      25.9620000000    29.7440000000    30.9630000000
   50      H      25.4540000000    29.8550000000    32.6340000000
   51      H      27.2300000000    29.6760000000    32.1520000000
   52      O      24.5930000000    27.2560000000    31.9080000000
   53      C      35.2350000000    24.2560000000    32.5860000000
   54      H      36.0590000000    24.9010000000    32.9000000000
   55      H      35.6120000000    23.2350000000    32.6830000000
   56      H      34.9010000000    24.4290000000    31.5600000000
   57      S      33.8710000000    24.5840000000    33.7260000000
   58      C      32.7010000000    23.6970000000    32.6740000000
   59      H      32.7320000000    22.6150000000    32.8300000000
   60      H      31.7900000000    24.1430000000    33.0820000000
   61      H      32.8500000000    23.9890000000    31.6310000000
   62      O      33.4250000000    25.9440000000    33.2880000000
   63      C      34.4680000000    32.4230000000    29.6250000000
   64      H      34.2000000000    33.2950000000    30.2280000000
   65      H      35.5060000000    32.4540000000    29.2850000000
   66      H      33.7800000000    32.3270000000    28.7810000000
   67      S      34.4580000000    30.8740000000    30.5550000000
   68      C      34.3870000000    29.7060000000    29.1780000000
   69      H      34.2250000000    28.7130000000    29.6060000000
   70      H      33.5610000000    29.9840000000    28.5180000000
   71      H      35.2970000000    29.7890000000    28.5790000000
   72      O      33.0420000000    30.9380000000    31.0360000000
   73      C      30.7060000000    16.1630000000    24.1390000000
   74      H      30.7510000000    16.2020000000    23.0480000000
   75      H      31.5690000000    15.6770000000    24.6020000000
   76      H      29.7650000000    15.7100000000    24.4590000000
   77      S      30.5200000000    17.8350000000    24.7990000000
   78      C      31.7790000000    18.5850000000    23.7410000000
   79      H      31.9500000000    19.6430000000    23.9550000000
   80      H      32.6820000000    17.9970000000    23.9220000000
   81      H      31.4920000000    18.4170000000    22.7000000000
   82      O      31.1820000000    17.5980000000    26.1200000000
   83      C      29.6510000000    22.4050000000    31.1520000000
   84      H      30.1240000000    23.3580000000    30.9040000000
   85      H      28.8710000000    22.0630000000    30.4660000000
   86      H      29.2920000000    22.4630000000    32.1830000000
   87      S      30.8110000000    21.0320000000    30.9600000000
   88      C      31.0010000000    21.2420000000    29.1760000000
   89      H      29.9940000000    21.2260000000    28.7500000000
   90      H      31.5060000000    22.1990000000    29.0210000000
   91      H      31.6160000000    20.5430000000    28.6040000000
   92      O      29.8870000000    19.8540000000    30.9790000000
   93      C      25.0020000000    24.0740000000    31.7670000000
   94      H      24.1970000000    23.3450000000    31.8860000000
   95      H      24.7110000000    25.0150000000    32.2430000000
   96      H      25.0930000000    24.2170000000    30.6880000000
   97      S      26.5450000000    23.3250000000    32.3360000000
   98      C      26.2240000000    21.7000000000    31.6140000000
   99      H      25.4780000000    21.1500000000    32.1940000000
  100      H      25.8220000000    21.8820000000    30.6130000000
  101      H      27.1310000000    21.1080000000    31.4670000000
  102      O      26.0670000000    23.1920000000    33.7480000000
  103      C      20.8420000000    23.4690000000    25.5020000000
  104      H      20.0190000000    22.8390000000    25.8490000000
  105      H      20.5870000000    23.8060000000    24.4940000000
  106      H      21.8040000000    22.9610000000    25.6070000000
  107      S      20.7950000000    25.0380000000    26.3980000000
  108      C      20.7640000000    24.5020000000    28.1240000000
  109      H      20.5160000000    23.4420000000    28.2210000000
  110      H      21.7430000000    24.6870000000    28.5720000000
  111      H      20.0730000000    25.1400000000    28.6800000000
  112      O      19.3750000000    25.4420000000    26.1480000000
  113      C      36.8450000000    24.0530000000    29.2810000000
  114      H      37.1050000000    24.9160000000    28.6630000000
  115      H      36.7880000000    24.3860000000    30.3210000000
  116      H      37.5880000000    23.2740000000    29.0930000000
  117      S      35.2680000000    23.3730000000    28.7190000000
  118      C      35.1850000000    22.0810000000    29.9800000000
  119      H      35.2130000000    22.3590000000    31.0370000000
  120      H      34.3360000000    21.4760000000    29.6530000000
  121      H      35.9940000000    21.3950000000    29.7160000000
  122      O      35.6170000000    22.6310000000    27.4670000000
  123      C      32.7520000000    27.1180000000    25.9330000000
  124      H      32.0510000000    27.9320000000    26.1390000000
  125      H      33.6500000000    27.1570000000    26.5550000000
  126      H      33.1260000000    27.1180000000    24.9060000000
  127      S      31.6850000000    25.6760000000    26.1510000000
  128      C      33.0650000000    24.5260000000    25.9550000000
  129      H      33.2830000000    24.4300000000    24.8880000000
  130      H      33.9220000000    24.9430000000    26.4900000000
  131      H      32.9590000000    23.5710000000    26.4760000000
  132      O      30.8420000000    25.6270000000    24.9160000000
  133      C      30.2350000000    29.8370000000    24.8310000000
  134      H      30.9180000000    29.8550000000    23.9780000000
  135      H      29.9910000000    28.8770000000    25.2940000000
  136      H      29.2850000000    30.2550000000    24.4880000000
  137      S      30.8820000000    30.9850000000    26.0680000000
  138      C      31.6920000000    32.1270000000    24.9260000000
  139      H      32.2490000000    32.8830000000    25.4850000000
  140      H      32.3940000000    31.6020000000    24.2730000000
  141      H      30.9420000000    32.7120000000    24.3870000000
  142      O      31.9400000000    30.1680000000    26.7410000000
  143      C      27.9710000000    27.6860000000    21.4940000000
  144      H      28.2980000000    28.7250000000    21.4020000000
  145      H      28.4040000000    27.0940000000    20.6840000000
  146      H      26.8830000000    27.6460000000    21.4030000000
  147      S      28.4750000000    27.0560000000    23.1110000000
  148      C      27.5980000000    25.4830000000    23.2610000000
  149      H      27.9680000000    24.7560000000    22.5350000000
  150      H      27.9910000000    25.1710000000    24.2320000000
  151      H      26.5170000000    25.5350000000    23.1090000000
  152      O      27.7130000000    27.9680000000    24.0220000000
  153      C      21.8750000000    19.8320000000    23.3970000000
  154      H      21.8820000000    18.9520000000    22.7480000000
  155      H      22.4730000000    20.5670000000    22.8530000000
  156      H      22.0870000000    19.6640000000    24.4560000000
  157      S      20.2510000000    20.6250000000    23.4300000000
  158      C      19.3610000000    19.2490000000    24.1900000000
  159      H      19.4820000000    18.4450000000    23.4590000000
  160      H      19.8190000000    18.9910000000    25.1490000000
  161      H      18.3440000000    19.5900000000    24.3980000000
  162      O      19.8190000000    20.5260000000    22.0000000000
  163      C      26.0030000000    31.7060000000    29.0000000000
  164      H      25.7860000000    32.1990000000    29.9500000000
  165      H      25.0360000000    31.3960000000    28.5960000000
  166      H      26.6710000000    30.8450000000    29.0830000000
  167      S      26.7340000000    33.0140000000    27.9890000000
  168      C      25.2000000000    33.9220000000    27.6970000000
  169      H      24.2670000000    33.3570000000    27.7710000000
  170      H      25.1490000000    34.6510000000    28.5100000000
  171      H      25.2280000000    34.4040000000    26.7160000000
  172      O      27.1630000000    32.2600000000    26.7690000000
  173      C      22.2860000000    23.2040000000    21.6640000000
  174      H      21.3840000000    23.4020000000    22.2480000000
  175      H      22.1980000000    23.7320000000    20.7110000000
  176      H      22.2810000000    22.1680000000    21.3140000000
  177      S      23.6860000000    23.5950000000    22.7380000000
  178      C      24.9520000000    22.6350000000    21.8780000000
  179      H      24.5290000000    22.2670000000    20.9400000000
  180      H      25.8950000000    23.1460000000    21.6680000000
  181      H      25.2490000000    21.7450000000    22.4370000000
  182      O      23.5050000000    22.6810000000    23.9100000000
  183      C      24.4900000000    28.6550000000    28.4630000000
  184      H      25.3470000000    29.3290000000    28.3950000000
  185      H      24.7700000000    27.7650000000    29.0330000000
  186      H      24.0250000000    28.3430000000    27.5240000000
  187      S      23.2600000000    29.4590000000    29.5140000000
  188      C      22.0850000000    28.0870000000    29.5570000000
  189      H      22.1930000000    27.5670000000    30.5120000000
  190      H      21.0240000000    28.3270000000    29.4560000000
  191      H      22.5300000000    27.4710000000    28.7710000000
  192      O      22.6870000000    30.5270000000    28.6350000000
  193      C      23.0770000000    16.9920000000    28.6430000000
  194      H      22.9560000000    17.9680000000    29.1200000000
  195      H      22.9300000000    16.2310000000    29.4130000000
  196      H      24.1310000000    16.8860000000    28.3710000000
  197      S      22.0280000000    16.6860000000    27.2040000000
  198      C      22.7840000000    15.1850000000    26.5410000000
  199      H      22.2480000000    14.8900000000    25.6350000000
  200      H      23.7920000000    15.5210000000    26.2840000000
  201      H      22.8410000000    14.4080000000    27.3080000000
  202      O      22.5410000000    17.6990000000    26.2290000000
  203      C      24.9690000000    20.2970000000    25.4840000000
  204      H      24.8310000000    21.3720000000    25.3470000000
  205      H      23.9380000000    19.9450000000    25.5690000000
  206      H      25.6480000000    20.1500000000    26.3280000000
  207      S      25.5640000000    19.5350000000    23.9570000000
  208      C      25.8010000000    17.8520000000    24.5720000000
  209      H      24.8230000000    17.3930000000    24.7360000000
  210      H      26.2200000000    17.3470000000    23.6980000000
  211      H      26.3830000000    17.7290000000    25.4890000000
  212      O      26.9720000000    20.0340000000    23.8630000000
  213      C      22.2930000000    21.1310000000    27.5780000000
  214      H      22.3830000000    20.0990000000    27.2290000000
  215      H      21.2280000000    21.2660000000    27.7790000000
  216      H      22.6680000000    21.8920000000    26.8890000000
  217      S      23.0370000000    21.3000000000    29.2170000000
  218      C      21.8740000000    20.4960000000    30.3420000000
  219      H      22.0410000000    19.4190000000    30.2620000000
  220      H      22.0480000000    20.6180000000    31.4140000000
  221      H      20.8190000000    20.7470000000    30.2030000000
  222      O      22.7720000000    22.7550000000    29.4480000000
  223      C      21.4920000000    26.5190000000    22.9460000000
  224      H      22.3850000000    26.8950000000    23.4520000000
  225      H      20.6470000000    26.9730000000    23.4710000000
  226      H      21.4130000000    25.4490000000    23.1560000000
  227      S      21.4920000000    27.0680000000    21.2250000000
  228      C      19.9090000000    26.3610000000    20.7130000000
  229      H      19.6210000000    26.8310000000    19.7690000000
  230      H      19.9840000000    25.2770000000    20.5970000000
  231      H      19.0460000000    26.5880000000    21.3440000000
  232      O      22.4570000000    26.1420000000    20.5510000000
  233      C      29.3810000000    21.8350000000    25.2070000000
  234      H      29.5920000000    22.2580000000    26.1920000000
  235      H      28.3350000000    21.6100000000    24.9860000000
  236      H      29.7330000000    20.8100000000    25.0600000000
  237      S      30.0800000000    22.7700000000    23.8280000000
  238      C      29.5230000000    21.7950000000    22.4120000000
  239      H      29.6220000000    22.2990000000    21.4470000000
  240      H      30.2450000000    20.9750000000    22.4110000000
  241      H      28.5150000000    21.4460000000    22.6490000000
  242      O      31.5410000000    22.4440000000    23.8150000000
  243      C      27.9180000000    18.9580000000    27.7370000000
  244      H      27.3830000000    18.9020000000    26.7850000000
  245      H      28.0930000000    20.0230000000    27.9120000000
  246      H      28.8500000000    18.3990000000    27.6310000000
  247      S      26.9360000000    18.3710000000    29.1360000000
  248      C      26.8370000000    16.6600000000    28.5660000000
  249      H      26.3490000000    16.6520000000    27.5880000000
  250      H      27.8520000000    16.2560000000    28.5960000000
  251      H      26.2700000000    16.1710000000    29.3620000000
  252      O      25.5640000000    18.8930000000    28.8440000000
  253      C      29.6240000000    31.9640000000    29.3500000000
  254      H      30.6760000000    31.7390000000    29.1580000000
  255      H      28.8690000000    31.3220000000    28.8890000000
  256      H      29.5000000000    33.0030000000    29.0320000000
  257      S      29.3860000000    31.9270000000    31.1410000000
  258      C      29.8570000000    30.2030000000    31.4100000000
  259      H      29.3740000000    29.6210000000    30.6210000000
  260      H      30.9270000000    30.0780000000    31.2260000000
  261      H      29.6800000000    29.8070000000    32.4130000000
  262      O      27.9050000000    31.9440000000    31.3650000000
  263      C      29.6720000000    26.4760000000    31.0620000000
  264      H      29.4630000000    25.6550000000    31.7520000000
  265      H      29.5640000000    27.3880000000    31.6540000000
  266      H      29.0030000000    26.3380000000    30.2080000000
  267      S      31.3820000000    26.3210000000    30.4990000000
  268      C      31.2720000000    27.5610000000    29.1890000000
  269      H      30.6440000000    27.1290000000    28.4050000000
  270      H      30.8930000000    28.5300000000    29.5230000000
  271      H      32.2930000000    27.6350000000    28.8080000000
  272      O      31.4400000000    25.0210000000    29.7580000000
 ----------------------------------------------------------------
 Nuclear Repulsion Energy =       42675.46420679 hartrees
 There are      560 alpha and      560 beta electrons
 Requested basis set is 6-31+G(d)
 There are 896 shells and 2497 basis functions

 Total QAlloc Memory Limit  16000 MB
 Mega-Array Size      7821 MB
 MEM_STATIC part      8000 MB
 A cutoff of  1.0D-14 yielded 159519 shell pairs
 There are   1376583 function pairs
 Smallest overlap matrix eigenvalue = 5.52E-07
 Linear dependence detected in AO basis
 Tighter screening thresholds may be required for diffuse basis sets
 Use S2THRESH > 14 and THRESH = 14 in case of SCF convergence issues
 Number of orthogonalized atomic orbitals = 2495
 Maximum deviation from orthogonality = 2.835E-10

 Scale SEOQF with 1.000000e-03/1.000000e-03/1.000000e-03

 Standard Electronic Orientation quadrupole field applied
 Nucleus-field energy     =    -0.0000001110 hartrees
Attempting to make child job directory: /local/scratch/users/ymao/r7.00_frame_0072_almo_B3LYP_dp.in20210311133739//Frg1/
Attempting to make child job directory: /local/scratch/users/ymao/r7.00_frame_0072_almo_B3LYP_dp.in20210311133739//Frg2/
Creating input file /local/scratch/users/ymao/r7.00_frame_0072_almo_B3LYP_dp.in20210311133739/Frg1.input
using default PutDataFrgm: nothing
calling putenv with: QCSCRATCH=/local/scratch/users/ymao/r7.00_frame_0072_almo_B3LYP_dp.in20210311133739/ 
Spawning Job For Fragment 0
Done Job For Fragment 0
calling putenv with: QCSCRATCH=/local/scratch/users/ymao 
calling putenv with: QCTHREADS=8 
Creating input file /local/scratch/users/ymao/r7.00_frame_0072_almo_B3LYP_dp.in20210311133739/Frg2.input
using default PutDataFrgm: nothing
calling putenv with: QCSCRATCH=/local/scratch/users/ymao/r7.00_frame_0072_almo_B3LYP_dp.in20210311133739/ 
Spawning Job For Fragment 1
Done Job For Fragment 1
calling putenv with: QCSCRATCH=/local/scratch/users/ymao 
calling putenv with: QCTHREADS=8 
 Time for running child jobs:  CPU 0.77 s  wall 16848.66 s

 -----------------------------------------------------------------------
  General SCF calculation program by
  Eric Jon Sundstrom, Paul Horn, Yuezhi Mao, Dmitri Zuev, Alec White,
  David Stuck, Shaama M.S., Shane Yost, Joonho Lee, David Small,
  Daniel Levine, Susi Lehtola, Hugh Burton, Evgeny Epifanovsky,
  Bang C. Huynh
 -----------------------------------------------------------------------
Performing Restricted Closed Shell SCFMI
Doing General SCFMI
 Exchange:     0.2000 Hartree-Fock + 0.0800 Slater + 0.7200 B88
 Correlation:  0.1900 VWN1RPA + 0.8100 LYP
 Using Euler-Maclaurin-Lebedev (75,302) quadrature formula
performing fock build before subrot guess so that all methods have access
Printing subrot_rss_gen Method Specification:
Occupied Subspace Method is 0
Virtual Subspace Method is 0
Energy prior to optimization (guess energy) = -14234.305944735737
Begin Timing: Total SCF Calculation
begin iterations for algorithm: DIIS         
the SCF tolerance is set to 1.00e-08
    1  -14234.3059447357      3.86e-05     00000 
    2  -14234.3081307467      5.16e-05     00000 
    3  -14234.3134602255      1.79e-05     00000 
    4  -14234.3141227822      6.65e-06     00000 
    5  -14234.3142366839      3.20e-06     00000 
    6  -14234.3142611117      1.82e-06     00000 
    7  -14234.3142680977      1.30e-06     00000 
    8  -14234.3142718565      6.43e-07     00000 
    9  -14234.3142726800      3.70e-07     00000 
   10  -14234.3142728954      2.46e-07     00000 
   11  -14234.3142729952      1.58e-07     00000 
   12  -14234.3142730445      8.24e-08     00000 
   13  -14234.3142730603      3.98e-08     00000 
   14  -14234.3142730641      2.68e-08     00000 
   15  -14234.3142730647      1.89e-08     00000 
   16  -14234.3142730655      8.53e-09     00000 Convergence criterion met
write pseudocanon occs and virts to disk
write pseudocanon orbital energies to disk
Timing for Total SCF: 42320.00s (wall), 335149.05s (cpu)
SCFMI Energy  -14234.3142730655
<S^2>            0.00000
 Total energy in the final basis set =   -14234.3142730655
    ==================================================
        The end of Object-Oriented SCFman: SCFMI      
    ==================================================
 
 --------------------------------------------------------------
 
                    Orbital Energies (a.u.)
 --------------------------------------------------------------
 
 Alpha MOs
 -- Occupied --
-89.0307 -89.0135 -89.0129 -89.0119 -89.0117 -89.0117 -89.0087 -89.0087
-89.0060 -89.0050 -89.0039 -89.0028 -88.9996 -88.9987 -88.9963 -88.9943
-88.9921 -88.9871 -88.9859 -88.9855 -88.9845 -88.9832 -88.9743 -88.9735
-88.9734 -19.1423 -19.1366 -19.1287 -19.1284 -19.1279 -19.1260 -19.1227
-19.1222 -19.1202 -19.1199 -19.1179 -19.1173 -19.1145 -19.1133 -19.1124
-19.1099 -19.1089 -19.1078 -19.1028 -19.1013 -19.0994 -19.0946 -19.0935
-19.0929 -19.0900 -19.0842 -14.3693 -10.2991 -10.2523 -10.2390 -10.2377
-10.2350 -10.2328 -10.2323 -10.2307 -10.2305 -10.2282 -10.2274 -10.2268
-10.2265 -10.2261 -10.2260 -10.2224 -10.2221 -10.2221 -10.2220 -10.2218
-10.2210 -10.2173 -10.2171 -10.2157 -10.2153 -10.2148 -10.2140 -10.2128
-10.2117 -10.2115 -10.2109 -10.2107 -10.2103 -10.2084 -10.2077 -10.2062
-10.2060 -10.2057 -10.2048 -10.2037 -10.2025 -10.1994 -10.1981 -10.1978
-10.1954 -10.1953 -10.1942 -10.1924 -10.1920 -10.1915 -10.1910 -10.1903
-10.1894 -10.1892 -10.1879 -10.1839 -10.1823  -8.0769  -8.0588  -8.0583
 -8.0583  -8.0577  -8.0577  -8.0546  -8.0544  -8.0525  -8.0516  -8.0499
 -8.0484  -8.0452  -8.0441  -8.0421  -8.0408  -8.0382  -8.0332  -8.0318
 -8.0312  -8.0305  -8.0296  -8.0205  -8.0194  -8.0189  -6.0413  -6.0401
 -6.0342  -6.0232  -6.0227  -6.0223  -6.0220  -6.0219  -6.0218  -6.0215
 -6.0213  -6.0210  -6.0208  -6.0192  -6.0189  -6.0177  -6.0177  -6.0168
 -6.0162  -6.0162  -6.0158  -6.0157  -6.0156  -6.0152  -6.0150  -6.0147
 -6.0143  -6.0133  -6.0127  -6.0117  -6.0115  -6.0114  -6.0098  -6.0095
 -6.0091  -6.0087  -6.0085  -6.0073  -6.0069  -6.0067  -6.0061  -6.0052
 -6.0050  -6.0039  -6.0025  -6.0025  -6.0012  -6.0011  -5.9993  -5.9983
 -5.9976  -5.9962  -5.9962  -5.9960  -5.9956  -5.9951  -5.9950  -5.9944
 -5.9938  -5.9935  -5.9929  -5.9906  -5.9888  -5.9884  -5.9877  -5.9870
 -5.9850  -5.9837  -5.9837  -5.9830  -5.9824  -5.9821  -5.9777  -5.9770
 -5.9765  -1.0550  -1.0523  -1.0391  -1.0380  -1.0374  -1.0373  -1.0359
 -1.0340  -1.0326  -1.0296  -1.0295  -1.0294  -1.0274  -1.0269  -1.0232
 -1.0197  -1.0196  -1.0188  -1.0106  -1.0106  -1.0102  -1.0098  -1.0052
 -0.9986  -0.9983  -0.9937  -0.9284  -0.8322  -0.8258  -0.8158  -0.8147
 -0.8128  -0.8089  -0.8072  -0.8060  -0.8051  -0.8045  -0.8022  -0.8016
 -0.8004  -0.7993  -0.7977  -0.7965  -0.7934  -0.7914  -0.7896  -0.7884
 -0.7872  -0.7859  -0.7845  -0.7838  -0.7797  -0.7663  -0.7592  -0.7550
 -0.7501  -0.7472  -0.7434  -0.7425  -0.7407  -0.7400  -0.7394  -0.7375
 -0.7369  -0.7342  -0.7336  -0.7278  -0.7269  -0.7261  -0.7258  -0.7241
 -0.7238  -0.7180  -0.7178  -0.7119  -0.7098  -0.7093  -0.7056  -0.6986
 -0.6952  -0.6458  -0.6441  -0.6306  -0.6287  -0.6275  -0.6271  -0.6250
 -0.6234  -0.6231  -0.6193  -0.6179  -0.6178  -0.6165  -0.6157  -0.6139
 -0.6134  -0.6095  -0.6055  -0.6045  -0.6028  -0.6008  -0.5987  -0.5980
 -0.5946  -0.5944  -0.5900  -0.5883  -0.5853  -0.5745  -0.5331  -0.5091
 -0.5043  -0.5033  -0.5009  -0.4991  -0.4976  -0.4948  -0.4946  -0.4930
 -0.4909  -0.4899  -0.4898  -0.4892  -0.4880  -0.4862  -0.4854  -0.4834
 -0.4833  -0.4828  -0.4818  -0.4817  -0.4802  -0.4796  -0.4784  -0.4779
 -0.4778  -0.4775  -0.4773  -0.4767  -0.4766  -0.4759  -0.4753  -0.4748
 -0.4746  -0.4737  -0.4726  -0.4720  -0.4704  -0.4703  -0.4697  -0.4695
 -0.4686  -0.4681  -0.4667  -0.4664  -0.4661  -0.4652  -0.4637  -0.4623
 -0.4617  -0.4612  -0.4603  -0.4594  -0.4591  -0.4576  -0.4569  -0.4561
 -0.4556  -0.4549  -0.4532  -0.4530  -0.4523  -0.4520  -0.4518  -0.4513
 -0.4504  -0.4498  -0.4494  -0.4485  -0.4473  -0.4468  -0.4453  -0.4446
 -0.4440  -0.4437  -0.4432  -0.4427  -0.4421  -0.4419  -0.4400  -0.4396
 -0.4387  -0.4375  -0.4373  -0.4368  -0.4364  -0.4363  -0.4351  -0.4340
 -0.4329  -0.4318  -0.4313  -0.4298  -0.4290  -0.4275  -0.4271  -0.4266
 -0.4247  -0.4245  -0.4236  -0.4235  -0.4231  -0.4223  -0.4219  -0.4199
 -0.4197  -0.4182  -0.4172  -0.4166  -0.4158  -0.4158  -0.4156  -0.4152
 -0.4134  -0.4125  -0.4117  -0.4104  -0.4099  -0.4083  -0.4083  -0.4078
 -0.4072  -0.4064  -0.4062  -0.4058  -0.4057  -0.4045  -0.4043  -0.4032
 -0.4023  -0.4019  -0.4011  -0.4008  -0.3989  -0.3982  -0.3951  -0.3947
 -0.3943  -0.3940  -0.3935  -0.3931  -0.3923  -0.3918  -0.3914  -0.3907
 -0.3906  -0.3899  -0.3893  -0.3886  -0.3885  -0.3879  -0.3869  -0.3858
 -0.3826  -0.3820  -0.3813  -0.3804  -0.3795  -0.3758  -0.3731  -0.3725
 -0.3710  -0.3699  -0.3681  -0.3677  -0.3670  -0.3661  -0.3645  -0.3632
 -0.3627  -0.3624  -0.3600  -0.3596  -0.3594  -0.3579  -0.3570  -0.3524
 -0.3507  -0.3485  -0.3477  -0.3451  -0.3426  -0.3413  -0.3401  -0.3369
 -0.3330  -0.3297  -0.3252  -0.3115  -0.3054  -0.2922  -0.2897  -0.2889
 -0.2863  -0.2860  -0.2853  -0.2848  -0.2843  -0.2784  -0.2771  -0.2759
 -0.2753  -0.2742  -0.2732  -0.2719  -0.2696  -0.2691  -0.2676  -0.2650
 -0.2633  -0.2633  -0.2603  -0.2571  -0.2549  -0.2547  -0.2531  -0.2526
 -0.2525  -0.2519  -0.2518  -0.2507  -0.2497  -0.2463  -0.2443  -0.2439
 -0.2435  -0.2427  -0.2403  -0.2396  -0.2379  -0.2368  -0.2358  -0.2328
 -0.2264  -0.2254  -0.2232  -0.2214  -0.2195  -0.2167  -0.2136  -0.2102
 -- Virtual --
 -0.0373  -0.0268  -0.0250  -0.0241  -0.0205  -0.0196  -0.0186  -0.0167
 -0.0159  -0.0139  -0.0131  -0.0107  -0.0102  -0.0094  -0.0084  -0.0072
 -0.0063  -0.0046  -0.0045  -0.0038  -0.0031  -0.0023  -0.0014  -0.0007
  0.0001   0.0009   0.0017   0.0021   0.0025   0.0034   0.0043   0.0050
  0.0059   0.0070   0.0075   0.0083   0.0095   0.0100   0.0109   0.0121
  0.0126   0.0139   0.0141   0.0146   0.0155   0.0161   0.0166   0.0172
  0.0178   0.0193   0.0207   0.0211   0.0214   0.0230   0.0231   0.0246
  0.0251   0.0255   0.0259   0.0264   0.0270   0.0273   0.0285   0.0289
  0.0300   0.0310   0.0316   0.0325   0.0334   0.0341   0.0345   0.0352
  0.0354   0.0355   0.0363   0.0376   0.0381   0.0385   0.0394   0.0397
  0.0402   0.0405   0.0415   0.0424   0.0427   0.0440   0.0449   0.0455
  0.0461   0.0463   0.0471   0.0473   0.0482   0.0485   0.0494   0.0500
  0.0509   0.0511   0.0524   0.0525   0.0536   0.0540   0.0548   0.0551
  0.0560   0.0565   0.0573   0.0580   0.0581   0.0589   0.0597   0.0605
  0.0608   0.0613   0.0624   0.0633   0.0634   0.0641   0.0647   0.0660
  0.0663   0.0671   0.0676   0.0686   0.0691   0.0695   0.0700   0.0704
  0.0711   0.0720   0.0729   0.0742   0.0753   0.0757   0.0763   0.0772
  0.0776   0.0786   0.0795   0.0797   0.0803   0.0808   0.0815   0.0827
  0.0835   0.0840   0.0846   0.0856   0.0861   0.0864   0.0877   0.0888
  0.0897   0.0901   0.0907   0.0909   0.0915   0.0915   0.0929   0.0937
  0.0942   0.0952   0.0960   0.0972   0.0980   0.0984   0.0990   0.0992
  0.1008   0.1012   0.1015   0.1019   0.1027   0.1030   0.1036   0.1047
  0.1049   0.1060   0.1063   0.1069   0.1073   0.1082   0.1090   0.1099
  0.1108   0.1108   0.1117   0.1122   0.1129   0.1134   0.1138   0.1150
  0.1156   0.1161   0.1167   0.1171   0.1177   0.1185   0.1191   0.1198
  0.1208   0.1213   0.1217   0.1223   0.1230   0.1235   0.1246   0.1251
  0.1254   0.1263   0.1274   0.1276   0.1279   0.1283   0.1296   0.1299
  0.1313   0.1316   0.1322   0.1323   0.1331   0.1339   0.1343   0.1355
  0.1361   0.1366   0.1374   0.1381   0.1383   0.1393   0.1397   0.1404
  0.1419   0.1422   0.1429   0.1434   0.1436   0.1447   0.1453   0.1464
  0.1468   0.1481   0.1484   0.1487   0.1491   0.1494   0.1504   0.1518
  0.1525   0.1528   0.1542   0.1548   0.1552   0.1557   0.1559   0.1562
  0.1568   0.1575   0.1581   0.1588   0.1592   0.1601   0.1607   0.1611
  0.1621   0.1630   0.1633   0.1639   0.1649   0.1653   0.1658   0.1667
  0.1674   0.1676   0.1687   0.1699   0.1704   0.1710   0.1714   0.1718
  0.1724   0.1728   0.1735   0.1743   0.1751   0.1755   0.1759   0.1766
  0.1775   0.1785   0.1785   0.1794   0.1800   0.1812   0.1815   0.1818
  0.1824   0.1827   0.1841   0.1844   0.1848   0.1857   0.1862   0.1868
  0.1880   0.1887   0.1890   0.1894   0.1902   0.1909   0.1918   0.1923
  0.1931   0.1934   0.1948   0.1949   0.1957   0.1957   0.1969   0.1975
  0.1984   0.1988   0.1997   0.2002   0.2003   0.2017   0.2018   0.2025
  0.2029   0.2038   0.2047   0.2051   0.2058   0.2058   0.2064   0.2078
  0.2080   0.2089   0.2099   0.2108   0.2110   0.2114   0.2123   0.2131
  0.2146   0.2148   0.2153   0.2156   0.2159   0.2170   0.2185   0.2189
  0.2191   0.2198   0.2210   0.2224   0.2230   0.2241   0.2251   0.2254
  0.2259   0.2264   0.2273   0.2275   0.2288   0.2297   0.2303   0.2313
  0.2316   0.2318   0.2329   0.2345   0.2349   0.2354   0.2364   0.2377
  0.2382   0.2391   0.2394   0.2401   0.2409   0.2413   0.2420   0.2424
  0.2430   0.2435   0.2442   0.2453   0.2459   0.2467   0.2480   0.2482
  0.2485   0.2493   0.2497   0.2511   0.2514   0.2521   0.2534   0.2535
  0.2543   0.2544   0.2555   0.2559   0.2564   0.2571   0.2586   0.2588
  0.2594   0.2610   0.2612   0.2620   0.2626   0.2632   0.2645   0.2652
  0.2659   0.2666   0.2674   0.2677   0.2686   0.2693   0.2696   0.2700
  0.2710   0.2715   0.2726   0.2734   0.2744   0.2749   0.2755   0.2767
  0.2781   0.2790   0.2796   0.2805   0.2808   0.2823   0.2832   0.2840
  0.2844   0.2846   0.2858   0.2870   0.2878   0.2888   0.2897   0.2899
  0.2905   0.2924   0.2929   0.2931   0.2946   0.2953   0.2960   0.2969
  0.2981   0.2992   0.2995   0.2998   0.3009   0.3022   0.3024   0.3039
  0.3043   0.3051   0.3060   0.3073   0.3077   0.3091   0.3096   0.3099
  0.3102   0.3120   0.3123   0.3136   0.3141   0.3151   0.3162   0.3165
  0.3180   0.3192   0.3200   0.3216   0.3220   0.3224   0.3227   0.3235
  0.3239   0.3249   0.3255   0.3265   0.3272   0.3288   0.3301   0.3318
  0.3320   0.3326   0.3338   0.3351   0.3362   0.3369   0.3375   0.3381
  0.3385   0.3400   0.3417   0.3418   0.3431   0.3443   0.3448   0.3455
  0.3472   0.3478   0.3486   0.3489   0.3497   0.3513   0.3517   0.3529
  0.3538   0.3543   0.3556   0.3564   0.3570   0.3587   0.3594   0.3601
  0.3612   0.3622   0.3636   0.3638   0.3647   0.3660   0.3666   0.3674
  0.3681   0.3686   0.3705   0.3714   0.3719   0.3729   0.3738   0.3746
  0.3757   0.3762   0.3774   0.3781   0.3784   0.3796   0.3812   0.3817
  0.3828   0.3836   0.3852   0.3859   0.3866   0.3874   0.3883   0.3886
  0.3891   0.3896   0.3913   0.3917   0.3924   0.3935   0.3938   0.3952
  0.3962   0.3977   0.3991   0.3996   0.4013   0.4017   0.4033   0.4041
  0.4048   0.4056   0.4063   0.4068   0.4085   0.4100   0.4107   0.4114
  0.4124   0.4131   0.4148   0.4161   0.4171   0.4173   0.4183   0.4193
  0.4201   0.4222   0.4227   0.4235   0.4244   0.4258   0.4269   0.4289
  0.4295   0.4301   0.4309   0.4325   0.4333   0.4343   0.4353   0.4369
  0.4370   0.4391   0.4397   0.4412   0.4433   0.4438   0.4461   0.4468
  0.4479   0.4497   0.4514   0.4519   0.4526   0.4546   0.4555   0.4565
  0.4573   0.4595   0.4604   0.4611   0.4625   0.4634   0.4650   0.4658
  0.4677   0.4690   0.4706   0.4725   0.4747   0.4757   0.4773   0.4787
  0.4804   0.4808   0.4817   0.4840   0.4853   0.4855   0.4878   0.4896
  0.4907   0.4916   0.4926   0.4939   0.4943   0.4951   0.4981   0.5012
  0.5022   0.5033   0.5047   0.5049   0.5078   0.5096   0.5109   0.5142
  0.5149   0.5155   0.5186   0.5193   0.5203   0.5225   0.5236   0.5251
  0.5264   0.5283   0.5285   0.5324   0.5332   0.5349   0.5370   0.5396
  0.5410   0.5422   0.5446   0.5453   0.5470   0.5491   0.5500   0.5516
  0.5548   0.5558   0.5573   0.5589   0.5613   0.5635   0.5650   0.5657
  0.5683   0.5690   0.5704   0.5725   0.5750   0.5771   0.5785   0.5797
  0.5812   0.5845   0.5858   0.5876   0.5886   0.5896   0.5907   0.5928
  0.5943   0.5950   0.5967   0.5978   0.6001   0.6011   0.6031   0.6036
  0.6058   0.6070   0.6095   0.6106   0.6116   0.6123   0.6139   0.6164
  0.6172   0.6189   0.6202   0.6207   0.6222   0.6234   0.6254   0.6269
  0.6277   0.6287   0.6292   0.6305   0.6321   0.6343   0.6357   0.6359
  0.6392   0.6403   0.6405   0.6411   0.6421   0.6428   0.6444   0.6452
  0.6488   0.6490   0.6496   0.6501   0.6513   0.6519   0.6535   0.6546
  0.6551   0.6568   0.6588   0.6599   0.6611   0.6619   0.6627   0.6636
  0.6644   0.6659   0.6673   0.6683   0.6691   0.6706   0.6729   0.6738
  0.6745   0.6772   0.6775   0.6788   0.6790   0.6795   0.6805   0.6818
  0.6828   0.6840   0.6853   0.6866   0.6891   0.6897   0.6910   0.6919
  0.6930   0.6944   0.6957   0.6966   0.6974   0.6985   0.7004   0.7015
  0.7029   0.7042   0.7048   0.7068   0.7083   0.7093   0.7105   0.7117
  0.7132   0.7152   0.7162   0.7170   0.7182   0.7194   0.7201   0.7211
  0.7223   0.7248   0.7264   0.7285   0.7286   0.7307   0.7324   0.7326
  0.7348   0.7358   0.7395   0.7409   0.7411   0.7422   0.7434   0.7452
  0.7469   0.7475   0.7506   0.7509   0.7529   0.7558   0.7579   0.7603
  0.7618   0.7631   0.7645   0.7668   0.7677   0.7694   0.7705   0.7727
  0.7743   0.7753   0.7770   0.7797   0.7815   0.7828   0.7862   0.7866
  0.7881   0.7894   0.7907   0.7928   0.7931   0.7934   0.7965   0.7987
  0.8005   0.8010   0.8055   0.8059   0.8089   0.8097   0.8104   0.8113
  0.8133   0.8140   0.8151   0.8173   0.8196   0.8219   0.8242   0.8257
  0.8262   0.8284   0.8288   0.8297   0.8307   0.8319   0.8342   0.8355
  0.8363   0.8374   0.8389   0.8396   0.8418   0.8427   0.8451   0.8458
  0.8466   0.8481   0.8503   0.8514   0.8527   0.8544   0.8557   0.8573
  0.8585   0.8588   0.8603   0.8608   0.8629   0.8631   0.8642   0.8664
  0.8672   0.8681   0.8685   0.8706   0.8722   0.8730   0.8744   0.8766
  0.8771   0.8785   0.8792   0.8817   0.8825   0.8845   0.8856   0.8857
  0.8862   0.8884   0.8898   0.8921   0.8923   0.8939   0.8961   0.8973
  0.8987   0.8995   0.9010   0.9020   0.9051   0.9053   0.9066   0.9086
  0.9091   0.9098   0.9118   0.9124   0.9154   0.9169   0.9182   0.9205
  0.9207   0.9212   0.9224   0.9246   0.9252   0.9279   0.9282   0.9290
  0.9297   0.9311   0.9344   0.9349   0.9357   0.9382   0.9392   0.9395
  0.9418   0.9432   0.9441   0.9457   0.9465   0.9481   0.9490   0.9504
  0.9523   0.9543   0.9557   0.9562   0.9575   0.9578   0.9588   0.9603
  0.9605   0.9621   0.9634   0.9653   0.9659   0.9676   0.9677   0.9692
  0.9701   0.9723   0.9727   0.9739   0.9742   0.9752   0.9765   0.9784
  0.9797   0.9807   0.9814   0.9825   0.9831   0.9845   0.9868   0.9876
  0.9879   0.9894   0.9902   0.9912   0.9926   0.9933   0.9939   0.9952
  0.9970   0.9981   0.9985   0.9993   1.0007   1.0015   1.0027   1.0038
  1.0052   1.0055   1.0063   1.0082   1.0093   1.0097   1.0108   1.0124
  1.0138   1.0146   1.0160   1.0169   1.0190   1.0206   1.0212   1.0221
  1.0238   1.0252   1.0259   1.0263   1.0275   1.0278   1.0287   1.0298
  1.0309   1.0323   1.0345   1.0356   1.0371   1.0382   1.0386   1.0401
  1.0414   1.0426   1.0432   1.0436   1.0466   1.0483   1.0489   1.0510
  1.0519   1.0531   1.0558   1.0572   1.0580   1.0587   1.0610   1.0627
  1.0633   1.0645   1.0663   1.0673   1.0700   1.0708   1.0725   1.0728
  1.0740   1.0747   1.0754   1.0779   1.0810   1.0817   1.0835   1.0845
  1.0858   1.0878   1.0891   1.0895   1.0908   1.0931   1.0949   1.0979
  1.0996   1.1016   1.1020   1.1037   1.1045   1.1064   1.1064   1.1084
  1.1095   1.1107   1.1131   1.1142   1.1154   1.1163   1.1180   1.1191
  1.1212   1.1225   1.1234   1.1241   1.1253   1.1273   1.1282   1.1307
  1.1314   1.1335   1.1348   1.1356   1.1365   1.1384   1.1397   1.1403
  1.1426   1.1439   1.1458   1.1462   1.1474   1.1488   1.1511   1.1516
  1.1523   1.1550   1.1570   1.1586   1.1592   1.1602   1.1615   1.1633
  1.1640   1.1651   1.1667   1.1678   1.1684   1.1703   1.1720   1.1733
  1.1744   1.1765   1.1777   1.1797   1.1821   1.1830   1.1840   1.1860
  1.1881   1.1891   1.1905   1.1916   1.1942   1.1956   1.1969   1.2019
  1.2027   1.2044   1.2048   1.2063   1.2075   1.2086   1.2103   1.2130
  1.2132   1.2164   1.2183   1.2190   1.2215   1.2254   1.2261   1.2269
  1.2286   1.2325   1.2353   1.2366   1.2393   1.2406   1.2421   1.2442
  1.2473   1.2492   1.2510   1.2555   1.2574   1.2590   1.2606   1.2613
  1.2643   1.2648   1.2682   1.2694   1.2730   1.2736   1.2793   1.2801
  1.2845   1.2859   1.2866   1.2910   1.2953   1.2962   1.2982   1.2996
  1.3010   1.3042   1.3053   1.3078   1.3108   1.3134   1.3172   1.3184
  1.3231   1.3237   1.3264   1.3278   1.3303   1.3339   1.3350   1.3378
  1.3398   1.3422   1.3450   1.3466   1.3496   1.3514   1.3558   1.3575
  1.3588   1.3594   1.3597   1.3616   1.3643   1.3656   1.3669   1.3682
  1.3710   1.3739   1.3763   1.3767   1.3783   1.3811   1.3815   1.3829
  1.3844   1.3854   1.3869   1.3877   1.3895   1.3922   1.3933   1.3944
  1.3962   1.3978   1.3987   1.3997   1.4009   1.4023   1.4038   1.4044
  1.4057   1.4061   1.4084   1.4109   1.4123   1.4142   1.4153   1.4162
  1.4170   1.4178   1.4196   1.4211   1.4229   1.4248   1.4270   1.4274
  1.4300   1.4316   1.4333   1.4341   1.4361   1.4374   1.4388   1.4407
  1.4426   1.4443   1.4465   1.4471   1.4478   1.4502   1.4505   1.4530
  1.4547   1.4558   1.4594   1.4610   1.4621   1.4639   1.4651   1.4683
  1.4695   1.4716   1.4736   1.4760   1.4794   1.4801   1.4832   1.4875
  1.4893   1.4917   1.4942   1.4949   1.4965   1.4996   1.4999   1.5038
  1.5054   1.5087   1.5109   1.5120   1.5139   1.5152   1.5167   1.5187
  1.5233   1.5249   1.5274   1.5282   1.5312   1.5344   1.5370   1.5388
  1.5414   1.5430   1.5450   1.5478   1.5532   1.5544   1.5564   1.5597
  1.5603   1.5618   1.5681   1.5695   1.5724   1.5740   1.5790   1.5802
  1.5814   1.5865   1.5940   1.6003   1.6035   1.6072   1.6119   1.6151
  1.6162   1.6224   1.6258   1.6271   1.6331   1.6340   1.6383   1.6414
  1.6486   1.6531   1.6565   1.6585   1.6601   1.6619   1.6637   1.6671
  1.6687   1.6695   1.6699   1.6711   1.6738   1.6754   1.6771   1.6775
  1.6778   1.6792   1.6804   1.6819   1.6849   1.6858   1.6879   1.6882
  1.6903   1.6912   1.6924   1.6941   1.6948   1.6967   1.6982   1.6989
  1.7011   1.7025   1.7037   1.7055   1.7068   1.7085   1.7101   1.7121
  1.7130   1.7149   1.7160   1.7182   1.7191   1.7214   1.7234   1.7250
  1.7271   1.7277   1.7290   1.7313   1.7316   1.7333   1.7350   1.7350
  1.7370   1.7376   1.7396   1.7419   1.7428   1.7437   1.7441   1.7472
  1.7489   1.7498   1.7511   1.7520   1.7537   1.7544   1.7557   1.7572
  1.7590   1.7609   1.7621   1.7637   1.7659   1.7681   1.7690   1.7703
  1.7722   1.7737   1.7753   1.7777   1.7812   1.7842   1.7860   1.7871
  1.7885   1.7898   1.7914   1.7956   1.7993   1.7999   1.8010   1.8038
  1.8085   1.8090   1.8120   1.8137   1.8173   1.8199   1.8211   1.8231
  1.8257   1.8280   1.8289   1.8307   1.8309   1.8335   1.8394   1.8413
  1.8462   1.8488   1.8514   1.8541   1.8556   1.8577   1.8614   1.8640
  1.8655   1.8662   1.8679   1.8716   1.8741   1.8745   1.8782   1.8796
  1.8805   1.8814   1.8821   1.8829   1.8854   1.8863   1.8886   1.8901
  1.8932   1.8944   1.8962   1.8979   1.8990   1.9021   1.9031   1.9037
  1.9054   1.9062   1.9086   1.9087   1.9113   1.9122   1.9128   1.9129
  1.9149   1.9169   1.9191   1.9210   1.9226   1.9237   1.9245   1.9267
  1.9286   1.9296   1.9312   1.9322   1.9342   1.9349   1.9369   1.9419
  1.9435   1.9458   1.9472   1.9504   1.9554   1.9577   1.9605   1.9628
  1.9630   1.9662   1.9703   1.9709   1.9747   1.9788   1.9829   1.9879
  1.9903   1.9947   1.9996   2.0020   2.0038   2.0132   2.0237   2.0288
  2.0307   2.0331   2.0472   2.0507   2.0525   2.0526   2.0578   2.0591
  2.0620   2.0632   2.0669   2.0675   2.0703   2.0706   2.0722   2.0733
  2.0739   2.0758   2.0759   2.0784   2.0804   2.0807   2.0818   2.0834
  2.0839   2.0853   2.0870   2.0888   2.0891   2.0901   2.0919   2.0923
  2.0953   2.0967   2.0983   2.0987   2.0990   2.1029   2.1037   2.1068
  2.1079   2.1097   2.1110   2.1116   2.1154   2.1158   2.1177   2.1208
  2.1217   2.1255   2.1269   2.1293   2.1345   2.1372   2.1459   2.1539
  2.1561   2.1581   2.1614   2.1667   2.1689   2.1691   2.1709   2.1719
  2.1743   2.1800   2.1863   2.1891   2.1979   2.1984   2.2027   2.2034
  2.2059   2.2078   2.2099   2.2121   2.2154   2.2157   2.2174   2.2209
  2.2223   2.2236   2.2239   2.2247   2.2256   2.2283   2.2299   2.2315
  2.2324   2.2338   2.2346   2.2359   2.2364   2.2376   2.2386   2.2389
  2.2392   2.2408   2.2413   2.2426   2.2438   2.2442   2.2463   2.2483
  2.2497   2.2507   2.2519   2.2539   2.2546   2.2563   2.2586   2.2596
  2.2600   2.2610   2.2616   2.2623   2.2633   2.2640   2.2648   2.2660
  2.2664   2.2682   2.2695   2.2698   2.2712   2.2722   2.2730   2.2734
  2.2741   2.2753   2.2755   2.2761   2.2771   2.2782   2.2800   2.2810
  2.2813   2.2828   2.2838   2.2857   2.2885   2.2897   2.2906   2.2910
  2.2930   2.2947   2.2960   2.2980   2.2997   2.3001   2.3014   2.3027
  2.3036   2.3050   2.3066   2.3073   2.3090   2.3103   2.3109   2.3130
  2.3132   2.3170   2.3180   2.3183   2.3194   2.3206   2.3224   2.3231
  2.3237   2.3251   2.3254   2.3265   2.3275   2.3287   2.3302   2.3318
  2.3330   2.3337   2.3373   2.3388   2.3394   2.3411   2.3428   2.3455
  2.3470   2.3490   2.3499   2.3514   2.3528   2.3543   2.3548   2.3560
  2.3568   2.3581   2.3614   2.3626   2.3630   2.3645   2.3694   2.3706
  2.3718   2.3768   2.3800   2.3818   2.3820   2.3856   2.3863   2.3899
  2.3934   2.3971   2.3986   2.4010   2.4032   2.4055   2.4106   2.4171
  2.4451   2.4622   2.4883   2.5075   2.5404   2.5902   2.6644   2.7401
  2.7927   2.7960   2.8045   2.8169   2.8185   2.8265   2.8298   2.8331
  2.8343   2.8360   2.8432   2.8474   2.8482   2.8543   2.8548   2.8567
  2.8616   2.8642   2.8652   2.8676   2.8695   2.8716   2.8731   2.8749
  2.8781   2.8789   2.8850   2.8856   2.8901   2.8961   2.9140   2.9367
  3.0881   3.2552   3.9453   3.9521   3.9537   3.9575   3.9641   3.9673
  3.9756   3.9809   3.9840   3.9868   3.9901   3.9931   3.9939   3.9957
  3.9975   3.9983   4.0040   4.0061   4.0070   4.0088   4.0129   4.0133
  4.0251   4.0260   4.0289   4.2120   4.2198   4.2266   4.2368   4.2383
  4.2401   4.2415   4.2448   4.2482   4.2498   4.2509   4.2587   4.2604
  4.2641   4.2659   4.2700   4.2713   4.2756   4.2778   4.2790   4.2811
  4.2839   4.2867   4.2872   4.2906   4.2910   4.2964   4.2976   4.2991
  4.3008   4.3046   4.3058   4.3087   4.3151   4.3177   4.3205   4.3251
  4.3297   4.3318   4.3342   4.3374   4.3415   4.3448   4.3471   4.3505
  4.3543   4.3549   4.3560   4.3592   4.3629   4.3669   4.3703   4.3726
  4.3728   4.3774   4.3829   4.3907   4.3935   4.3967   4.4058   4.4094
  4.4170   4.4208   4.4287   4.4395   4.4427   4.4467   4.4604   4.4747
  4.4816   4.4974   4.5039   4.5163   4.5328   4.5495   4.5909   4.5942
  4.6121   4.6215   4.6785   4.7163   4.7303   4.7933   4.9626
 --------------------------------------------------------------
 
          Ground-State Mulliken Net Atomic Charges

     Atom                 Charge (a.u.)
  ----------------------------------------
      1 C                    -0.139380
      2 C                    -0.764123
      3 C                    -0.205513
      4 C                    -0.381706
      5 C                    -0.450849
      6 C                    -0.552702
      7 H                     0.210978
      8 H                     0.225798
      9 H                     0.205128
     10 H                     0.250412
     11 H                     0.235479
     12 H                     0.228082
     13 H                     0.213894
     14 H                     0.199124
     15 H                     0.194253
     16 H                     0.173282
     17 H                     0.184323
     18 N                    -0.265008
     19 H                     0.453586
     20 C                     0.366282
     21 H                     0.144634
     22 O                    -0.525976
     23 C                    -0.847789
     24 H                     0.261117
     25 H                     0.293294
     26 H                     0.225669
     27 S                     1.039746
     28 C                    -0.959444
     29 H                     0.224819
     30 H                     0.279641
     31 H                     0.245303
     32 O                    -0.732396
     33 C                    -0.870120
     34 H                     0.269897
     35 H                     0.238186
     36 H                     0.245758
     37 S                     0.972368
     38 C                    -0.870576
     39 H                     0.242657
     40 H                     0.233950
     41 H                     0.252544
     42 O                    -0.695903
     43 C                    -0.892516
     44 H                     0.282286
     45 H                     0.255883
     46 H                     0.256300
     47 S                     0.831932
     48 C                    -0.759385
     49 H                     0.271734
     50 H                     0.258509
     51 H                     0.259813
     52 O                    -0.657088
     53 C                    -0.802739
     54 H                     0.249935
     55 H                     0.234716
     56 H                     0.229580
     57 S                     0.819447
     58 C                    -0.847048
     59 H                     0.238116
     60 H                     0.246775
     61 H                     0.285104
     62 O                    -0.723708
     63 C                    -0.771059
     64 H                     0.265634
     65 H                     0.216126
     66 H                     0.254739
     67 S                     0.732131
     68 C                    -0.739221
     69 H                     0.245523
     70 H                     0.321151
     71 H                     0.226770
     72 O                    -0.757887
     73 C                    -0.849825
     74 H                     0.220696
     75 H                     0.276389
     76 H                     0.231615
     77 S                     0.966602
     78 C                    -0.891818
     79 H                     0.304204
     80 H                     0.252017
     81 H                     0.230218
     82 O                    -0.728966
     83 C                    -0.659987
     84 H                     0.291181
     85 H                     0.230507
     86 H                     0.258333
     87 S                     0.515563
     88 C                    -0.728868
     89 H                     0.223990
     90 H                     0.262989
     91 H                     0.278930
     92 O                    -0.708654
     93 C                    -1.033179
     94 H                     0.278106
     95 H                     0.289061
     96 H                     0.252897
     97 S                     1.305348
     98 C                    -1.102133
     99 H                     0.274964
    100 H                     0.276932
    101 H                     0.265251
    102 O                    -0.742310
    103 C                    -0.975873
    104 H                     0.259170
    105 H                     0.229540
    106 H                     0.262379
    107 S                     1.244645
    108 C                    -1.081700
    109 H                     0.230880
    110 H                     0.286911
    111 H                     0.270778
    112 O                    -0.740566
    113 C                    -0.845212
    114 H                     0.249178
    115 H                     0.227764
    116 H                     0.263126
    117 S                     0.853945
    118 C                    -0.791662
    119 H                     0.201025
    120 H                     0.260605
    121 H                     0.268396
    122 O                    -0.711889
    123 C                    -0.837033
    124 H                     0.271997
    125 H                     0.231813
    126 H                     0.257591
    127 S                     0.883817
    128 C                    -0.834961
    129 H                     0.295130
    130 H                     0.214814
    131 H                     0.268677
    132 O                    -0.628072
    133 C                    -0.816109
    134 H                     0.238017
    135 H                     0.268231
    136 H                     0.280499
    137 S                     0.797689
    138 C                    -0.853551
    139 H                     0.252206
    140 H                     0.248406
    141 H                     0.256559
    142 O                    -0.686679
    143 C                    -0.765048
    144 H                     0.256483
    145 H                     0.238067
    146 H                     0.280162
    147 S                     0.589969
    148 C                    -0.719586
    149 H                     0.242358
    150 H                     0.268588
    151 H                     0.259223
    152 O                    -0.662196
    153 C                    -0.763939
    154 H                     0.248717
    155 H                     0.268662
    156 H                     0.235655
    157 S                     1.035837
    158 C                    -0.888682
    159 H                     0.252064
    160 H                     0.237058
    161 H                     0.247369
    162 O                    -0.708537
    163 C                    -0.937490
    164 H                     0.282984
    165 H                     0.263573
    166 H                     0.260017
    167 S                     0.820358
    168 C                    -0.917921
    169 H                     0.284683
    170 H                     0.244913
    171 H                     0.254282
    172 O                    -0.671564
    173 C                    -0.948290
    174 H                     0.247703
    175 H                     0.309913
    176 H                     0.263537
    177 S                     0.939774
    178 C                    -1.014231
    179 H                     0.256730
    180 H                     0.240210
    181 H                     0.287548
    182 O                    -0.656721
    183 C                    -1.101926
    184 H                     0.252094
    185 H                     0.278959
    186 H                     0.258935
    187 S                     1.192318
    188 C                    -0.927101
    189 H                     0.261725
    190 H                     0.275152
    191 H                     0.227061
    192 O                    -0.664170
    193 C                    -0.797692
    194 H                     0.264766
    195 H                     0.233946
    196 H                     0.267838
    197 S                     0.813873
    198 C                    -0.769236
    199 H                     0.259415
    200 H                     0.247638
    201 H                     0.237635
    202 O                    -0.750593
    203 C                    -0.828501
    204 H                     0.326744
    205 H                     0.253159
    206 H                     0.279019
    207 S                     0.997750
    208 C                    -1.013442
    209 H                     0.269896
    210 H                     0.247225
    211 H                     0.232557
    212 O                    -0.688300
    213 C                    -0.802697
    214 H                     0.282407
    215 H                     0.243297
    216 H                     0.282725
    217 S                     0.522729
    218 C                    -0.745669
    219 H                     0.219191
    220 H                     0.275365
    221 H                     0.252536
    222 O                    -0.644689
    223 C                    -0.837252
    224 H                     0.262490
    225 H                     0.270369
    226 H                     0.215593
    227 S                     0.937466
    228 C                    -0.884798
    229 H                     0.246829
    230 H                     0.261735
    231 H                     0.247058
    232 O                    -0.740736
    233 C                    -0.632973
    234 H                     0.247207
    235 H                     0.300453
    236 H                     0.253835
    237 S                     0.821922
    238 C                    -1.091001
    239 H                     0.243158
    240 H                     0.252354
    241 H                     0.273335
    242 O                    -0.674557
    243 C                    -0.844276
    244 H                     0.247845
    245 H                     0.253783
    246 H                     0.291618
    247 S                     0.850040
    248 C                    -0.876978
    249 H                     0.237473
    250 H                     0.257496
    251 H                     0.249302
    252 O                    -0.667935
    253 C                    -0.782459
    254 H                     0.264080
    255 H                     0.260286
    256 H                     0.262838
    257 S                     0.672237
    258 C                    -0.964023
    259 H                     0.290330
    260 H                     0.327301
    261 H                     0.250187
    262 O                    -0.693630
    263 C                    -0.593611
    264 H                     0.245382
    265 H                     0.240617
    266 H                     0.299894
    267 S                     0.208768
    268 C                    -0.641303
    269 H                     0.272369
    270 H                     0.256278
    271 H                     0.250409
    272 O                    -0.571787
  ----------------------------------------
  Sum of atomic charges =     0.000000

 -----------------------------------------------------------------
                    Cartesian Multipole Moments
 -----------------------------------------------------------------
    Charge (ESU x 10^10)
                 0.0000
    Dipole Moment (Debye)
         X      16.2578      Y     -16.5850      Z      -4.6061
       Tot      23.6769
    Quadrupole Moments (Debye-Ang)
        XX     -28.4503     XY     110.0243     YY   -1599.0394
        XZ     336.4628     YZ    -582.8260     ZZ   -1197.4454
    Octopole Moments (Debye-Ang^2)
       XXX  -36674.6731    XXY   -4699.0532    XYY  -25424.8619
       YYY  -89819.1393    XXZ   -3219.6642    XYZ      12.8519
       YYZ  -47771.4048    XZZ  -18833.6777    YZZ  -43279.0856
       ZZZ  -88802.3163
    Hexadecapole Moments (Debye-Ang^3)
      XXXX ************   XXXY -919827.0937   XXYY -810462.0678
      XYYY ************   YYYY ************   XXXZ ************
      XXYZ -201022.4171   XYYZ -795503.3868   YYYZ ************
      XXZZ -850335.6961   XYZZ -715841.8723   YYZZ ************
      XZZZ ************   YZZZ ************   ZZZZ ************
 -----------------------------------------------------------------
Archival summary:
[...]
    3  -0.0151244  -0.0042694   0.0223634  -0.0325048   0.0035341   0.1045472
          103         104         105         106         107         108
    1   0.0014874  -0.0258495  -0.0033178   0.0285418   0.0435908   0.0033667
    2  -0.0067822  -0.0148830  -0.0016451  -0.0101117   0.0312490  -0.0034551
    3  -0.0022591   0.0091671  -0.0303560  -0.0158879  -0.0113750   0.0098418
          109         110         111         112         113         114
    1  -0.0066617   0.0311224  -0.0269689  -0.1044220   0.0075057   0.0079583
    2  -0.0256743  -0.0074607   0.0166162   0.0313956   0.0007421   0.0240230
    3   0.0077535   0.0147735   0.0078520  -0.0177910  -0.0000155  -0.0198949
          115         116         117         118         119         120
    1   0.0049690   0.0240930  -0.0434581   0.0017227  -0.0045095  -0.0321456
    2   0.0075782  -0.0217956   0.0392951  -0.0097597   0.0035106  -0.0167442
    3   0.0300480  -0.0029272   0.0036474   0.0013092   0.0225613   0.0027837
          121         122         123         124         125         126
    1   0.0305381   0.0237812  -0.0012510  -0.0036741   0.0189301   0.0009280
    2  -0.0182456  -0.0534117   0.0089864   0.0379990   0.0027331   0.0029598
    3  -0.0037964  -0.0947553  -0.0037328   0.0005754   0.0243942  -0.0345094
          127         128         129         130         131         132
    1  -0.0219054   0.0074828   0.0014821   0.0284830  -0.0130191  -0.0663180
    2  -0.0017442  -0.0078895  -0.0126344   0.0124747  -0.0322524  -0.0027711
    3   0.0567705  -0.0037194  -0.0300932   0.0083148   0.0004813  -0.0901057
          133         134         135         136         137         138
    1  -0.0088964   0.0187939  -0.0081185  -0.0321743  -0.0486436   0.0044554
    2  -0.0065005  -0.0182445  -0.0347549   0.0015914   0.0243983   0.0035493
    3  -0.0058462  -0.0229912   0.0083782  -0.0101425   0.0293361  -0.0055287
          139         140         141         142         143         144
    1   0.0185567   0.0193309  -0.0237281   0.0737190  -0.0053868   0.0087369
    2   0.0176388  -0.0157209   0.0119129  -0.0613981   0.0011133   0.0283087
    3   0.0202739  -0.0207812  -0.0221090   0.0488653  -0.0056273   0.0008986
          145         146         147         148         149         150
    1   0.0144653  -0.0326143   0.0615478  -0.0026825   0.0175226   0.0006356
    2  -0.0164923   0.0028648  -0.0097010  -0.0046175  -0.0209726  -0.0140155
    3  -0.0250472   0.0009416   0.0088422   0.0051575  -0.0185883   0.0373025
          151         152         153         154         155         156
    1  -0.0318630  -0.0510599   0.0061901  -0.0072645   0.0291791   0.0245162
    2   0.0110997   0.0620809  -0.0005451  -0.0300594   0.0207515  -0.0121286
    3   0.0115421   0.0742521  -0.0014711  -0.0128110   0.0020103   0.0251163
          157         158         159         160         161         162
    1   0.0024122  -0.0014207  -0.0080833   0.0147048  -0.0329271  -0.0324469
    2   0.0446668  -0.0052985  -0.0252006  -0.0136811   0.0021493  -0.0062205
    3   0.0298394   0.0016819  -0.0193141   0.0278002  -0.0019720  -0.1054641
          163         164         165         166         167         168
    1  -0.0097682   0.0001032  -0.0290437   0.0202067   0.0368158  -0.0105130
    2  -0.0019943   0.0038524  -0.0022233  -0.0084888   0.0319626   0.0029076
    3   0.0042916   0.0379475  -0.0201515   0.0041578   0.0315338  -0.0022244
          169         170         171         172         173         174
    1  -0.0244276  -0.0031747   0.0029490   0.0340195  -0.0091894  -0.0272180
    2  -0.0247628   0.0295561   0.0164617  -0.0554500  -0.0028849   0.0003291
    3  -0.0026463   0.0187327  -0.0272719  -0.0901678  -0.0099135   0.0126523
          175         176         177         178         179         180
    1   0.0063234  -0.0031801   0.0122623   0.0071171  -0.0060305   0.0238586
    2   0.0348026  -0.0345784   0.0580193  -0.0083600  -0.0089182   0.0223654
    3  -0.0196506   0.0020163   0.0037829  -0.0045299  -0.0304807  -0.0067878
          181         182         183         184         185         186
    1   0.0000251  -0.0105496  -0.0007742   0.0175246   0.0118253  -0.0106049
    2  -0.0189712  -0.0646721  -0.0051989   0.0125057  -0.0322571  -0.0026481
    3   0.0255614   0.0854133  -0.0059137  -0.0181215   0.0089959  -0.0351416
          187         188         189         190         191         192
    1   0.0205606  -0.0049840   0.0086699  -0.0268699  -0.0116482  -0.0444519
    2   0.0136849  -0.0095553  -0.0145747   0.0163628  -0.0315885   0.0798119
    3   0.0535521   0.0008702   0.0254482  -0.0129283  -0.0245288  -0.0636612
          193         194         195         196         197         198
    1   0.0119473  -0.0021884  -0.0095289   0.0278495  -0.0556690   0.0069744
    2   0.0008024   0.0277617  -0.0229235   0.0113269  -0.0053827  -0.0042392
    3   0.0073746   0.0029921   0.0268263  -0.0116993   0.0137454  -0.0022185
          199         200         201         202         203         204
    1  -0.0151099   0.0298134   0.0003268   0.0372863  -0.0050782   0.0001493
    2  -0.0105504   0.0050634  -0.0293325   0.0741098   0.0068435   0.0347760
    3  -0.0239110  -0.0127018   0.0171466  -0.0717246   0.0081388  -0.0148647
          205         206         207         208         209         210
    1  -0.0259520   0.0117283  -0.0388283  -0.0025331  -0.0328563   0.0206863
    2  -0.0171662  -0.0109010   0.0037576  -0.0079059  -0.0109007  -0.0199139
    3   0.0197115   0.0266552  -0.0371417   0.0019615   0.0083146  -0.0187621
          211         212         213         214         215         216
    1   0.0216568   0.1025216  -0.0055092   0.0091834  -0.0328640   0.0174395
    2   0.0043015   0.0363854  -0.0048607  -0.0292221   0.0109712   0.0175940
    3   0.0187357  -0.0074528  -0.0074059  -0.0191327  -0.0036868  -0.0125243
          217         218         219         220         221         222
    1   0.0592511  -0.0073876  -0.0041314   0.0172582  -0.0300289  -0.0187216
    2  -0.0212395  -0.0052881  -0.0353613   0.0215803   0.0099435   0.1074631
    3   0.0029409   0.0038828  -0.0071035   0.0280621  -0.0112305   0.0160547
          223         224         225         226         227         228
    1  -0.0011176   0.0283611  -0.0254005   0.0001654   0.0022328  -0.0082775
    2  -0.0014671   0.0097815   0.0145912  -0.0297131   0.0563469  -0.0050124
    3   0.0107322   0.0114925   0.0186584  -0.0054626  -0.0026423  -0.0026445
          229         230         231         232         233         234
    1  -0.0020980   0.0072905  -0.0220063   0.0720304  -0.0060410   0.0066164
    2   0.0078894  -0.0296456   0.0061945  -0.0659007  -0.0081854   0.0154899
    3  -0.0331670  -0.0055289   0.0279751  -0.0507645   0.0004669   0.0247033
          235         236         237         238         239         240
    1  -0.0416977   0.0229648  -0.0214148  -0.0031740   0.0011677   0.0176850
    2   0.0046559  -0.0288211   0.0614704  -0.0090349   0.0212070  -0.0263294
    3   0.0011579   0.0083493  -0.0020383  -0.0013380  -0.0227968  -0.0024681
          241         242         243         244         245         246
    1  -0.0326311   0.1067691   0.0057180  -0.0172379   0.0117719   0.0348373
    2  -0.0194193  -0.0201883   0.0027051  -0.0019250   0.0293817  -0.0098466
    3  -0.0037911  -0.0017525  -0.0086862  -0.0234425   0.0035585  -0.0015985
          247         248         249         250         251         252
    1   0.0291913   0.0010893  -0.0126893   0.0288260  -0.0194186  -0.1001474
    2   0.0049928  -0.0038666  -0.0050316  -0.0183491  -0.0223399   0.0402646
    3   0.0493270  -0.0004580  -0.0262844  -0.0064601   0.0159453  -0.0194088
          253         254         255         256         257         258
    1   0.0027101   0.0306777  -0.0107081  -0.0098306   0.0395729   0.0108826
    2   0.0020040  -0.0161199  -0.0150775   0.0291895   0.0412824  -0.0056511
    3  -0.0091814  -0.0129733  -0.0242395  -0.0122612   0.0282186  -0.0014592
          259         260         261         262         263         264
    1  -0.0162811   0.0411131  -0.0084518  -0.1072345  -0.0036134  -0.0037287
    2  -0.0140934   0.0073607  -0.0011686   0.0069593  -0.0060583  -0.0293553
    3  -0.0107968   0.0000311   0.0328829   0.0198105   0.0031670   0.0221944
          265         266         267         268         269         270
    1  -0.0051799  -0.0177500   0.0411770   0.0017646  -0.0170338  -0.0006144
    2   0.0273576  -0.0037991   0.0177456   0.0036871  -0.0130304   0.0275802
    3   0.0144567  -0.0219600   0.0439694  -0.0112764  -0.0289497   0.0029333
          271         272
    1   0.0263255   0.0061070
    2   0.0101008  -0.0954374
    3  -0.0191268  -0.0561596
  --- DONE ESP SUMMARY ---
Archival summary:
1\1\n0093.mhg0\SP\ProcedureUnspecified\6-31+G*\252550h22\ymao\FriMar1207:44:422021FriMar1207:44:422021\0\\#,ProcedureUnspecified,6-31+G*,\\0,1\S\O,1,1.49609\C,1,1.80702,2,108.659\H,3,1.09296,1,107.633,2,147.495,0\H,3,1.09302,1,115.485,2,-101.64,0\H,3,1.09327,1,108.302,2,27.6701,0\C,1,1.80704,2,105.026,3,97.9636,0\H,7,1.09298,1,108.385,2,-43.5177,0\H,7,1.09307,1,116.418,2,-161.13,0\H,7,1.09382,1,101.111,2,75.8773,0\O,10,2.31828,7,142.879,1,159.981,0\S,11,1.49659,10,116.334,7,141.097,0\C,12,1.80677,11,108.201,10,-109.591,0\H,13,1.09282,12,110.026,11,-69.0137,0\H,13,1.09309,12,111.219,11,50.7238,0\H,13,1.09327,12,110.016,11,177.707,0\C,12,1.8074,11,102.362,10,-7.38261,0\H,17,1.0929,12,107.458,11,-80.9821,0\H,17,1.0931,12,106.438,11,164.697,0\H,17,1.09339,12,110.35,11,50.1855,0\H,19,2.21955,17,167.084,12,-64.6966,0\C,21,1.09307,19,156.504,17,-172.104,0\H,22,1.0927,21,107.626,19,-137.646,0\H,22,1.09333,21,103.737,19,-23.0661,0\S,22,1.80599,21,117.143,19,94.1719,0\O,25,1.4972,22,100.907,21,169.151,0\C,25,1.80722,22,93.6275,21,64.031,0\H,27,1.09277,25,113.608,22,-42.1983,0\H,27,1.09297,25,109.163,22,-164.469,0\H,27,1.09345,25,109.509,22,80.7973,0\Gh,20,2.26158,17,120.824,12,43.6459,0\Gh,31,1.10486,20,132.275,17,150.924,0\Gh,32,1.21864,31,120.703,20,169.145,0\Gh,32,1.37874,31,114.486,20,-0.48153,0\Gh,34,1.01312,32,116.726,31,-8.75284,0\Gh,34,1.46193,32,123.582,31,168.671,0\Gh,36,1.09669,34,103.817,32,5.99638,0\Gh,36,1.53788,34,114.183,32,121.78,0\Gh,38,1.0965,36,106.965,34,-56.6545,0\Gh,38,1.09727,36,105.65,34,58.3149,0\Gh,38,1.537,36,115.751,34,-177.135,0\Gh,41,1.097,38,103.437,36,-165.696,0\Gh,41,1.09754,38,111.943,36,75.3623,0\Gh,41,1.53745,38,112.686,36,-42.9841,0\Gh,44,1.0963,41,112.356,38,169.578,0\Gh,44,1.09705,41,111.971,38,-74.5311,0\Gh,44,1.53766,41,115.456,38,44.1706,0\Gh,47,1.09685,44,113.583,41,-170.806,0\Gh,47,1.09699,44,108.732,41,67.8665,0\Gh,47,1.53768,44,112.927,41,-49.1772,0\Gh,50,1.09644,47,109.599,44,-66.0474,0\Gh,50,1.0965,47,112.348,44,178.924,0\H,40,2.13928,38,144.368,36,9.91242,0\C,53,1.09299,40,104.193,38,-157.23,0\H,54,1.09202,53,106.186,40,-134.075,0\H,54,1.09287,53,119.525,40,-14.5574,0\S,54,1.8072,53,98.4943,40,110.95,0\O,57,1.49743,54,103.455,53,-76.8999,0\C,57,1.8071,54,104.027,53,177.955,0\H,59,1.09253,57,109.847,54,49.6771,0\H,59,1.09273,57,111.34,54,-70.2117,0\H,59,1.09312,57,108.859,54,168.965,0\H,51,2.26854,50,124.819,47,-43.864,0\C,63,1.09255,51,115.717,50,142.69,0\H,64,1.09251,63,116.552,51,-60.4449,0\H,64,1.09368,63,114.953,51,-170.38,0\S,64,1.80678,63,114.395,51,68.0621,0\O,67,1.49699,64,105.754,63,76.2401,0\C,67,1.80719,64,101.513,63,-179.6,0\H,69,1.09256,67,101.652,64,-79.6544,0\H,69,1.09272,67,106.66,64,37.4839,0\H,69,1.09318,67,114.52,64,165.869,0\H,48,2.31933,47,115.725,44,-129.929,0\C,73,1.0936,48,138.751,47,-84.9236,0\H,74,1.09245,73,116.054,48,16.0493,0\H,74,1.09325,73,111.959,48,140.741,0\S,74,1.80765,73,98.8321,48,-102.781,0\O,77,1.49727,74,101.55,73,-42.9188,0\C,77,1.80634,74,94.8241,73,58.0493,0\H,79,1.09271,77,120.121,74,-176.674,0\H,79,1.09311,77,106.883,74,66.6532,0\H,79,1.09352,77,106.63,74,-53.9023,0\H,73,2.22298,48,104.175,47,73.4547,0\C,83,1.09303,73,118.515,48,-64.3224,0\H,84,1.09335,83,111.412,73,-174.869,0\H,84,1.09395,83,105.782,73,67.3437,0\S,84,1.80692,83,113.167,73,-48.6891,0\O,87,1.49664,84,103.906,83,-106.217,0\C,87,1.8071,84,95.4655,83,158.791,0\H,89,1.09223,87,107.108,84,-72.2399,0\H,89,1.09253,87,108.559,84,40.4829,0\H,89,1.09396,87,116.529,84,164.355,0\O,92,2.26897,89,143.051,87,105.454,0\S,93,1.497,92,98.8517,89,-78.21,0\C,94,1.80676,93,107.287,92,-177.569,0\H,95,1.09266,94,108.319,93,51.8896,0\H,95,1.0931,94,109.092,93,178.412,0\H,95,1.09393,94,112.22,93,-65.1829,0\C,94,1.80676,93,106.778,92,-71.8301,0\H,99,1.09289,94,113.904,93,94.3698,0\H,99,1.09301,94,116.072,93,-145.536,0\H,99,1.09301,94,113.428,93,-30.6045,0\H,102,2.00678,99,123.162,94,45.279,0\C,103,1.09328,102,133.451,99,-168.386,0\H,104,1.09225,103,116.153,102,-112.115,0\H,104,1.09284,103,111.67,102,5.75651,0\S,104,1.80713,103,109.503,102,125.63,0\O,107,1.49723,104,107.896,103,-179.237,0\C,107,1.80615,104,88.7033,103,73.4198,0\H,109,1.09302,107,109.925,104,-69.4592,0\H,109,1.09327,107,108.763,104,47.7504,0\H,109,1.09346,107,107.809,104,164.604,0\H,98,2.29113,95,148.013,94,-120.674,0\C,113,1.0929,98,104.581,95,-117.686,0\H,114,1.09208,113,114.27,98,41.3959,0\H,114,1.09289,113,110.208,98,-77.6825,0\S,114,1.80758,113,111.43,98,158.788,0\O,117,1.49698,114,101.961,113,49.9641,0\C,117,1.80635,114,96.357,113,163.468,0\H,119,1.09317,117,104.751,114,91.1647,0\H,119,1.09325,117,117.002,114,-24.2727,0\H,119,1.09338,117,110.175,114,-148.218,0\H,116,2.09991,114,100.577,113,1.65367,0\C,123,1.09241,116,119.024,114,151.737,0\H,124,1.09329,123,117.147,116,95.8088,0\H,124,1.09334,123,109.498,116,-139.561,0\S,124,1.80663,123,107.202,116,-27.9224,0\O,127,1.4972,124,103.679,123,74.608,0\C,127,1.80689,124,96.8148,123,-175.086,0\H,129,1.09248,127,117.551,124,-137.621,0\H,129,1.09274,127,108.534,124,101.745,0\H,129,1.09329,127,98.397,124,-11.2472,0\H,113,2.25751,98,118.252,95,11.7295,0\C,133,1.09303,113,139.499,98,-68.4645,0\H,134,1.09279,133,118.029,113,164.177,0\H,134,1.09363,133,110.92,113,-75.0819,0\S,134,1.80712,133,108.361,113,42.1142,0\O,137,1.49794,134,106.152,133,-39.7573,0\C,137,1.80731,134,97.6268,133,67.5452,0\H,139,1.09277,137,116.109,134,-171.397,0\H,139,1.09288,137,109.828,134,68.7139,0\H,139,1.09295,137,106.579,134,-43.9226,0\H,142,2.1687,139,108.896,137,123.059,0\C,143,1.09278,142,147.539,139,121.631,0\H,144,1.09228,143,111.76,142,-166.362,0\H,144,1.09346,143,111.733,142,72.1369,0\S,144,1.80715,143,114.079,142,-48.6969,0\O,147,1.49748,144,103.847,143,160.737,0\C,147,1.80696,144,96.2806,143,53.1587,0\H,149,1.09262,147,108.26,144,169.271,0\H,149,1.09264,147,109.509,144,-76.2612,0\H,149,1.09358,147,108.953,144,54.0238,0\O,141,2.29105,139,151.028,137,20.5794,0\S,153,1.49683,141,152.117,139,-159.293,0\C,154,1.80677,153,97.7,141,122.819,0\H,155,1.09271,154,100.938,153,177.411,0\H,155,1.09311,154,108.581,153,-65.721,0\H,155,1.09353,154,113.482,153,56.8879,0\C,154,1.80704,153,103.612,141,21.2195,0\H,159,1.09261,154,109.63,153,164.411,0\H,159,1.09323,154,108.988,153,48.5641,0\H,159,1.09338,154,107.131,153,-71.3874,0\H,46,2.35486,44,112.322,41,-68.6711,0\C,163,1.09245,46,108.558,44,-107.536,0\H,164,1.09274,163,101.979,46,141.606,0\H,164,1.09315,163,107.915,46,15.6511,0\S,164,1.80732,163,110.519,46,-108.399,0\O,167,1.49676,164,102.838,163,71.1526,0\C,167,1.80745,164,98.5269,163,175.651,0\H,169,1.09273,167,108.956,164,71.775,0\H,169,1.09291,167,102.03,164,-176.875,0\H,169,1.09304,167,117.391,164,-50.8567,0\H,172,2.01384,169,137.625,167,-1.71084,0\C,173,1.09346,172,146.416,169,172.613,0\H,174,1.09194,173,107.871,172,68.5561,0\H,174,1.09338,173,105.518,172,-171.361,0\S,174,1.80723,173,113.046,172,-55.6844,0\O,177,1.49671,174,103.52,173,-39.3329,0\C,177,1.80616,174,95.3464,173,65.0435,0\H,179,1.09281,177,102.854,174,178.582,0\H,179,1.09286,177,106.895,174,65.8069,0\H,179,1.09302,177,108.287,174,-59.7036,0\H,165,2.17806,164,143.478,163,68.7207,0\C,183,1.093,165,129.8,164,3.65657,0\H,184,1.0926,183,118.662,165,-26.2664,0\H,184,1.09346,183,116.752,165,99.5274,0\S,184,1.80757,183,102.944,165,-137.747,0\O,187,1.49711,184,102.287,183,-165.906,0\C,187,1.8064,184,96.6703,183,-61.9508,0\H,189,1.09263,187,107.515,184,173.827,0\H,189,1.09335,187,102.963,184,-61.6044,0\H,189,1.09362,187,110.017,184,57.348,0\H,185,2.22903,184,141.242,183,-140.2,0\C,193,1.09354,185,117.328,184,102.721,0\H,194,1.09264,193,109.814,185,-67.2375,0\H,194,1.09304,193,100.266,185,179.041,0\S,194,1.80731,193,113.497,185,51.7256,0\O,197,1.49724,194,103.854,193,-61.5761,0\C,197,1.80664,194,98.3364,193,38.4755,0\H,199,1.09215,197,112.33,194,-108.04,0\H,199,1.09279,197,108.439,194,8.37231,0\H,199,1.09292,197,116.593,194,131.862,0\H,195,2.23953,194,111.817,193,174.778,0\C,203,1.09327,195,144.848,194,57.2909,0\H,204,1.0931,203,107.865,195,-118.543,0\H,204,1.09351,203,104.968,195,129.388,0\S,204,1.80644,203,118.714,195,6.88256,0\O,207,1.49766,204,103.936,203,-46.3227,0\C,207,1.80773,204,98.6833,203,57.6287,0\H,209,1.09277,207,110.973,204,-74.003,0\H,209,1.09291,207,116.533,204,51.1848,0\H,209,1.09315,207,107.887,204,164.607,0\H,203,2.2742,195,64.7538,194,-139.856,0\C,213,1.093,203,132.89,195,125.561,0\H,214,1.09295,213,115.929,203,-70.0361,0\H,214,1.09299,213,107.147,203,164.934,0\S,214,1.80743,213,100.571,203,51.2392,0\O,217,1.49737,214,100.143,213,59.528,0\C,217,1.80758,214,102.497,213,165.303,0\H,219,1.09241,217,109.027,214,106.133,0\H,219,1.09255,217,108.882,214,-139.805,0\H,219,1.09294,217,112.1,214,-15.0757,0\H,215,1.87957,214,137.264,213,-165.35,0\C,223,1.09292,215,131.935,214,35.9545,0\H,224,1.09218,223,111.379,215,-23.2143,0\H,224,1.09313,223,115.331,215,96.0705,0\S,224,1.80788,223,111.422,215,-137.464,0\O,227,1.49687,224,99.0859,223,51.1619,0\C,227,1.80682,224,104.951,223,157.179,0\H,229,1.0928,227,107.134,224,79.288,0\H,229,1.09286,227,117.297,224,-170.557,0\H,229,1.09332,227,116.091,224,-45.8512,0\H,230,2.06077,229,143.354,227,-13.8066,0\C,233,1.09304,230,156.881,229,-144.573,0\H,234,1.09253,233,107.428,230,-51.0868,0\H,234,1.09368,233,107.563,230,-162.211,0\S,234,1.80686,233,115.753,230,74.1137,0\O,237,1.49665,234,101.841,233,65.0896,0\C,237,1.80668,234,100.954,233,168.253,0\H,239,1.09316,237,102.519,234,-62.5817,0\H,239,1.09323,237,108.853,234,-178.945,0\H,239,1.09328,237,110.782,234,54.2673,0\H,148,2.56149,147,90.5301,144,149.645,0\C,243,1.0933,148,136.899,147,68.3354,0\H,244,1.0933,243,111.138,148,-15.7223,0\H,244,1.09363,243,113.357,148,111.415,0\S,244,1.8062,243,109.645,148,-121.803,0\O,247,1.49678,244,94.7469,243,57.1547,0\C,247,1.80767,244,91.8546,243,-44.8894,0\H,249,1.09252,247,106.304,244,167.57,0\H,249,1.09269,247,111.956,244,-77.808,0\H,249,1.09278,247,109.436,244,44.0119,0\H,251,1.9068,249,106.286,247,114.205,0\C,253,1.09331,251,163.085,249,63.3258,0\H,254,1.09259,253,116.747,251,-160.392,0\H,254,1.09306,253,111.971,251,86.5999,0\S,254,1.80728,253,119.446,251,-35.5784,0\O,257,1.49662,254,103.885,253,163.58,0\C,257,1.80698,254,95.2844,253,57.6484,0\H,259,1.09281,257,105.76,254,66.4199,0\H,259,1.09284,257,109.204,254,-177.944,0\H,259,1.0935,257,111.402,254,-58.6814,0\H,70,2.65804,69,143.079,67,22.399,0\C,263,1.09289,70,105.725,69,134.695,0\H,264,1.09266,263,111.052,70,152.753,0\H,264,1.09283,263,112.113,70,33.1329,0\S,264,1.80747,263,113.333,70,-89.5987,0\O,267,1.49648,264,105.92,263,-77.0829,0\C,267,1.80715,264,95.6494,263,-176.546,0\H,269,1.09229,267,100.839,264,-161.181,0\H,269,1.09262,267,109.627,264,-45.1508,0\H,269,1.09331,267,109.746,264,80.7384,0\\\@

 Total job time:  62.86s(wall), 214.10s(cpu) 
 Fri Mar 12 07:44:42 2021

        *************************************************************
        *                                                           *
        *  Thank you very much for using Q-Chem.  Have a nice day.  *
        *                                                           *
        *************************************************************


