                  Welcome to Q-Chem
     A Quantum Leap Into The Future Of Chemistry


 Q-Chem 5.2 (devel), Q-Chem, Inc., Pleasanton, CA (2019)

 Yihan Shao,  Zhengting Gan,  E. Epifanovsky,  A. T. B. Gilbert,  M. Wormit,  
 J. Kussmann,  A. W. Lange,  A. Behn,  Jia Deng,  Xintian Feng,  D. Ghosh,  
 M. Goldey,  P. R. Horn,  L. D. Jacobson,  I. Kaliman,  T. Kus,  A. Landau,  
 Jie Liu,  E. I. Proynov,  R. M. Richard,  R. P. Steele,  E. J. Sundstrom,  
 H. L. Woodcock III,  P. M. Zimmerman,  D. Zuev,  B. Alam,  B. Albrecht,  
 E. Alguire,  S. A. Baeppler,  D. Barton,  Z. Benda,  Y. A. Bernard,  
 E. J. Berquist,  K. B. Bravaya,  H. Burton,  K. Carter-Fenk,  D. Casanova,  
 Chun-Min Chang,  Yunqing Chen,  A. Chien,  K. D. Closser,  M. P. Coons,  
 S. Coriani,  S. Dasgupta,  A. L. Dempwolff,  M. Diedenhofen,  Hainam Do,  
 R. G. Edgar,  Po-Tung Fang,  S. Faraji,  S. Fatehi,  Qingguo Feng,  
 J. Fosso-Tande,  J. Gayvert,  Qinghui Ge,  A. Ghysels,  G. Gidofalvi,  
 J. Gomes,  J. Gonthier,  A. Gunina,  D. Hait,  M. W. D. Hanson-Heine,  
 P. H. P. Harbach,  A. W. Hauser,  M. F. Herbst,  J. E. Herr,  
 E. G. Hohenstein,  Z. C. Holden,  Kerwin Hui,  B. C. Huynh,  T.-C. Jagau,  
 Hyunjun Ji,  B. Kaduk,  K. Khistyaev,  Jaehoon Kim,  P. Klunzinger,  K. Koh,  
 D. Kosenkov,  L. Koulias,  T. Kowalczyk,  C. M. Krauter,  A. Kunitsa,  
 Ka Un Lao,  A. Laurent,  K. V. Lawler,  Joonho Lee,  D. Lefrancois,  
 S. Lehtola,  D. S. Levine,  Yi-Pei Li,  You-Sheng Lin,  Fenglai Liu,  
 Kuan-Yu Liu,  E. Livshits,  M. Loipersberger,  A. Luenser,  P. Manohar,  
 E. Mansoor,  S. F. Manzer,  Shan-Ping Mao,  Yuezhi Mao,  N. Mardirossian,  
 A. V. Marenich,  T. Markovich,  L. A. Martinez-Martinez,  S. A. Maurer,  
 N. J. Mayhall,  S. C. McKenzie,  J.-M. Mewes,  P. Morgante,  A. F. Morrison,  
 J. W. Mullinax,  K. Nanda,  T. S. Nguyen-Beck,  R. Olivares-Amaya,  
 J. A. Parkhill,  S. K. Paul,  F. Pavosevic,  Zheng Pei,  T. M. Perrine,  
 F. Plasser,  P. Pokhilko,  S. Prager,  A. Prociuk,  E. Ramos,  B. Rana,  
 D. R. Rehn,  F. Rob,  M. Scheurer,  M. Schneider,  N. Sergueev,  
 S. M. Sharada,  S. Sharma,  D. W. Small,  T. Stauch,  C. J. Stein,  
 T. Stein,  Yu-Chuan Su,  S. P. Veccham,  Zhen Tao,  A. J. W. Thom,  
 A. Tkatchenko,  T. Tsuchimochi,  N. M. Tubman,  L. Vogt,  M. L. Vidal,  
 O. Vydrov,  M. A. Watson,  J. Wenzel,  M. de Wergifosse,  T. A. Wesolowski,  
 A. White,  J. Witte,  A. Yamada,  Jun Yang,  K. Yao,  S. Yeganeh,  
 S. R. Yost,  Zhi-Qiang You,  A. Zech,  Igor Ying Zhang,  Xing Zhang,  
 Yan Zhao,  Ying Zhu,  B. R. Brooks,  G. K. L. Chan,  C. J. Cramer,  
 M. S. Gordon,  W. J. Hehre,  A. Klamt,  M. W. Schmidt,  C. D. Sherrill,  
 D. G. Truhlar,  A. Aspuru-Guzik,  R. Baer,  A. T. Bell,  N. A. Besley,  
 Jeng-Da Chai,  A. E. DePrince, III,  R. A. DiStasio Jr.,  A. Dreuw,  
 B. D. Dunietz,  T. R. Furlani,  Chao-Ping Hsu,  Yousung Jung,  Jing Kong,  
 D. S. Lambrecht,  WanZhen Liang,  C. Ochsenfeld,  V. A. Rassolov,  
 L. V. Slipchenko,  J. E. Subotnik,  T. Van Voorhis,  J. M. Herbert,  
 A. I. Krylov,  P. M. W. Gill,  M. Head-Gordon

 Contributors to earlier versions of Q-Chem not listed above: 
 R. D. Adamson,  B. Austin,  J. Baker,  G. J. O. Beran,  K. Brandhorst,  
 S. T. Brown,  E. F. C. Byrd,  A. K. Chakraborty,  C.-L. Cheng,  
 Siu Hung Chien,  D. M. Chipman,  D. L. Crittenden,  H. Dachsel,  
 R. J. Doerksen,  A. D. Dutoi,  L. Fusti-Molnar,  W. A. Goddard III,  
 A. Golubeva-Zadorozhnaya,  S. R. Gwaltney,  G. Hawkins,  A. Heyden,  
 S. Hirata,  G. Kedziora,  F. J. Keil,  C. Kelley,  Jihan Kim,  R. A. King,  
 R. Z. Khaliullin,  P. P. Korambath,  W. Kurlancheek,  A. M. Lee,  M. S. Lee,  
 S. V. Levchenko,  Ching Yeh Lin,  D. Liotard,  R. C. Lochan,  I. Lotan,  
 P. E. Maslen,  N. Nair,  D. P. O'Neill,  D. Neuhauser,  E. Neuscamman,  
 C. M. Oana,  R. Olson,  B. Peters,  R. Peverati,  P. A. Pieniazek,  
 Y. M. Rhee,  J. Ritchie,  M. A. Rohrdanz,  E. Rosta,  N. J. Russ,  
 H. F. Schaefer III,  N. E. Schultz,  N. Shenvi,  A. C. Simmonett,  A. Sodt,  
 D. Stuck,  K. S. Thanthiriwatte,  V. Vanovschi,  Tao Wang,  A. Warshel,  
 C. F. Williams,  Q. Wu,  X. Xu,  W. Zhang

 Please cite Q-Chem as follows:
 Y. Shao et al., Mol. Phys. 113, 184-215 (2015)
 DOI: 10.1080/00268976.2014.952696

 Q-Chem 5.2.2 for Intel X86 EM64T Linux

 Parts of Q-Chem use Armadillo 9.800.1 (Horizon Scraper).
 http://arma.sourceforge.net/

 Q-Chem begins on Thu Mar 11 13:37:32 2021  

Host: n0070.mhg0
0

     Scratch files written to /local/scratch/users/ymao/r7.00_frame_0060_almo_B3LYP_dp.in20210311133729//

Checking the input file for inconsistencies... 	...done.

--------------------------------------------------------------
User input:
--------------------------------------------------------------
$molecule
0 1
--
0 1
C    26.31600   22.83200   25.07500  
C    26.84700   23.81400   26.13200  
C    28.24200   24.31700   25.72600  
C    28.22600   24.89400   24.30100  
C    27.65300   23.91900   23.25800  
C    26.24200   23.48500   23.68500  
H    28.64000   25.09700   26.38500  
H    26.17300   24.67500   26.21400  
H    27.00800   21.99600   24.91400  
H    25.40100   22.43600   25.53100  
H    27.59400   25.79000   24.29700  
H    29.21800   25.15800   23.91500  
H    27.54900   24.32400   22.24500  
H    28.27700   23.03300   23.09000  
H    25.46100   24.24600   23.56000  
H    25.93100   22.70500   22.97900  
H    28.96100   23.48900   25.70800  
N    26.86500   23.17400   27.44600  
H    27.50700   22.40800   27.61000  
C    26.00800   23.46300   28.48700  
H    25.99500   22.67000   29.25600  
O    25.27900   24.43900   28.51900  
--
0 1
C    26.39000   28.05500   29.43400  
H    25.74700   27.71300   30.25000  
H    27.44100   27.92100   29.70200  
H    26.14800   29.10300   29.23900  
S    26.22900   27.38600   27.76300  
C    27.62800   28.26600   27.03400  
H    27.69200   27.91000   26.00200  
H    27.31700   29.31400   27.03100  
H    28.57800   28.22300   27.57300  
O    25.01800   28.00300   27.13300  
C    29.00700   23.14100   29.91100  
H    27.93900   22.96100   30.05900  
H    29.42200   22.53800   29.10000  
H    29.52000   23.10500   30.87600  
S    29.15000   24.78700   29.17900  
C    30.95100   24.80300   29.03200  
H    31.36000   24.74700   30.04400  
H    31.34600   23.96800   28.44800  
H    31.24400   25.78400   28.65000  
O    29.11600   25.82500   30.25700  
C    31.42500   21.22400   26.84800  
H    30.89800   22.17400   26.96000  
H    30.71200   20.39600   26.82600  
H    32.19800   21.03400   27.59700  
S    32.26600   21.31700   25.25200  
C    33.34900   22.70200   25.66900  
H    33.84700   23.06100   24.76500  
H    32.75400   23.46300   26.18100  
H    34.16600   22.27400   26.25600  
O    31.33300   22.05400   24.34200  
C    24.89400   18.68200   31.19800  
H    25.56900   17.87500   31.49400  
H    24.84500   18.84400   30.11900  
H    25.33000   19.61300   31.56700  
S    23.23300   18.19500   31.72100  
C    22.39300   19.61400   30.98100  
H    22.72400   20.52500   31.48500  
H    22.52900   19.63200   29.89600  
H    21.31300   19.54500   31.13200  
O    23.30300   18.44000   33.19600  
C    27.16600   18.36900   27.38900  
H    26.80900   18.85900   26.47900  
H    27.46800   17.37000   27.06300  
H    26.30300   18.29800   28.05500  
S    28.52200   19.23000   28.21600  
C    28.34100   18.40100   29.81200  
H    28.23200   17.31900   29.71100  
H    29.21300   18.64200   30.42500  
H    27.48800   18.86400   30.31400  
O    28.05100   20.61000   28.55600  
C    24.28500   21.17400   18.01000  
H    25.30100   20.77900   17.93100  
H    23.74600   21.17600   17.05900  
H    24.29400   22.13000   18.54000  
S    23.38800   19.89700   18.92000  
C    24.38900   20.17400   20.39800  
H    24.10900   19.45800   21.17500  
H    25.41800   19.89400   20.15900  
H    24.24100   21.18800   20.77700  
O    23.86900   18.62700   18.29000  
C    29.00800   32.59900   30.18100  
H    29.09100   33.27600   29.32700  
H    28.23600   32.87700   30.90300  
H    29.97900   32.62000   30.68200  
S    28.75000   30.90900   29.59500  
C    29.49100   30.05300   31.00300  
H    29.16200   29.01300   31.06300  
H    30.56000   29.98200   30.78900  
H    29.19700   30.53700   31.93800  
O    29.68400   30.76900   28.43300  
C    28.52500   20.67500   32.37700  
H    28.17200   21.60100   32.83800  
H    29.50000   20.89700   31.93600  
H    27.92100   20.21200   31.59300  
S    28.79200   19.48200   33.70800  
C    27.06400   19.43500   34.23400  
H    26.76900   20.44000   34.54700  
H    26.35700   19.15500   33.44900  
H    26.90200   18.72000   35.04500  
O    29.41400   20.31500   34.78500  
C    20.20700   20.24000   23.83700  
H    19.86600   21.26700   23.98800  
H    19.47200   19.89200   23.10600  
H    20.16900   19.65600   24.76000  
S    21.88100   20.20100   23.15900  
C    22.57100   21.58300   24.09700  
H    23.43300   22.01700   23.58500  
H    21.78300   22.33900   24.05200  
H    22.72900   21.27200   25.13300  
O    21.63200   20.72500   21.77900  
C    25.39300   16.08600   20.39000  
H    25.66200   15.29600   21.09600  
H    25.36300   15.77200   19.34400  
H    26.03400   16.96200   20.51900  
S    23.70100   16.64500   20.69400  
C    24.01300   17.01500   22.43500  
H    23.02200   17.32400   22.77500  
H    24.32700   16.08800   22.92300  
H    24.81200   17.75900   22.48100  
O    22.87600   15.40800   20.86600  
C    20.96600   26.48500   25.01100  
H    21.28700   26.07500   24.05000  
H    19.88100   26.41300   24.90800  
H    21.22200   27.54400   25.10500  
S    21.40200   25.40700   26.39400  
C    23.06100   25.10700   25.74400  
H    23.48700   24.40300   26.46300  
H    22.86400   24.56300   24.81700  
H    23.71100   25.96900   25.56900  
O    20.69300   24.17500   25.92600  
C    30.36300   27.26700   16.70800  
H    30.79900   27.60600   15.76500  
H    29.79500   26.34900   16.53700  
H    29.77200   28.01000   17.25000  
S    31.71600   26.81600   17.81700  
C    32.04200   25.32300   16.85400  
H    31.84600   25.53500   15.79900  
H    33.11100   25.19300   17.04000  
H    31.47900   24.49900   17.30100  
O    31.16800   26.38000   19.14000  
C    22.79000   30.60600   23.74500  
H    23.38000   31.33400   23.18200  
H    21.80300   30.55100   23.27800  
H    22.64700   31.04500   24.73500  
S    23.57000   28.98400   23.90000  
C    25.22100   29.65800   24.18900  
H    25.45400   30.29900   23.33600  
H    25.18500   30.22300   25.12400  
H    25.81500   28.74500   24.28000  
O    23.70300   28.64300   22.44900  
C    32.59700   28.76400   25.26300  
H    32.43100   29.84200   25.31800  
H    33.47400   28.49600   25.85800  
H    32.86600   28.57400   24.22100  
S    31.17300   27.85700   25.90700  
C    32.21400   26.38400   26.01500  
H    32.62500   26.12400   25.03600  
H    33.03000   26.53500   26.72600  
H    31.42300   25.70000   26.33400  
O    30.25900   27.56400   24.75800  
C    32.10200   19.44300   18.86100  
H    32.46100   19.10700   19.83700  
H    31.01300   19.49300   18.93300  
H    32.44900   18.75000   18.08900  
S    32.94500   21.04000   18.81400  
C    32.51000   21.35500   17.08900  
H    31.59000   20.87400   16.74700  
H    32.31400   22.42100   16.95000  
H    33.44700   21.04800   16.61700  
O    34.38700   20.63700   18.79100  
C    28.42100   27.18700   20.88500  
H    28.33900   26.12900   20.62200  
H    28.60800   27.79200   19.99500  
H    29.19700   27.27700   21.65000  
S    26.77600   27.62000   21.49400  
C    25.89100   27.77600   19.92600  
H    24.91900   28.23200   20.12700  
H    26.40100   28.51600   19.30400  
H    25.81400   26.77100   19.50400  
O    26.89000   29.06500   21.87000  
C    28.72700   30.59300   23.74600  
H    28.35300   30.47600   22.72600  
H    29.07600   29.64400   24.16200  
H    27.93900   31.06600   24.33900  
S    30.12400   31.72200   23.54900  
C    30.33400   31.93400   25.33100  
H    29.46200   32.23000   25.91900  
H    30.58600   30.91500   25.63300  
H    31.14600   32.65300   25.47500  
O    29.33200   32.92900   23.15500  
C    24.87600   30.44200   34.00400  
H    25.04600   31.52200   33.98200  
H    23.83300   30.13000   34.10700  
H    25.51000   30.03600   34.79600  
S    25.56700   29.59100   32.56800  
C    24.23700   30.09700   31.45300  
H    24.27000   29.44900   30.57400  
H    23.27700   29.94700   31.95400  
H    24.30900   31.13000   31.10400  
O    25.10000   28.22000   32.94500  
C    28.01600   22.41900   19.72100  
H    27.11500   22.13000   19.17300  
H    28.47500   21.48500   20.05300  
H    27.61500   23.09700   20.47900  
S    29.05600   23.53100   18.74700  
C    27.64800   24.28000   17.89700  
H    27.13700   23.44400   17.41100  
H    27.01600   24.83200   18.59700  
H    28.05600   24.99300   17.17600  
O    29.51100   22.59900   17.66700  
C    23.04500   26.39200   30.35600  
H    22.86300   25.48400   30.93700  
H    23.58200   26.14700   29.43600  
H    23.50500   27.22900   30.88700  
S    21.36300   26.87600   29.90800  
C    21.77400   28.47000   29.16200  
H    22.45400   28.40800   28.30800  
H    20.82400   28.73100   28.68700  
H    22.05800   29.21400   29.91000  
O    20.73300   27.19900   31.22600  
C    30.28900   19.04600   22.71300  
H    30.80700   19.40800   21.82100  
H    30.71100   19.55900   23.58100  
H    30.33600   17.95600   22.77900  
S    28.56200   19.57000   22.62400  
C    27.91200   18.57200   23.98300  
H    28.42600   18.91100   24.88700  
H    26.83500   18.75700   24.00300  
H    28.02500   17.49400   23.84800  
O    28.00600   18.80800   21.46300  
C    19.92100   20.61200   27.67200  
H    20.43800   20.06200   28.46100  
H    19.28400   19.98700   27.04200  
H    20.65100   21.12000   27.03600  
S    18.94200   21.94900   28.39400  
C    20.38300   22.66200   29.22000  
H    21.11000   22.97400   28.46600  
H    20.04000   23.45500   29.88900  
H    20.83400   21.84300   29.78600  
O    18.28900   21.34200   29.59700  
C    23.39200   25.51700   21.96200  
H    24.17800   26.20000   22.29400  
H    22.42500   26.02500   21.98600  
H    23.39400   24.60100   22.55800  
S    23.75200   25.03600   20.25800  
C    22.48300   23.75000   20.23200  
H    21.50300   24.21000   20.38700  
H    22.61500   23.30100   19.24400  
H    22.74600   22.94300   20.92100  
O    25.04300   24.28300   20.34500  
C    31.72500   25.45400   22.65300  
H    31.79500   24.91200   23.59900  
H    31.72600   26.52800   22.85500  
H    30.86900   25.18400   22.02900  
S    33.14100   25.04500   21.60800  
C    32.94000   23.25500   21.74800  
H    32.02800   22.96100   21.22200  
H    33.81900   22.74800   21.34000  
H    32.79000   23.02000   22.80500  
O    34.26500   25.37400   22.54000  
C    24.32600   24.63400   32.77500  
H    24.36400   24.28700   31.73900  
H    23.51400   24.04400   33.20800  
H    24.12300   25.70800   32.80900  
S    25.88000   24.34600   33.65000  
C    26.87100   25.05500   32.31600  
H    26.55300   26.09200   32.18200  
H    27.94500   24.95600   32.49400  
H    26.62700   24.53300   31.38800  
O    26.08800   22.86800   33.53100  
C    22.73700   17.13200   28.24400  
H    21.80200   17.18000   28.80800  
H    22.98200   16.13600   27.86500  
H    23.49800   17.38000   28.98800  
S    22.53500   18.35000   26.92500  
C    23.61800   17.64100   25.66300  
H    23.82900   18.19700   24.74600  
H    24.58600   17.62900   26.17100  
H    23.33000   16.60500   25.46900  
O    23.27800   19.54400   27.43700  
C    21.19300   27.09500   18.69400  
H    20.29000   27.58500   18.32200  
H    21.83800   26.79000   17.86500  
H    20.82900   26.21000   19.22300  
S    22.13400   28.38800   19.53500  
C    20.99300   28.48300   20.93200  
H    21.45000   29.16900   21.65000  
H    20.11700   29.05100   20.60700  
H    20.64500   27.50600   21.27600  
O    21.75600   29.63600   18.80000  
C    36.38000   23.36400   27.77700  
H    36.74200   22.99300   28.74000  
H    35.97400   22.54900   27.17200  
H    37.17200   23.85100   27.20300  
S    35.00200   24.44400   28.22000  
C    35.80000   25.39300   29.53400  
H    34.96100   25.86400   30.05300  
H    36.49200   24.73200   30.06200  
H    36.37400   26.18500   29.04700  
O    34.04500   23.53200   28.92200  
$end

$rem
JOBTYPE  SP
METHOD  B3LYP
BASIS  6-31+G(D)
SYMMETRY  FALSE
SYM_IGNORE  TRUE
MEM_TOTAL  16000
MEM_STATIC  8000
MAX_SUB_FILE_NUM  16000
BASIS_LIN_DEP_THRESH  6
THRESH  14
SCF_CONVERGENCE  8
GEN_SCFMAN  TRUE
SCF_GUESS  FRAGMO
FD_MAT_VEC_PROD  FALSE
XC_GRID  000075000302
NL_GRID  1
MAX_SCF_CYCLES  200
FRGM_METHOD  STOLL
SCFMI_MODE  1
$end

$development
almo_efield  1
$end

$rem_frgm
SCF_CONVERGENCE  4
$end

--------------------------------------------------------------
 ----------------------------------------------------------------
             Standard Nuclear Orientation (Angstroms)
    I     Atom           X                Y                Z
 ----------------------------------------------------------------
    1      C      26.3160000000    22.8320000000    25.0750000000
    2      C      26.8470000000    23.8140000000    26.1320000000
    3      C      28.2420000000    24.3170000000    25.7260000000
    4      C      28.2260000000    24.8940000000    24.3010000000
    5      C      27.6530000000    23.9190000000    23.2580000000
    6      C      26.2420000000    23.4850000000    23.6850000000
    7      H      28.6400000000    25.0970000000    26.3850000000
    8      H      26.1730000000    24.6750000000    26.2140000000
    9      H      27.0080000000    21.9960000000    24.9140000000
   10      H      25.4010000000    22.4360000000    25.5310000000
   11      H      27.5940000000    25.7900000000    24.2970000000
   12      H      29.2180000000    25.1580000000    23.9150000000
   13      H      27.5490000000    24.3240000000    22.2450000000
   14      H      28.2770000000    23.0330000000    23.0900000000
   15      H      25.4610000000    24.2460000000    23.5600000000
   16      H      25.9310000000    22.7050000000    22.9790000000
   17      H      28.9610000000    23.4890000000    25.7080000000
   18      N      26.8650000000    23.1740000000    27.4460000000
   19      H      27.5070000000    22.4080000000    27.6100000000
   20      C      26.0080000000    23.4630000000    28.4870000000
   21      H      25.9950000000    22.6700000000    29.2560000000
   22      O      25.2790000000    24.4390000000    28.5190000000
   23      C      26.3900000000    28.0550000000    29.4340000000
   24      H      25.7470000000    27.7130000000    30.2500000000
   25      H      27.4410000000    27.9210000000    29.7020000000
   26      H      26.1480000000    29.1030000000    29.2390000000
   27      S      26.2290000000    27.3860000000    27.7630000000
   28      C      27.6280000000    28.2660000000    27.0340000000
   29      H      27.6920000000    27.9100000000    26.0020000000
   30      H      27.3170000000    29.3140000000    27.0310000000
   31      H      28.5780000000    28.2230000000    27.5730000000
   32      O      25.0180000000    28.0030000000    27.1330000000
   33      C      29.0070000000    23.1410000000    29.9110000000
   34      H      27.9390000000    22.9610000000    30.0590000000
   35      H      29.4220000000    22.5380000000    29.1000000000
   36      H      29.5200000000    23.1050000000    30.8760000000
   37      S      29.1500000000    24.7870000000    29.1790000000
   38      C      30.9510000000    24.8030000000    29.0320000000
   39      H      31.3600000000    24.7470000000    30.0440000000
   40      H      31.3460000000    23.9680000000    28.4480000000
   41      H      31.2440000000    25.7840000000    28.6500000000
   42      O      29.1160000000    25.8250000000    30.2570000000
   43      C      31.4250000000    21.2240000000    26.8480000000
   44      H      30.8980000000    22.1740000000    26.9600000000
   45      H      30.7120000000    20.3960000000    26.8260000000
   46      H      32.1980000000    21.0340000000    27.5970000000
   47      S      32.2660000000    21.3170000000    25.2520000000
   48      C      33.3490000000    22.7020000000    25.6690000000
   49      H      33.8470000000    23.0610000000    24.7650000000
   50      H      32.7540000000    23.4630000000    26.1810000000
   51      H      34.1660000000    22.2740000000    26.2560000000
   52      O      31.3330000000    22.0540000000    24.3420000000
   53      C      24.8940000000    18.6820000000    31.1980000000
   54      H      25.5690000000    17.8750000000    31.4940000000
   55      H      24.8450000000    18.8440000000    30.1190000000
   56      H      25.3300000000    19.6130000000    31.5670000000
   57      S      23.2330000000    18.1950000000    31.7210000000
   58      C      22.3930000000    19.6140000000    30.9810000000
   59      H      22.7240000000    20.5250000000    31.4850000000
   60      H      22.5290000000    19.6320000000    29.8960000000
   61      H      21.3130000000    19.5450000000    31.1320000000
   62      O      23.3030000000    18.4400000000    33.1960000000
   63      C      27.1660000000    18.3690000000    27.3890000000
   64      H      26.8090000000    18.8590000000    26.4790000000
   65      H      27.4680000000    17.3700000000    27.0630000000
   66      H      26.3030000000    18.2980000000    28.0550000000
   67      S      28.5220000000    19.2300000000    28.2160000000
   68      C      28.3410000000    18.4010000000    29.8120000000
   69      H      28.2320000000    17.3190000000    29.7110000000
   70      H      29.2130000000    18.6420000000    30.4250000000
   71      H      27.4880000000    18.8640000000    30.3140000000
   72      O      28.0510000000    20.6100000000    28.5560000000
   73      C      24.2850000000    21.1740000000    18.0100000000
   74      H      25.3010000000    20.7790000000    17.9310000000
   75      H      23.7460000000    21.1760000000    17.0590000000
   76      H      24.2940000000    22.1300000000    18.5400000000
   77      S      23.3880000000    19.8970000000    18.9200000000
   78      C      24.3890000000    20.1740000000    20.3980000000
   79      H      24.1090000000    19.4580000000    21.1750000000
   80      H      25.4180000000    19.8940000000    20.1590000000
   81      H      24.2410000000    21.1880000000    20.7770000000
   82      O      23.8690000000    18.6270000000    18.2900000000
   83      C      29.0080000000    32.5990000000    30.1810000000
   84      H      29.0910000000    33.2760000000    29.3270000000
   85      H      28.2360000000    32.8770000000    30.9030000000
   86      H      29.9790000000    32.6200000000    30.6820000000
   87      S      28.7500000000    30.9090000000    29.5950000000
   88      C      29.4910000000    30.0530000000    31.0030000000
   89      H      29.1620000000    29.0130000000    31.0630000000
   90      H      30.5600000000    29.9820000000    30.7890000000
   91      H      29.1970000000    30.5370000000    31.9380000000
   92      O      29.6840000000    30.7690000000    28.4330000000
   93      C      28.5250000000    20.6750000000    32.3770000000
   94      H      28.1720000000    21.6010000000    32.8380000000
   95      H      29.5000000000    20.8970000000    31.9360000000
   96      H      27.9210000000    20.2120000000    31.5930000000
   97      S      28.7920000000    19.4820000000    33.7080000000
   98      C      27.0640000000    19.4350000000    34.2340000000
   99      H      26.7690000000    20.4400000000    34.5470000000
  100      H      26.3570000000    19.1550000000    33.4490000000
  101      H      26.9020000000    18.7200000000    35.0450000000
  102      O      29.4140000000    20.3150000000    34.7850000000
  103      C      20.2070000000    20.2400000000    23.8370000000
  104      H      19.8660000000    21.2670000000    23.9880000000
  105      H      19.4720000000    19.8920000000    23.1060000000
  106      H      20.1690000000    19.6560000000    24.7600000000
  107      S      21.8810000000    20.2010000000    23.1590000000
  108      C      22.5710000000    21.5830000000    24.0970000000
  109      H      23.4330000000    22.0170000000    23.5850000000
  110      H      21.7830000000    22.3390000000    24.0520000000
  111      H      22.7290000000    21.2720000000    25.1330000000
  112      O      21.6320000000    20.7250000000    21.7790000000
  113      C      25.3930000000    16.0860000000    20.3900000000
  114      H      25.6620000000    15.2960000000    21.0960000000
  115      H      25.3630000000    15.7720000000    19.3440000000
  116      H      26.0340000000    16.9620000000    20.5190000000
  117      S      23.7010000000    16.6450000000    20.6940000000
  118      C      24.0130000000    17.0150000000    22.4350000000
  119      H      23.0220000000    17.3240000000    22.7750000000
  120      H      24.3270000000    16.0880000000    22.9230000000
  121      H      24.8120000000    17.7590000000    22.4810000000
  122      O      22.8760000000    15.4080000000    20.8660000000
  123      C      20.9660000000    26.4850000000    25.0110000000
  124      H      21.2870000000    26.0750000000    24.0500000000
  125      H      19.8810000000    26.4130000000    24.9080000000
  126      H      21.2220000000    27.5440000000    25.1050000000
  127      S      21.4020000000    25.4070000000    26.3940000000
  128      C      23.0610000000    25.1070000000    25.7440000000
  129      H      23.4870000000    24.4030000000    26.4630000000
  130      H      22.8640000000    24.5630000000    24.8170000000
  131      H      23.7110000000    25.9690000000    25.5690000000
  132      O      20.6930000000    24.1750000000    25.9260000000
  133      C      30.3630000000    27.2670000000    16.7080000000
  134      H      30.7990000000    27.6060000000    15.7650000000
  135      H      29.7950000000    26.3490000000    16.5370000000
  136      H      29.7720000000    28.0100000000    17.2500000000
  137      S      31.7160000000    26.8160000000    17.8170000000
  138      C      32.0420000000    25.3230000000    16.8540000000
  139      H      31.8460000000    25.5350000000    15.7990000000
  140      H      33.1110000000    25.1930000000    17.0400000000
  141      H      31.4790000000    24.4990000000    17.3010000000
  142      O      31.1680000000    26.3800000000    19.1400000000
  143      C      22.7900000000    30.6060000000    23.7450000000
  144      H      23.3800000000    31.3340000000    23.1820000000
  145      H      21.8030000000    30.5510000000    23.2780000000
  146      H      22.6470000000    31.0450000000    24.7350000000
  147      S      23.5700000000    28.9840000000    23.9000000000
  148      C      25.2210000000    29.6580000000    24.1890000000
  149      H      25.4540000000    30.2990000000    23.3360000000
  150      H      25.1850000000    30.2230000000    25.1240000000
  151      H      25.8150000000    28.7450000000    24.2800000000
  152      O      23.7030000000    28.6430000000    22.4490000000
  153      C      32.5970000000    28.7640000000    25.2630000000
  154      H      32.4310000000    29.8420000000    25.3180000000
  155      H      33.4740000000    28.4960000000    25.8580000000
  156      H      32.8660000000    28.5740000000    24.2210000000
  157      S      31.1730000000    27.8570000000    25.9070000000
  158      C      32.2140000000    26.3840000000    26.0150000000
  159      H      32.6250000000    26.1240000000    25.0360000000
  160      H      33.0300000000    26.5350000000    26.7260000000
  161      H      31.4230000000    25.7000000000    26.3340000000
  162      O      30.2590000000    27.5640000000    24.7580000000
  163      C      32.1020000000    19.4430000000    18.8610000000
  164      H      32.4610000000    19.1070000000    19.8370000000
  165      H      31.0130000000    19.4930000000    18.9330000000
  166      H      32.4490000000    18.7500000000    18.0890000000
  167      S      32.9450000000    21.0400000000    18.8140000000
  168      C      32.5100000000    21.3550000000    17.0890000000
  169      H      31.5900000000    20.8740000000    16.7470000000
  170      H      32.3140000000    22.4210000000    16.9500000000
  171      H      33.4470000000    21.0480000000    16.6170000000
  172      O      34.3870000000    20.6370000000    18.7910000000
  173      C      28.4210000000    27.1870000000    20.8850000000
  174      H      28.3390000000    26.1290000000    20.6220000000
  175      H      28.6080000000    27.7920000000    19.9950000000
  176      H      29.1970000000    27.2770000000    21.6500000000
  177      S      26.7760000000    27.6200000000    21.4940000000
  178      C      25.8910000000    27.7760000000    19.9260000000
  179      H      24.9190000000    28.2320000000    20.1270000000
  180      H      26.4010000000    28.5160000000    19.3040000000
  181      H      25.8140000000    26.7710000000    19.5040000000
  182      O      26.8900000000    29.0650000000    21.8700000000
  183      C      28.7270000000    30.5930000000    23.7460000000
  184      H      28.3530000000    30.4760000000    22.7260000000
  185      H      29.0760000000    29.6440000000    24.1620000000
  186      H      27.9390000000    31.0660000000    24.3390000000
  187      S      30.1240000000    31.7220000000    23.5490000000
  188      C      30.3340000000    31.9340000000    25.3310000000
  189      H      29.4620000000    32.2300000000    25.9190000000
  190      H      30.5860000000    30.9150000000    25.6330000000
  191      H      31.1460000000    32.6530000000    25.4750000000
  192      O      29.3320000000    32.9290000000    23.1550000000
  193      C      24.8760000000    30.4420000000    34.0040000000
  194      H      25.0460000000    31.5220000000    33.9820000000
  195      H      23.8330000000    30.1300000000    34.1070000000
  196      H      25.5100000000    30.0360000000    34.7960000000
  197      S      25.5670000000    29.5910000000    32.5680000000
  198      C      24.2370000000    30.0970000000    31.4530000000
  199      H      24.2700000000    29.4490000000    30.5740000000
  200      H      23.2770000000    29.9470000000    31.9540000000
  201      H      24.3090000000    31.1300000000    31.1040000000
  202      O      25.1000000000    28.2200000000    32.9450000000
  203      C      28.0160000000    22.4190000000    19.7210000000
  204      H      27.1150000000    22.1300000000    19.1730000000
  205      H      28.4750000000    21.4850000000    20.0530000000
  206      H      27.6150000000    23.0970000000    20.4790000000
  207      S      29.0560000000    23.5310000000    18.7470000000
  208      C      27.6480000000    24.2800000000    17.8970000000
  209      H      27.1370000000    23.4440000000    17.4110000000
  210      H      27.0160000000    24.8320000000    18.5970000000
  211      H      28.0560000000    24.9930000000    17.1760000000
  212      O      29.5110000000    22.5990000000    17.6670000000
  213      C      23.0450000000    26.3920000000    30.3560000000
  214      H      22.8630000000    25.4840000000    30.9370000000
  215      H      23.5820000000    26.1470000000    29.4360000000
  216      H      23.5050000000    27.2290000000    30.8870000000
  217      S      21.3630000000    26.8760000000    29.9080000000
  218      C      21.7740000000    28.4700000000    29.1620000000
  219      H      22.4540000000    28.4080000000    28.3080000000
  220      H      20.8240000000    28.7310000000    28.6870000000
  221      H      22.0580000000    29.2140000000    29.9100000000
  222      O      20.7330000000    27.1990000000    31.2260000000
  223      C      30.2890000000    19.0460000000    22.7130000000
  224      H      30.8070000000    19.4080000000    21.8210000000
  225      H      30.7110000000    19.5590000000    23.5810000000
  226      H      30.3360000000    17.9560000000    22.7790000000
  227      S      28.5620000000    19.5700000000    22.6240000000
  228      C      27.9120000000    18.5720000000    23.9830000000
  229      H      28.4260000000    18.9110000000    24.8870000000
  230      H      26.8350000000    18.7570000000    24.0030000000
  231      H      28.0250000000    17.4940000000    23.8480000000
  232      O      28.0060000000    18.8080000000    21.4630000000
  233      C      19.9210000000    20.6120000000    27.6720000000
  234      H      20.4380000000    20.0620000000    28.4610000000
  235      H      19.2840000000    19.9870000000    27.0420000000
  236      H      20.6510000000    21.1200000000    27.0360000000
  237      S      18.9420000000    21.9490000000    28.3940000000
  238      C      20.3830000000    22.6620000000    29.2200000000
  239      H      21.1100000000    22.9740000000    28.4660000000
  240      H      20.0400000000    23.4550000000    29.8890000000
  241      H      20.8340000000    21.8430000000    29.7860000000
  242      O      18.2890000000    21.3420000000    29.5970000000
  243      C      23.3920000000    25.5170000000    21.9620000000
  244      H      24.1780000000    26.2000000000    22.2940000000
  245      H      22.4250000000    26.0250000000    21.9860000000
  246      H      23.3940000000    24.6010000000    22.5580000000
  247      S      23.7520000000    25.0360000000    20.2580000000
  248      C      22.4830000000    23.7500000000    20.2320000000
  249      H      21.5030000000    24.2100000000    20.3870000000
  250      H      22.6150000000    23.3010000000    19.2440000000
  251      H      22.7460000000    22.9430000000    20.9210000000
  252      O      25.0430000000    24.2830000000    20.3450000000
  253      C      31.7250000000    25.4540000000    22.6530000000
  254      H      31.7950000000    24.9120000000    23.5990000000
  255      H      31.7260000000    26.5280000000    22.8550000000
  256      H      30.8690000000    25.1840000000    22.0290000000
  257      S      33.1410000000    25.0450000000    21.6080000000
  258      C      32.9400000000    23.2550000000    21.7480000000
  259      H      32.0280000000    22.9610000000    21.2220000000
  260      H      33.8190000000    22.7480000000    21.3400000000
  261      H      32.7900000000    23.0200000000    22.8050000000
  262      O      34.2650000000    25.3740000000    22.5400000000
  263      C      24.3260000000    24.6340000000    32.7750000000
  264      H      24.3640000000    24.2870000000    31.7390000000
  265      H      23.5140000000    24.0440000000    33.2080000000
  266      H      24.1230000000    25.7080000000    32.8090000000
  267      S      25.8800000000    24.3460000000    33.6500000000
  268      C      26.8710000000    25.0550000000    32.3160000000
  269      H      26.5530000000    26.0920000000    32.1820000000
  270      H      27.9450000000    24.9560000000    32.4940000000
  271      H      26.6270000000    24.5330000000    31.3880000000
  272      O      26.0880000000    22.8680000000    33.5310000000
  273      C      22.7370000000    17.1320000000    28.2440000000
  274      H      21.8020000000    17.1800000000    28.8080000000
  275      H      22.9820000000    16.1360000000    27.8650000000
  276      H      23.4980000000    17.3800000000    28.9880000000
  277      S      22.5350000000    18.3500000000    26.9250000000
  278      C      23.6180000000    17.6410000000    25.6630000000
  279      H      23.8290000000    18.1970000000    24.7460000000
  280      H      24.5860000000    17.6290000000    26.1710000000
  281      H      23.3300000000    16.6050000000    25.4690000000
  282      O      23.2780000000    19.5440000000    27.4370000000
  283      C      21.1930000000    27.0950000000    18.6940000000
  284      H      20.2900000000    27.5850000000    18.3220000000
  285      H      21.8380000000    26.7900000000    17.8650000000
  286      H      20.8290000000    26.2100000000    19.2230000000
  287      S      22.1340000000    28.3880000000    19.5350000000
  288      C      20.9930000000    28.4830000000    20.9320000000
  289      H      21.4500000000    29.1690000000    21.6500000000
  290      H      20.1170000000    29.0510000000    20.6070000000
  291      H      20.6450000000    27.5060000000    21.2760000000
  292      O      21.7560000000    29.6360000000    18.8000000000
  293      C      36.3800000000    23.3640000000    27.7770000000
  294      H      36.7420000000    22.9930000000    28.7400000000
  295      H      35.9740000000    22.5490000000    27.1720000000
  296      H      37.1720000000    23.8510000000    27.2030000000
  297      S      35.0020000000    24.4440000000    28.2200000000
  298      C      35.8000000000    25.3930000000    29.5340000000
  299      H      34.9610000000    25.8640000000    30.0530000000
  300      H      36.4920000000    24.7320000000    30.0620000000
  301      H      36.3740000000    26.1850000000    29.0470000000
  302      O      34.0450000000    23.5320000000    28.9220000000
 ----------------------------------------------------------------
 Nuclear Repulsion Energy =       50415.98041828 hartrees
 There are      623 alpha and      623 beta electrons
 Requested basis set is 6-31+G(d)
 There are 995 shells and 2773 basis functions

 Total QAlloc Memory Limit  16000 MB
 Mega-Array Size      7821 MB
 MEM_STATIC part      8000 MB
 A cutoff of  1.0D-14 yielded 182987 shell pairs
 There are   1586434 function pairs
 Smallest overlap matrix eigenvalue = 5.90E-07
 Linear dependence detected in AO basis
 Tighter screening thresholds may be required for diffuse basis sets
 Use S2THRESH > 14 and THRESH = 14 in case of SCF convergence issues
 Number of orthogonalized atomic orbitals = 2771
 Maximum deviation from orthogonality = 9.181E-11

 Scale SEOQF with 1.000000e-03/1.000000e-03/1.000000e-03

 Standard Electronic Orientation quadrupole field applied
 Nucleus-field energy     =    -0.0000000310 hartrees
Attempting to make child job directory: /local/scratch/users/ymao/r7.00_frame_0060_almo_B3LYP_dp.in20210311133729//Frg1/
Attempting to make child job directory: /local/scratch/users/ymao/r7.00_frame_0060_almo_B3LYP_dp.in20210311133729//Frg2/
Creating input file /local/scratch/users/ymao/r7.00_frame_0060_almo_B3LYP_dp.in20210311133729/Frg1.input
using default PutDataFrgm: nothing
calling putenv with: QCSCRATCH=/local/scratch/users/ymao/r7.00_frame_0060_almo_B3LYP_dp.in20210311133729/ 
Spawning Job For Fragment 0
Done Job For Fragment 0
calling putenv with: QCSCRATCH=/local/scratch/users/ymao 
calling putenv with: QCTHREADS=8 
Creating input file /local/scratch/users/ymao/r7.00_frame_0060_almo_B3LYP_dp.in20210311133729/Frg2.input
using default PutDataFrgm: nothing
calling putenv with: QCSCRATCH=/local/scratch/users/ymao/r7.00_frame_0060_almo_B3LYP_dp.in20210311133729/ 
Spawning Job For Fragment 1
Done Job For Fragment 1
calling putenv with: QCSCRATCH=/local/scratch/users/ymao 
calling putenv with: QCTHREADS=8 
 Time for running child jobs:  CPU 1.33 s  wall 24075.50 s

 -----------------------------------------------------------------------
  General SCF calculation program by
  Eric Jon Sundstrom, Paul Horn, Yuezhi Mao, Dmitri Zuev, Alec White,
  David Stuck, Shaama M.S., Shane Yost, Joonho Lee, David Small,
  Daniel Levine, Susi Lehtola, Hugh Burton, Evgeny Epifanovsky,
  Bang C. Huynh
 -----------------------------------------------------------------------
Performing Restricted Closed Shell SCFMI
Doing General SCFMI
 Exchange:     0.2000 Hartree-Fock + 0.0800 Slater + 0.7200 B88
 Correlation:  0.1900 VWN1RPA + 0.8100 LYP
 Using Euler-Maclaurin-Lebedev (75,302) quadrature formula
performing fock build before subrot guess so that all methods have access
Printing subrot_rss_gen Method Specification:
Occupied Subspace Method is 0
Virtual Subspace Method is 0
Energy prior to optimization (guess energy) = -15893.887634356586
Begin Timing: Total SCF Calculation
begin iterations for algorithm: DIIS         
the SCF tolerance is set to 1.00e-08
    1  -15893.8876343566      4.12e-05     00000 
    2  -15893.8836706679      6.91e-05     00000 
    3  -15893.8964928982      1.32e-05     00000 
    4  -15893.8969418375      6.37e-06     00000 
    5  -15893.8970695909      3.18e-06     00000 
    6  -15893.8970963869      2.10e-06     00000 
    7  -15893.8971079983      1.33e-06     00000 
    8  -15893.8971133205      6.82e-07     00000 
    9  -15893.8971143932      4.60e-07     00000 
   10  -15893.8971148195      3.12e-07     00000 
   11  -15893.8971150131      2.09e-07     00000 
   12  -15893.8971151218      1.05e-07     00000 
   13  -15893.8971151534      5.78e-08     00000 
   14  -15893.8971151626      3.82e-08     00000 
   15  -15893.8971151657      2.74e-08     00000 
   16  -15893.8971151677      1.31e-08     00000 
   17  -15893.8971151680      7.50e-09     00000 Convergence criterion met
write pseudocanon occs and virts to disk
write pseudocanon orbital energies to disk
Timing for Total SCF: 60147.00s (wall), 476490.44s (cpu)
SCFMI Energy  -15893.8971151680
<S^2>            0.00000
 Total energy in the final basis set =   -15893.8971151680
    ==================================================
        The end of Object-Oriented SCFman: SCFMI      
    ==================================================
 
 --------------------------------------------------------------
 
                    Orbital Energies (a.u.)
 --------------------------------------------------------------
 
 Alpha MOs
 -- Occupied --
-89.0554 -89.0420 -89.0317 -89.0301 -89.0287 -89.0285 -89.0211 -89.0195
-89.0188 -89.0168 -89.0157 -89.0154 -89.0090 -89.0058 -89.0050 -89.0045
-89.0007 -88.9998 -88.9932 -88.9915 -88.9909 -88.9909 -88.9908 -88.9888
-88.9874 -88.9853 -88.9841 -88.9770 -19.1703 -19.1556 -19.1470 -19.1446
-19.1435 -19.1394 -19.1391 -19.1377 -19.1367 -19.1363 -19.1306 -19.1298
-19.1291 -19.1288 -19.1234 -19.1215 -19.1150 -19.1128 -19.1127 -19.1126
-19.1081 -19.1071 -19.1031 -19.1010 -19.1003 -19.0993 -19.0990 -19.0962
-19.0827 -14.3742 -10.3054 -10.2664 -10.2643 -10.2577 -10.2563 -10.2549
-10.2533 -10.2525 -10.2516 -10.2435 -10.2425 -10.2421 -10.2415 -10.2395
-10.2393 -10.2391 -10.2339 -10.2337 -10.2326 -10.2325 -10.2312 -10.2311
-10.2300 -10.2278 -10.2268 -10.2258 -10.2251 -10.2246 -10.2230 -10.2227
-10.2213 -10.2213 -10.2202 -10.2189 -10.2177 -10.2165 -10.2160 -10.2148
-10.2145 -10.2128 -10.2122 -10.2119 -10.2104 -10.2101 -10.2089 -10.2066
-10.2060 -10.2056 -10.2052 -10.2046 -10.2038 -10.2034 -10.2033 -10.2028
-10.2005 -10.1997 -10.1987 -10.1981 -10.1973 -10.1960 -10.1912 -10.1889
-10.1779  -8.1011  -8.0878  -8.0780  -8.0765  -8.0748  -8.0746  -8.0672
 -8.0653  -8.0645  -8.0627  -8.0614  -8.0606  -8.0555  -8.0517  -8.0516
 -8.0505  -8.0463  -8.0456  -8.0399  -8.0376  -8.0370  -8.0368  -8.0363
 -8.0347  -8.0332  -8.0314  -8.0305  -8.0235  -6.0655  -6.0641  -6.0585
 -6.0522  -6.0512  -6.0449  -6.0423  -6.0410  -6.0408  -6.0397  -6.0389
 -6.0388  -6.0378  -6.0378  -6.0355  -6.0338  -6.0326  -6.0320  -6.0315
 -6.0304  -6.0297  -6.0288  -6.0285  -6.0274  -6.0272  -6.0257  -6.0256
 -6.0249  -6.0244  -6.0244  -6.0239  -6.0228  -6.0221  -6.0202  -6.0198
 -6.0192  -6.0185  -6.0182  -6.0161  -6.0159  -6.0149  -6.0147  -6.0145
 -6.0133  -6.0128  -6.0108  -6.0096  -6.0094  -6.0093  -6.0089  -6.0088
 -6.0082  -6.0039  -6.0032  -6.0031  -6.0029  -6.0017  -6.0012  -6.0010
 -6.0007  -6.0007  -6.0002  -5.9999  -5.9994  -5.9989  -5.9978  -5.9977
 -5.9975  -5.9962  -5.9958  -5.9953  -5.9946  -5.9945  -5.9944  -5.9944
 -5.9938  -5.9936  -5.9921  -5.9907  -5.9887  -5.9878  -5.9877  -5.9863
 -5.9813  -1.0801  -1.0656  -1.0580  -1.0568  -1.0560  -1.0516  -1.0497
 -1.0469  -1.0457  -1.0453  -1.0415  -1.0413  -1.0368  -1.0345  -1.0331
 -1.0303  -1.0301  -1.0294  -1.0220  -1.0203  -1.0152  -1.0151  -1.0115
 -1.0111  -1.0110  -1.0110  -1.0108  -1.0095  -0.9971  -0.9398  -0.8525
 -0.8414  -0.8402  -0.8353  -0.8325  -0.8282  -0.8253  -0.8250  -0.8217
 -0.8211  -0.8206  -0.8174  -0.8135  -0.8129  -0.8084  -0.8072  -0.8035
 -0.7990  -0.7981  -0.7976  -0.7950  -0.7947  -0.7945  -0.7940  -0.7898
 -0.7897  -0.7887  -0.7881  -0.7782  -0.7752  -0.7723  -0.7658  -0.7621
 -0.7605  -0.7596  -0.7562  -0.7524  -0.7520  -0.7459  -0.7427  -0.7420
 -0.7419  -0.7374  -0.7360  -0.7358  -0.7322  -0.7287  -0.7279  -0.7269
 -0.7235  -0.7226  -0.7219  -0.7216  -0.7201  -0.7188  -0.7162  -0.7156
 -0.7092  -0.6984  -0.6691  -0.6568  -0.6521  -0.6429  -0.6415  -0.6410
 -0.6399  -0.6350  -0.6342  -0.6321  -0.6303  -0.6290  -0.6289  -0.6257
 -0.6222  -0.6188  -0.6179  -0.6168  -0.6165  -0.6142  -0.6062  -0.6054
 -0.6050  -0.6040  -0.6037  -0.6025  -0.6017  -0.5996  -0.5986  -0.5979
 -0.5873  -0.5809  -0.5442  -0.5292  -0.5240  -0.5218  -0.5205  -0.5189
 -0.5143  -0.5091  -0.5091  -0.5060  -0.5052  -0.5046  -0.5035  -0.5024
 -0.5006  -0.4996  -0.4993  -0.4983  -0.4968  -0.4948  -0.4944  -0.4938
 -0.4933  -0.4931  -0.4927  -0.4920  -0.4918  -0.4913  -0.4910  -0.4902
 -0.4894  -0.4879  -0.4869  -0.4866  -0.4862  -0.4852  -0.4843  -0.4840
 -0.4836  -0.4825  -0.4822  -0.4814  -0.4813  -0.4803  -0.4800  -0.4787
 -0.4779  -0.4776  -0.4768  -0.4763  -0.4758  -0.4756  -0.4752  -0.4747
 -0.4741  -0.4727  -0.4727  -0.4716  -0.4698  -0.4694  -0.4691  -0.4682
 -0.4678  -0.4673  -0.4662  -0.4659  -0.4655  -0.4649  -0.4638  -0.4638
 -0.4633  -0.4620  -0.4617  -0.4615  -0.4611  -0.4605  -0.4601  -0.4590
 -0.4588  -0.4576  -0.4574  -0.4568  -0.4564  -0.4562  -0.4557  -0.4555
 -0.4550  -0.4536  -0.4534  -0.4529  -0.4525  -0.4517  -0.4511  -0.4509
 -0.4496  -0.4481  -0.4469  -0.4468  -0.4460  -0.4458  -0.4452  -0.4448
 -0.4430  -0.4426  -0.4414  -0.4391  -0.4380  -0.4373  -0.4369  -0.4367
 -0.4362  -0.4353  -0.4351  -0.4345  -0.4333  -0.4318  -0.4314  -0.4313
 -0.4306  -0.4295  -0.4284  -0.4279  -0.4276  -0.4273  -0.4269  -0.4254
 -0.4249  -0.4232  -0.4229  -0.4224  -0.4213  -0.4210  -0.4200  -0.4197
 -0.4192  -0.4171  -0.4165  -0.4162  -0.4155  -0.4141  -0.4132  -0.4118
 -0.4109  -0.4105  -0.4103  -0.4099  -0.4086  -0.4081  -0.4070  -0.4067
 -0.4066  -0.4060  -0.4055  -0.4039  -0.4021  -0.4019  -0.4012  -0.4009
 -0.4001  -0.3983  -0.3977  -0.3969  -0.3955  -0.3954  -0.3952  -0.3948
 -0.3942  -0.3936  -0.3933  -0.3926  -0.3922  -0.3915  -0.3906  -0.3900
 -0.3886  -0.3866  -0.3864  -0.3863  -0.3857  -0.3848  -0.3837  -0.3827
 -0.3821  -0.3812  -0.3796  -0.3769  -0.3766  -0.3752  -0.3738  -0.3731
 -0.3715  -0.3693  -0.3684  -0.3673  -0.3629  -0.3613  -0.3593  -0.3570
 -0.3570  -0.3567  -0.3555  -0.3545  -0.3541  -0.3513  -0.3494  -0.3469
 -0.3465  -0.3423  -0.3387  -0.3345  -0.3316  -0.3178  -0.3154  -0.3099
 -0.3023  -0.3018  -0.2979  -0.2978  -0.2969  -0.2959  -0.2940  -0.2920
 -0.2916  -0.2890  -0.2874  -0.2841  -0.2811  -0.2808  -0.2783  -0.2741
 -0.2733  -0.2732  -0.2718  -0.2713  -0.2712  -0.2710  -0.2703  -0.2694
 -0.2674  -0.2662  -0.2657  -0.2654  -0.2627  -0.2618  -0.2606  -0.2599
 -0.2593  -0.2589  -0.2585  -0.2578  -0.2556  -0.2529  -0.2493  -0.2484
 -0.2470  -0.2457  -0.2407  -0.2405  -0.2388  -0.2380  -0.2326  -0.2317
 -0.2302  -0.2296  -0.2292  -0.2274  -0.2263  -0.2241  -0.2175
 -- Virtual --
 -0.0522  -0.0457  -0.0412  -0.0397  -0.0366  -0.0357  -0.0343  -0.0306
 -0.0303  -0.0284  -0.0271  -0.0265  -0.0235  -0.0227  -0.0216  -0.0211
 -0.0200  -0.0190  -0.0183  -0.0162  -0.0159  -0.0153  -0.0135  -0.0126
 -0.0115  -0.0109  -0.0100  -0.0098  -0.0090  -0.0088  -0.0081  -0.0074
 -0.0067  -0.0065  -0.0048  -0.0040  -0.0036  -0.0029  -0.0022  -0.0006
 -0.0001   0.0006   0.0013   0.0021   0.0031   0.0035   0.0046   0.0052
  0.0064   0.0068   0.0075   0.0081   0.0082   0.0088   0.0101   0.0115
  0.0127   0.0132   0.0133   0.0140   0.0149   0.0149   0.0156   0.0160
  0.0169   0.0173   0.0177   0.0186   0.0195   0.0197   0.0202   0.0208
  0.0221   0.0225   0.0231   0.0235   0.0238   0.0244   0.0249   0.0254
  0.0264   0.0271   0.0278   0.0281   0.0285   0.0290   0.0295   0.0300
  0.0303   0.0308   0.0311   0.0325   0.0327   0.0336   0.0342   0.0353
  0.0356   0.0358   0.0361   0.0372   0.0380   0.0384   0.0390   0.0396
  0.0408   0.0415   0.0421   0.0427   0.0432   0.0440   0.0443   0.0447
  0.0453   0.0460   0.0467   0.0471   0.0486   0.0490   0.0493   0.0501
  0.0508   0.0514   0.0520   0.0521   0.0529   0.0531   0.0540   0.0544
  0.0549   0.0560   0.0566   0.0580   0.0585   0.0592   0.0596   0.0600
  0.0607   0.0614   0.0621   0.0627   0.0630   0.0637   0.0649   0.0653
  0.0657   0.0665   0.0669   0.0674   0.0677   0.0685   0.0688   0.0694
  0.0700   0.0709   0.0712   0.0718   0.0720   0.0726   0.0733   0.0745
  0.0752   0.0756   0.0764   0.0771   0.0781   0.0784   0.0788   0.0794
  0.0797   0.0801   0.0813   0.0819   0.0821   0.0830   0.0835   0.0850
  0.0853   0.0858   0.0863   0.0864   0.0873   0.0883   0.0883   0.0890
  0.0899   0.0908   0.0909   0.0920   0.0924   0.0931   0.0938   0.0940
  0.0946   0.0960   0.0967   0.0976   0.0979   0.0982   0.0989   0.0990
  0.1000   0.1006   0.1009   0.1015   0.1017   0.1024   0.1028   0.1038
  0.1045   0.1046   0.1048   0.1054   0.1063   0.1064   0.1077   0.1082
  0.1087   0.1089   0.1098   0.1103   0.1106   0.1109   0.1119   0.1130
  0.1134   0.1136   0.1141   0.1149   0.1150   0.1156   0.1159   0.1162
  0.1171   0.1174   0.1182   0.1186   0.1200   0.1202   0.1210   0.1220
  0.1222   0.1227   0.1238   0.1250   0.1253   0.1255   0.1264   0.1270
  0.1272   0.1279   0.1285   0.1288   0.1300   0.1307   0.1316   0.1323
  0.1329   0.1334   0.1340   0.1349   0.1352   0.1357   0.1366   0.1368
  0.1373   0.1383   0.1387   0.1392   0.1402   0.1404   0.1406   0.1412
  0.1416   0.1425   0.1428   0.1438   0.1438   0.1444   0.1455   0.1460
  0.1467   0.1470   0.1477   0.1483   0.1493   0.1496   0.1500   0.1505
  0.1506   0.1507   0.1511   0.1518   0.1520   0.1528   0.1530   0.1535
  0.1543   0.1554   0.1556   0.1565   0.1576   0.1588   0.1590   0.1599
  0.1600   0.1605   0.1609   0.1615   0.1623   0.1630   0.1632   0.1639
  0.1645   0.1653   0.1658   0.1664   0.1665   0.1675   0.1679   0.1687
  0.1695   0.1700   0.1706   0.1710   0.1719   0.1726   0.1732   0.1735
  0.1741   0.1746   0.1746   0.1759   0.1768   0.1773   0.1775   0.1777
  0.1792   0.1793   0.1799   0.1809   0.1818   0.1824   0.1832   0.1834
  0.1842   0.1852   0.1858   0.1863   0.1867   0.1870   0.1875   0.1885
  0.1887   0.1895   0.1899   0.1904   0.1912   0.1915   0.1922   0.1930
  0.1935   0.1939   0.1950   0.1954   0.1964   0.1967   0.1972   0.1975
  0.1977   0.1994   0.1996   0.2002   0.2011   0.2012   0.2018   0.2023
  0.2027   0.2035   0.2046   0.2051   0.2053   0.2059   0.2059   0.2079
  0.2081   0.2087   0.2097   0.2098   0.2103   0.2111   0.2113   0.2123
  0.2124   0.2130   0.2135   0.2141   0.2145   0.2148   0.2158   0.2161
  0.2176   0.2178   0.2183   0.2196   0.2199   0.2203   0.2209   0.2216
  0.2218   0.2226   0.2231   0.2244   0.2245   0.2252   0.2257   0.2262
  0.2269   0.2272   0.2282   0.2292   0.2296   0.2314   0.2321   0.2327
  0.2330   0.2333   0.2338   0.2340   0.2350   0.2354   0.2360   0.2365
  0.2371   0.2379   0.2388   0.2402   0.2405   0.2414   0.2422   0.2425
  0.2431   0.2441   0.2451   0.2459   0.2463   0.2471   0.2479   0.2485
  0.2493   0.2500   0.2504   0.2512   0.2520   0.2523   0.2530   0.2535
  0.2539   0.2546   0.2557   0.2565   0.2569   0.2573   0.2574   0.2581
  0.2583   0.2595   0.2604   0.2606   0.2612   0.2623   0.2628   0.2639
  0.2651   0.2652   0.2664   0.2668   0.2680   0.2686   0.2696   0.2705
  0.2710   0.2713   0.2714   0.2719   0.2730   0.2736   0.2747   0.2750
  0.2761   0.2763   0.2780   0.2786   0.2791   0.2802   0.2803   0.2805
  0.2816   0.2832   0.2835   0.2838   0.2849   0.2858   0.2860   0.2867
  0.2869   0.2883   0.2896   0.2899   0.2907   0.2917   0.2922   0.2931
  0.2938   0.2941   0.2960   0.2961   0.2975   0.2979   0.2985   0.2990
  0.2992   0.3002   0.3005   0.3023   0.3031   0.3034   0.3048   0.3052
  0.3054   0.3065   0.3067   0.3075   0.3085   0.3095   0.3097   0.3105
  0.3118   0.3122   0.3130   0.3131   0.3144   0.3150   0.3158   0.3164
  0.3174   0.3183   0.3188   0.3194   0.3200   0.3213   0.3217   0.3219
  0.3226   0.3232   0.3238   0.3250   0.3261   0.3265   0.3273   0.3281
  0.3294   0.3298   0.3310   0.3320   0.3329   0.3332   0.3340   0.3364
  0.3372   0.3377   0.3389   0.3393   0.3402   0.3412   0.3417   0.3431
  0.3438   0.3443   0.3452   0.3461   0.3466   0.3479   0.3483   0.3492
  0.3504   0.3509   0.3514   0.3527   0.3529   0.3535   0.3541   0.3553
  0.3557   0.3572   0.3579   0.3585   0.3593   0.3606   0.3618   0.3623
  0.3629   0.3630   0.3639   0.3649   0.3651   0.3656   0.3664   0.3670
  0.3677   0.3688   0.3697   0.3702   0.3708   0.3722   0.3727   0.3742
  0.3747   0.3753   0.3759   0.3764   0.3776   0.3781   0.3785   0.3795
  0.3803   0.3811   0.3819   0.3821   0.3827   0.3847   0.3856   0.3858
  0.3862   0.3873   0.3884   0.3891   0.3894   0.3902   0.3915   0.3928
  0.3937   0.3947   0.3953   0.3961   0.3970   0.3979   0.3987   0.4002
  0.4004   0.4019   0.4029   0.4039   0.4043   0.4051   0.4054   0.4062
  0.4071   0.4074   0.4090   0.4104   0.4111   0.4126   0.4138   0.4147
  0.4158   0.4162   0.4171   0.4187   0.4203   0.4205   0.4225   0.4228
  0.4232   0.4239   0.4253   0.4272   0.4277   0.4281   0.4290   0.4307
  0.4316   0.4332   0.4341   0.4349   0.4357   0.4375   0.4380   0.4389
  0.4404   0.4418   0.4430   0.4438   0.4458   0.4459   0.4477   0.4493
  0.4504   0.4507   0.4517   0.4532   0.4537   0.4553   0.4571   0.4581
  0.4587   0.4599   0.4618   0.4636   0.4643   0.4655   0.4672   0.4688
  0.4699   0.4702   0.4717   0.4734   0.4739   0.4750   0.4757   0.4769
  0.4793   0.4805   0.4814   0.4824   0.4841   0.4852   0.4860   0.4881
  0.4905   0.4920   0.4936   0.4947   0.4954   0.4964   0.4978   0.4988
  0.5002   0.5021   0.5036   0.5044   0.5076   0.5094   0.5112   0.5115
  0.5137   0.5165   0.5180   0.5196   0.5206   0.5222   0.5235   0.5248
  0.5256   0.5274   0.5284   0.5299   0.5314   0.5331   0.5354   0.5358
  0.5379   0.5385   0.5396   0.5424   0.5457   0.5466   0.5480   0.5482
  0.5490   0.5511   0.5537   0.5547   0.5554   0.5576   0.5593   0.5599
  0.5626   0.5633   0.5645   0.5663   0.5673   0.5688   0.5699   0.5701
  0.5730   0.5759   0.5772   0.5779   0.5787   0.5804   0.5813   0.5818
  0.5833   0.5844   0.5865   0.5871   0.5878   0.5887   0.5905   0.5930
  0.5944   0.5954   0.5971   0.5984   0.5997   0.6006   0.6014   0.6026
  0.6035   0.6051   0.6064   0.6078   0.6093   0.6115   0.6134   0.6147
  0.6157   0.6175   0.6182   0.6185   0.6203   0.6211   0.6216   0.6224
  0.6238   0.6243   0.6252   0.6272   0.6281   0.6299   0.6306   0.6321
  0.6342   0.6350   0.6351   0.6367   0.6372   0.6388   0.6392   0.6406
  0.6412   0.6426   0.6437   0.6445   0.6450   0.6461   0.6476   0.6485
  0.6498   0.6501   0.6504   0.6518   0.6518   0.6530   0.6536   0.6563
  0.6570   0.6572   0.6591   0.6595   0.6612   0.6613   0.6618   0.6629
  0.6632   0.6651   0.6671   0.6679   0.6688   0.6696   0.6710   0.6713
  0.6727   0.6746   0.6751   0.6770   0.6778   0.6784   0.6792   0.6804
  0.6816   0.6824   0.6835   0.6845   0.6851   0.6866   0.6869   0.6897
  0.6903   0.6908   0.6927   0.6931   0.6949   0.6950   0.6967   0.6974
  0.6980   0.6993   0.7002   0.7010   0.7018   0.7043   0.7052   0.7066
  0.7079   0.7091   0.7100   0.7113   0.7124   0.7138   0.7152   0.7157
  0.7161   0.7176   0.7188   0.7213   0.7218   0.7228   0.7247   0.7259
  0.7269   0.7283   0.7300   0.7314   0.7326   0.7347   0.7352   0.7367
  0.7383   0.7395   0.7401   0.7408   0.7426   0.7436   0.7460   0.7482
  0.7501   0.7515   0.7539   0.7546   0.7564   0.7592   0.7599   0.7605
  0.7609   0.7634   0.7650   0.7658   0.7677   0.7686   0.7697   0.7718
  0.7731   0.7740   0.7757   0.7765   0.7772   0.7802   0.7809   0.7834
  0.7847   0.7864   0.7877   0.7892   0.7912   0.7916   0.7934   0.7949
  0.7958   0.7972   0.7990   0.7993   0.8020   0.8025   0.8042   0.8052
  0.8077   0.8085   0.8114   0.8120   0.8130   0.8137   0.8156   0.8167
  0.8169   0.8191   0.8210   0.8225   0.8234   0.8250   0.8265   0.8276
  0.8282   0.8288   0.8304   0.8313   0.8323   0.8358   0.8365   0.8375
  0.8387   0.8396   0.8408   0.8430   0.8447   0.8456   0.8472   0.8482
  0.8493   0.8494   0.8510   0.8517   0.8551   0.8558   0.8567   0.8575
  0.8596   0.8604   0.8614   0.8628   0.8642   0.8650   0.8661   0.8669
  0.8679   0.8693   0.8704   0.8711   0.8723   0.8733   0.8745   0.8763
  0.8780   0.8784   0.8796   0.8801   0.8810   0.8826   0.8833   0.8857
  0.8864   0.8879   0.8879   0.8890   0.8904   0.8918   0.8923   0.8937
  0.8955   0.8961   0.8974   0.8992   0.8999   0.9013   0.9029   0.9038
  0.9056   0.9068   0.9078   0.9085   0.9098   0.9105   0.9120   0.9129
  0.9136   0.9159   0.9164   0.9178   0.9182   0.9187   0.9203   0.9208
  0.9228   0.9240   0.9255   0.9270   0.9282   0.9290   0.9293   0.9301
  0.9317   0.9326   0.9331   0.9350   0.9358   0.9383   0.9385   0.9387
  0.9396   0.9409   0.9421   0.9430   0.9440   0.9456   0.9471   0.9477
  0.9488   0.9495   0.9514   0.9522   0.9534   0.9546   0.9551   0.9558
  0.9572   0.9577   0.9604   0.9612   0.9618   0.9628   0.9632   0.9645
  0.9654   0.9669   0.9686   0.9697   0.9713   0.9714   0.9729   0.9737
  0.9744   0.9753   0.9758   0.9765   0.9784   0.9790   0.9800   0.9815
  0.9823   0.9839   0.9854   0.9857   0.9869   0.9888   0.9900   0.9902
  0.9911   0.9918   0.9921   0.9933   0.9946   0.9947   0.9972   0.9981
  0.9989   1.0011   1.0013   1.0021   1.0040   1.0051   1.0058   1.0066
  1.0084   1.0089   1.0102   1.0117   1.0130   1.0142   1.0155   1.0162
  1.0166   1.0183   1.0204   1.0207   1.0215   1.0234   1.0243   1.0253
  1.0259   1.0269   1.0277   1.0281   1.0301   1.0323   1.0335   1.0349
  1.0354   1.0369   1.0377   1.0394   1.0409   1.0418   1.0424   1.0430
  1.0456   1.0469   1.0478   1.0496   1.0502   1.0515   1.0521   1.0530
  1.0542   1.0551   1.0554   1.0563   1.0584   1.0592   1.0595   1.0609
  1.0626   1.0648   1.0658   1.0660   1.0668   1.0674   1.0712   1.0721
  1.0734   1.0745   1.0765   1.0786   1.0788   1.0807   1.0816   1.0832
  1.0849   1.0854   1.0861   1.0890   1.0903   1.0908   1.0918   1.0937
  1.0949   1.0965   1.0978   1.1004   1.1008   1.1009   1.1018   1.1037
  1.1053   1.1062   1.1072   1.1095   1.1101   1.1110   1.1131   1.1140
  1.1161   1.1175   1.1182   1.1193   1.1212   1.1222   1.1242   1.1248
  1.1262   1.1267   1.1274   1.1287   1.1298   1.1302   1.1311   1.1327
  1.1344   1.1363   1.1368   1.1375   1.1395   1.1404   1.1419   1.1423
  1.1444   1.1453   1.1475   1.1480   1.1500   1.1512   1.1525   1.1537
  1.1550   1.1565   1.1575   1.1592   1.1602   1.1619   1.1635   1.1639
  1.1662   1.1695   1.1702   1.1713   1.1718   1.1735   1.1743   1.1771
  1.1778   1.1795   1.1797   1.1801   1.1808   1.1830   1.1860   1.1877
  1.1897   1.1917   1.1925   1.1926   1.1944   1.1959   1.1993   1.2010
  1.2017   1.2042   1.2060   1.2074   1.2086   1.2114   1.2118   1.2134
  1.2159   1.2176   1.2181   1.2192   1.2220   1.2243   1.2251   1.2260
  1.2270   1.2301   1.2328   1.2336   1.2346   1.2365   1.2388   1.2405
  1.2454   1.2477   1.2481   1.2485   1.2505   1.2511   1.2526   1.2560
  1.2577   1.2616   1.2629   1.2660   1.2672   1.2678   1.2680   1.2706
  1.2732   1.2760   1.2774   1.2798   1.2813   1.2846   1.2851   1.2880
  1.2887   1.2901   1.2913   1.2941   1.2966   1.2999   1.3015   1.3057
  1.3068   1.3099   1.3120   1.3131   1.3134   1.3165   1.3199   1.3212
  1.3231   1.3237   1.3263   1.3269   1.3281   1.3292   1.3322   1.3340
  1.3348   1.3376   1.3385   1.3400   1.3418   1.3423   1.3444   1.3450
  1.3459   1.3472   1.3502   1.3520   1.3533   1.3548   1.3562   1.3584
  1.3600   1.3603   1.3626   1.3633   1.3639   1.3659   1.3666   1.3686
  1.3691   1.3708   1.3715   1.3741   1.3757   1.3768   1.3782   1.3787
  1.3804   1.3807   1.3850   1.3855   1.3875   1.3892   1.3908   1.3927
  1.3951   1.3955   1.3962   1.3976   1.3992   1.4005   1.4009   1.4020
  1.4056   1.4060   1.4075   1.4085   1.4090   1.4110   1.4116   1.4132
  1.4145   1.4151   1.4175   1.4199   1.4203   1.4210   1.4219   1.4227
  1.4245   1.4252   1.4274   1.4292   1.4298   1.4323   1.4343   1.4365
  1.4383   1.4398   1.4408   1.4420   1.4440   1.4460   1.4469   1.4492
  1.4496   1.4513   1.4534   1.4552   1.4574   1.4598   1.4600   1.4619
  1.4629   1.4657   1.4658   1.4705   1.4724   1.4751   1.4757   1.4790
  1.4796   1.4806   1.4829   1.4856   1.4890   1.4910   1.4920   1.4955
  1.4969   1.4970   1.4989   1.5004   1.5017   1.5036   1.5082   1.5098
  1.5118   1.5128   1.5172   1.5189   1.5213   1.5249   1.5269   1.5279
  1.5304   1.5340   1.5355   1.5375   1.5402   1.5429   1.5436   1.5469
  1.5479   1.5509   1.5555   1.5572   1.5618   1.5650   1.5666   1.5689
  1.5738   1.5813   1.5844   1.5891   1.5921   1.5947   1.5992   1.6031
  1.6062   1.6121   1.6138   1.6194   1.6233   1.6262   1.6317   1.6353
  1.6377   1.6386   1.6421   1.6448   1.6469   1.6483   1.6486   1.6494
  1.6513   1.6527   1.6539   1.6556   1.6594   1.6615   1.6624   1.6635
  1.6643   1.6653   1.6670   1.6683   1.6695   1.6705   1.6716   1.6731
  1.6738   1.6757   1.6778   1.6781   1.6791   1.6803   1.6825   1.6834
  1.6836   1.6854   1.6859   1.6865   1.6884   1.6887   1.6903   1.6917
  1.6937   1.6959   1.6971   1.6986   1.6999   1.7015   1.7020   1.7043
  1.7050   1.7074   1.7088   1.7101   1.7106   1.7111   1.7118   1.7134
  1.7138   1.7154   1.7190   1.7199   1.7211   1.7228   1.7231   1.7249
  1.7266   1.7273   1.7279   1.7290   1.7292   1.7314   1.7317   1.7323
  1.7339   1.7353   1.7371   1.7381   1.7389   1.7406   1.7419   1.7439
  1.7453   1.7469   1.7479   1.7490   1.7500   1.7508   1.7538   1.7539
  1.7560   1.7573   1.7583   1.7586   1.7609   1.7619   1.7642   1.7651
  1.7663   1.7670   1.7679   1.7691   1.7725   1.7729   1.7743   1.7756
  1.7771   1.7785   1.7810   1.7840   1.7860   1.7886   1.7894   1.7918
  1.7933   1.8004   1.8058   1.8081   1.8096   1.8113   1.8147   1.8165
  1.8176   1.8223   1.8231   1.8252   1.8273   1.8307   1.8311   1.8341
  1.8355   1.8366   1.8413   1.8434   1.8457   1.8469   1.8489   1.8505
  1.8511   1.8551   1.8571   1.8597   1.8613   1.8628   1.8639   1.8647
  1.8669   1.8706   1.8718   1.8744   1.8754   1.8767   1.8775   1.8788
  1.8809   1.8816   1.8826   1.8834   1.8855   1.8865   1.8888   1.8891
  1.8905   1.8907   1.8917   1.8935   1.8954   1.8964   1.8972   1.8977
  1.8994   1.9005   1.9018   1.9023   1.9027   1.9042   1.9047   1.9060
  1.9078   1.9095   1.9100   1.9103   1.9135   1.9141   1.9162   1.9167
  1.9178   1.9195   1.9202   1.9222   1.9250   1.9257   1.9274   1.9293
  1.9308   1.9321   1.9335   1.9380   1.9393   1.9411   1.9432   1.9460
  1.9506   1.9512   1.9556   1.9586   1.9613   1.9641   1.9678   1.9778
  1.9794   1.9880   1.9954   2.0015   2.0102   2.0158   2.0199   2.0237
  2.0344   2.0385   2.0405   2.0448   2.0450   2.0471   2.0477   2.0482
  2.0511   2.0516   2.0524   2.0548   2.0556   2.0566   2.0574   2.0593
  2.0600   2.0619   2.0656   2.0662   2.0666   2.0683   2.0688   2.0693
  2.0705   2.0713   2.0757   2.0783   2.0797   2.0799   2.0811   2.0826
  2.0835   2.0838   2.0850   2.0853   2.0892   2.0902   2.0929   2.0965
  2.0973   2.0981   2.1008   2.1010   2.1021   2.1040   2.1049   2.1066
  2.1078   2.1100   2.1107   2.1116   2.1158   2.1177   2.1208   2.1218
  2.1242   2.1251   2.1298   2.1328   2.1346   2.1400   2.1422   2.1428
  2.1460   2.1490   2.1594   2.1690   2.1697   2.1725   2.1780   2.1790
  2.1812   2.1824   2.1857   2.1867   2.1909   2.1918   2.1963   2.1980
  2.2027   2.2049   2.2062   2.2084   2.2097   2.2121   2.2126   2.2140
  2.2172   2.2189   2.2203   2.2222   2.2226   2.2239   2.2244   2.2246
  2.2265   2.2270   2.2278   2.2286   2.2295   2.2312   2.2322   2.2323
  2.2329   2.2344   2.2352   2.2358   2.2383   2.2387   2.2397   2.2406
  2.2409   2.2417   2.2426   2.2435   2.2440   2.2443   2.2454   2.2460
  2.2476   2.2479   2.2489   2.2504   2.2507   2.2515   2.2524   2.2530
  2.2539   2.2541   2.2546   2.2561   2.2565   2.2570   2.2577   2.2593
  2.2603   2.2607   2.2627   2.2640   2.2648   2.2655   2.2658   2.2673
  2.2676   2.2680   2.2689   2.2694   2.2698   2.2709   2.2717   2.2723
  2.2736   2.2746   2.2753   2.2767   2.2778   2.2785   2.2791   2.2811
  2.2818   2.2838   2.2844   2.2858   2.2860   2.2873   2.2878   2.2882
  2.2899   2.2901   2.2911   2.2914   2.2919   2.2923   2.2948   2.2952
  2.2964   2.2978   2.2982   2.3008   2.3017   2.3036   2.3040   2.3049
  2.3061   2.3072   2.3083   2.3087   2.3103   2.3115   2.3122   2.3146
  2.3158   2.3168   2.3182   2.3193   2.3210   2.3229   2.3235   2.3239
  2.3263   2.3286   2.3295   2.3300   2.3315   2.3323   2.3342   2.3357
  2.3360   2.3380   2.3409   2.3437   2.3453   2.3477   2.3504   2.3514
  2.3522   2.3538   2.3544   2.3579   2.3588   2.3614   2.3641   2.3661
  2.3667   2.3688   2.3697   2.3725   2.3754   2.3800   2.3850   2.3864
  2.3884   2.3973   2.3983   2.4061   2.4111   2.4280   2.4415   2.4708
  2.4888   2.5116   2.5496   2.5895   2.6689   2.7042   2.7558   2.7652
  2.7890   2.8032   2.8044   2.8223   2.8236   2.8266   2.8318   2.8324
  2.8339   2.8374   2.8377   2.8436   2.8476   2.8483   2.8499   2.8507
  2.8533   2.8553   2.8558   2.8574   2.8589   2.8601   2.8608   2.8633
  2.8664   2.8685   2.8714   2.8737   2.8750   2.8781   2.8827   2.8912
  2.9244   3.0825   3.2580   3.9318   3.9410   3.9426   3.9466   3.9493
  3.9560   3.9583   3.9617   3.9639   3.9648   3.9692   3.9696   3.9716
  3.9741   3.9769   3.9832   3.9841   3.9862   3.9866   3.9928   3.9933
  4.0004   4.0026   4.0058   4.0074   4.0088   4.0220   4.0336   4.1915
  4.2074   4.2100   4.2140   4.2155   4.2225   4.2233   4.2272   4.2311
  4.2317   4.2353   4.2366   4.2389   4.2412   4.2479   4.2490   4.2547
  4.2584   4.2593   4.2603   4.2635   4.2653   4.2660   4.2700   4.2745
  4.2746   4.2758   4.2797   4.2837   4.2859   4.2910   4.2953   4.2976
  4.2999   4.3017   4.3022   4.3055   4.3089   4.3092   4.3132   4.3144
  4.3174   4.3190   4.3211   4.3219   4.3244   4.3252   4.3280   4.3304
  4.3321   4.3373   4.3394   4.3400   4.3420   4.3452   4.3470   4.3501
  4.3569   4.3591   4.3621   4.3644   4.3667   4.3692   4.3717   4.3743
  4.3803   4.3818   4.3908   4.3924   4.3948   4.3972   4.3989   4.4110
  4.4157   4.4187   4.4292   4.4325   4.4454   4.4586   4.4647   4.4944
  4.5060   4.5117   4.5308   4.5447   4.5734   4.5848   4.5920   4.6650
  4.7183   4.7574   4.7840   4.8840
 --------------------------------------------------------------
 
          Ground-State Mulliken Net Atomic Charges

     Atom                 Charge (a.u.)
  ----------------------------------------
      1 C                    -0.103509
      2 C                    -0.464077
      3 C                    -0.518562
      4 C                    -0.307608
      5 C                    -0.466428
      6 C                    -0.479321
      7 H                     0.215390
      8 H                     0.241010
      9 H                     0.190754
     10 H                     0.207687
     11 H                     0.203865
     12 H                     0.217996
     13 H                     0.195329
     14 H                     0.220060
     15 H                     0.198739
     16 H                     0.203600
     17 H                     0.212770
     18 N                    -0.418048
     19 H                     0.462930
     20 C                     0.337347
     21 H                     0.168968
     22 O                    -0.518892
     23 C                    -1.040806
     24 H                     0.267226
     25 H                     0.275675
     26 H                     0.249969
     27 S                     1.099424
     28 C                    -1.169258
     29 H                     0.292821
     30 H                     0.274666
     31 H                     0.270418
     32 O                    -0.644357
     33 C                    -0.958147
     34 H                     0.265464
     35 H                     0.243680
     36 H                     0.266403
     37 S                     0.820726
     38 C                    -0.841239
     39 H                     0.277678
     40 H                     0.241563
     41 H                     0.241433
     42 O                    -0.675084
     43 C                    -0.745571
     44 H                     0.251315
     45 H                     0.237329
     46 H                     0.262346
     47 S                     0.732592
     48 C                    -0.889587
     49 H                     0.299396
     50 H                     0.259353
     51 H                     0.212895
     52 O                    -0.665588
     53 C                    -0.891184
     54 H                     0.244120
     55 H                     0.219111
     56 H                     0.296166
     57 S                     0.736641
     58 C                    -0.791820
     59 H                     0.269992
     60 H                     0.258151
     61 H                     0.273944
     62 O                    -0.680175
     63 C                    -0.870544
     64 H                     0.264700
     65 H                     0.256433
     66 H                     0.258759
     67 S                     0.827568
     68 C                    -0.802931
     69 H                     0.248458
     70 H                     0.276852
     71 H                     0.269896
     72 O                    -0.713954
     73 C                    -0.830265
     74 H                     0.255844
     75 H                     0.243241
     76 H                     0.233445
     77 S                     1.011889
     78 C                    -1.002429
     79 H                     0.233976
     80 H                     0.278203
     81 H                     0.251122
     82 O                    -0.675052
     83 C                    -0.851215
     84 H                     0.269612
     85 H                     0.232180
     86 H                     0.252532
     87 S                     0.906924
     88 C                    -0.867531
     89 H                     0.290096
     90 H                     0.270054
     91 H                     0.240652
     92 O                    -0.692547
     93 C                    -0.863641
     94 H                     0.310705
     95 H                     0.235806
     96 H                     0.182676
     97 S                     0.940534
     98 C                    -0.809750
     99 H                     0.311665
    100 H                     0.223865
    101 H                     0.249135
    102 O                    -0.732800
    103 C                    -1.014091
    104 H                     0.266276
    105 H                     0.282823
    106 H                     0.236308
    107 S                     0.871243
    108 C                    -0.782872
    109 H                     0.267397
    110 H                     0.283747
    111 H                     0.278686
    112 O                    -0.677557
    113 C                    -0.788485
    114 H                     0.233210
    115 H                     0.260543
    116 H                     0.271589
    117 S                     0.863394
    118 C                    -0.909243
    119 H                     0.253643
    120 H                     0.253611
    121 H                     0.221799
    122 O                    -0.711030
    123 C                    -0.946509
    124 H                     0.239356
    125 H                     0.263847
    126 H                     0.237329
    127 S                     1.047676
    128 C                    -0.823300
    129 H                     0.292518
    130 H                     0.241964
    131 H                     0.284676
    132 O                    -0.729156
    133 C                    -0.897403
    134 H                     0.243839
    135 H                     0.244467
    136 H                     0.249426
    137 S                     0.934226
    138 C                    -0.804440
    139 H                     0.237405
    140 H                     0.251980
    141 H                     0.282910
    142 O                    -0.675112
    143 C                    -0.838930
    144 H                     0.271847
    145 H                     0.242320
    146 H                     0.239296
    147 S                     0.706514
    148 C                    -0.766995
    149 H                     0.313547
    150 H                     0.246890
    151 H                     0.260614
    152 O                    -0.741940
    153 C                    -0.919916
    154 H                     0.251846
    155 H                     0.228066
    156 H                     0.293076
    157 S                     0.763793
    158 C                    -0.829907
    159 H                     0.298617
    160 H                     0.242070
    161 H                     0.235294
    162 O                    -0.606846
    163 C                    -0.826648
    164 H                     0.222529
    165 H                     0.254750
    166 H                     0.257759
    167 S                     0.892121
    168 C                    -0.844726
    169 H                     0.270080
    170 H                     0.242629
    171 H                     0.263916
    172 O                    -0.743685
    173 C                    -0.932806
    174 H                     0.230197
    175 H                     0.247001
    176 H                     0.287592
    177 S                     0.877416
    178 C                    -0.808348
    179 H                     0.301446
    180 H                     0.256272
    181 H                     0.218300
    182 O                    -0.655476
    183 C                    -0.830631
    184 H                     0.298332
    185 H                     0.259048
    186 H                     0.240630
    187 S                     0.910045
    188 C                    -0.825447
    189 H                     0.265957
    190 H                     0.216356
    191 H                     0.230745
    192 O                    -0.758322
    193 C                    -0.841253
    194 H                     0.228771
    195 H                     0.263211
    196 H                     0.252349
    197 S                     0.976375
    198 C                    -0.863840
    199 H                     0.257757
    200 H                     0.268926
    201 H                     0.242691
    202 O                    -0.757421
    203 C                    -1.091127
    204 H                     0.257535
    205 H                     0.259037
    206 H                     0.259934
    207 S                     1.064354
    208 C                    -0.765184
    209 H                     0.258487
    210 H                     0.258219
    211 H                     0.229382
    212 O                    -0.762244
    213 C                    -0.824639
    214 H                     0.241175
    215 H                     0.288307
    216 H                     0.250530
    217 S                     0.868452
    218 C                    -0.920585
    219 H                     0.279558
    220 H                     0.248426
    221 H                     0.244675
    222 O                    -0.676601
    223 C                    -0.816388
    224 H                     0.262049
    225 H                     0.240544
    226 H                     0.250568
    227 S                     1.019694
    228 C                    -0.965366
    229 H                     0.208624
    230 H                     0.246410
    231 H                     0.271364
    232 O                    -0.704763
    233 C                    -0.881279
    234 H                     0.234789
    235 H                     0.236687
    236 H                     0.254620
    237 S                     0.958173
    238 C                    -0.811047
    239 H                     0.235742
    240 H                     0.262396
    241 H                     0.240517
    242 O                    -0.729967
    243 C                    -0.715918
    244 H                     0.310847
    245 H                     0.241052
    246 H                     0.235565
    247 S                     0.450530
    248 C                    -0.764846
    249 H                     0.224794
    250 H                     0.246991
    251 H                     0.289048
    252 O                    -0.621928
    253 C                    -0.883771
    254 H                     0.251704
    255 H                     0.282595
    256 H                     0.247472
    257 S                     0.869608
    258 C                    -0.798279
    259 H                     0.236002
    260 H                     0.265880
    261 H                     0.238042
    262 O                    -0.686587
    263 C                    -0.841391
    264 H                     0.246625
    265 H                     0.257978
    266 H                     0.286964
    267 S                     0.817829
    268 C                    -0.787865
    269 H                     0.281105
    270 H                     0.270194
    271 H                     0.250712
    272 O                    -0.750995
    273 C                    -0.815067
    274 H                     0.276974
    275 H                     0.247997
    276 H                     0.265841
    277 S                     0.626376
    278 C                    -0.638598
    279 H                     0.272470
    280 H                     0.240353
    281 H                     0.252952
    282 O                    -0.652900
    283 C                    -0.853815
    284 H                     0.269463
    285 H                     0.244484
    286 H                     0.220908
    287 S                     1.014493
    288 C                    -0.868589
    289 H                     0.248728
    290 H                     0.270737
    291 H                     0.209251
    292 O                    -0.708543
    293 C                    -0.820510
    294 H                     0.237915
    295 H                     0.243303
    296 H                     0.252388
    297 S                     1.026326
    298 C                    -0.885201
    299 H                     0.260806
    300 H                     0.240462
    301 H                     0.247715
    302 O                    -0.690116
  ----------------------------------------
  Sum of atomic charges =     0.000000

 -----------------------------------------------------------------
                    Cartesian Multipole Moments
 -----------------------------------------------------------------
    Charge (ESU x 10^10)
                 0.0000
    Dipole Moment (Debye)
         X      13.9107      Y       3.0959      Z       3.9883
       Tot      14.7986
    Quadrupole Moments (Debye-Ang)
        XX    -299.9652     XY     379.7458     YY    -860.5600
        XZ     544.7927     YZ     241.7945     ZZ    -973.2465
    Octopole Moments (Debye-Ang^2)
       XXX  -52919.1133    XXY   -6493.8226    XYY  -16495.2831
       YYY  -67634.5836    XXZ     -83.2076    XYZ   16150.1069
       YYZ  -14534.3474    XZZ  -12138.5631    YZZ  -16518.0863
       ZZZ  -83379.4289
    Hexadecapole Moments (Debye-Ang^3)
      XXXX ************   XXXY ************   XXYY -881815.7171
      XYYY ************   YYYY ************   XXXZ ************
      XXYZ   68890.7271   XYYZ -169298.7395   YYYZ ************
      XXZZ -664854.1984   XYZZ -127489.9035   YYZZ -835458.1285
      XZZZ ************   YZZZ ************   ZZZZ ************
 -----------------------------------------------------------------
Archival summary:
[...]
    3  -0.0013456  -0.1065046  -0.0057462   0.0046633   0.0165369  -0.0319590
          157         158         159         160         161         162
    1  -0.0126167   0.0017049   0.0092774   0.0201530  -0.0075313  -0.0686975
    2   0.0171601  -0.0078870  -0.0072855  -0.0052137  -0.0396188  -0.0222214
    3   0.0504336  -0.0031482  -0.0264150   0.0238574   0.0081279  -0.0834042
          163         164         165         166         167         168
    1  -0.0021284   0.0097273  -0.0336945   0.0125378  -0.0253897  -0.0006875
    2  -0.0062811  -0.0258736   0.0045165  -0.0160608   0.0370360   0.0026501
    3   0.0022511   0.0260650  -0.0044855  -0.0223475   0.0352998  -0.0088481
          169         170         171         172         173         174
    1  -0.0241077  -0.0022215   0.0224612   0.1063042   0.0069765   0.0088805
    2  -0.0176078   0.0297135  -0.0095848  -0.0280025  -0.0022980  -0.0333873
    3  -0.0080299  -0.0062224  -0.0244966   0.0003454  -0.0032678  -0.0128709
          175         176         177         178         179         180
    1   0.0160921   0.0193974  -0.0207750  -0.0047873  -0.0279323   0.0196770
    2   0.0162028   0.0077069  -0.0385618   0.0022837   0.0072909   0.0182934
    3  -0.0220040   0.0223963   0.0327586  -0.0058103   0.0139638  -0.0189502
          181         182         183         184         185         186
    1  -0.0061678   0.0064636  -0.0065549  -0.0185708   0.0015940  -0.0177761
    2  -0.0257571   0.1047554  -0.0084534  -0.0152320  -0.0356355   0.0170831
    3  -0.0223810   0.0285428  -0.0047237  -0.0248070   0.0072293   0.0152296
          187         188         189         190         191         192
    1   0.0350835   0.0000266  -0.0286431   0.0126008   0.0238551  -0.0590819
    2  -0.0200313   0.0000260   0.0102761  -0.0233954   0.0177029   0.0890418
    3  -0.0200009   0.0055958   0.0071922   0.0286765   0.0109957  -0.0305661
          193         194         195         196         197         198
    1  -0.0022551  -0.0018390  -0.0269038   0.0078667   0.0455723  -0.0082737
    2   0.0027596   0.0349308  -0.0091940  -0.0111166   0.0164857   0.0020621
    3   0.0078824   0.0014110   0.0080429   0.0338090  -0.0122404  -0.0048157
          199         200         201         202         203         204
    1  -0.0002604  -0.0270468   0.0025515  -0.0339030  -0.0081736  -0.0214426
    2  -0.0138489  -0.0069933   0.0336399  -0.0996111  -0.0033579  -0.0089213
    3  -0.0238948   0.0154021  -0.0095390   0.0317739   0.0045864  -0.0209335
          205         206         207         208         209         210
    1   0.0197425  -0.0164256   0.0291340  -0.0072585  -0.0142056  -0.0268588
    2  -0.0207020   0.0074030   0.0317515   0.0021733  -0.0188371   0.0105622
    3   0.0141744   0.0407692   0.0304966  -0.0020086  -0.0170633   0.0200081
          211         212         213         214         215         216
    1   0.0073713   0.0322716   0.0013706   0.0008233   0.0146510   0.0120535
    2   0.0170068  -0.0691475   0.0014679  -0.0190549  -0.0033173   0.0174661
    3  -0.0247330  -0.0786468   0.0049281   0.0250460  -0.0192065   0.0292050
          217         218         219         220         221         222
    1  -0.0231181  -0.0009924   0.0298128  -0.0299330   0.0034792  -0.0504803
    2  -0.0354236   0.0073851  -0.0016600   0.0220396   0.0203414   0.0219868
    3  -0.0372052  -0.0036666  -0.0198225  -0.0083062   0.0219145   0.0981724
          223         224         225         226         227         228
    1   0.0079115   0.0140253   0.0200328   0.0041053  -0.0061332  -0.0003643
    2  -0.0012038   0.0092843   0.0146185  -0.0307389   0.0547599  -0.0026544
    3   0.0019440  -0.0242513   0.0232892  -0.0003623   0.0081306   0.0046065
          229         230         231         232         233         234
    1   0.0087712  -0.0290023   0.0105365  -0.0408640   0.0039512   0.0091028
    2   0.0080788   0.0097998  -0.0294359  -0.0551824  -0.0031664  -0.0177850
    3   0.0325045   0.0046099  -0.0125998  -0.0863842  -0.0019143   0.0228538
          235         236         237         238         239         240
    1  -0.0188623   0.0255025  -0.0241614   0.0055026   0.0191352  -0.0088424
    2  -0.0223089   0.0077663   0.0310991   0.0000553   0.0164822   0.0220296
    3  -0.0131637  -0.0209104  -0.0348343   0.0027478  -0.0196064   0.0184950
          241         242         243         244         245         246
    1   0.0079431  -0.0506327   0.0040065   0.0184827  -0.0238434   0.0033587
    2  -0.0212756  -0.0433647   0.0038898   0.0230933   0.0186994  -0.0250619
    3   0.0232101   0.0891095   0.0083405   0.0102613   0.0067089   0.0189162
          247         248         249         250         251         252
    1  -0.0138561  -0.0013309  -0.0319322  -0.0123670  -0.0014089   0.0958416
    2   0.0421921  -0.0089068   0.0007533  -0.0139857  -0.0210705  -0.0538698
    3  -0.0350679   0.0002267   0.0031575  -0.0302002   0.0254228   0.0061043
          253         254         255         256         257         258
    1  -0.0075503  -0.0062778  -0.0063505  -0.0372154  -0.0067389  -0.0025940
    2   0.0013896  -0.0213289   0.0281842  -0.0048116   0.0194807  -0.0076106
    3   0.0045367   0.0221130   0.0035693  -0.0058493  -0.0524360   0.0053669
          259         260         261         262         263         264
    1  -0.0248808   0.0232948  -0.0075234   0.0833701  -0.0073946   0.0116843
    2  -0.0138401  -0.0141595  -0.0104628   0.0262674   0.0020383  -0.0128954
    3  -0.0164627  -0.0122957   0.0270145   0.0656403  -0.0012464  -0.0237634
          265         266         267         268         269         270
    1  -0.0219771  -0.0110445   0.0042803   0.0062210   0.0009892   0.0308674
    2  -0.0141093   0.0303338   0.0288376   0.0032556   0.0341899   0.0022094
    3   0.0242152   0.0051097   0.0470614  -0.0054021   0.0006099   0.0057659
          271         272         273         274         275         276
    1  -0.0028498   0.0153288   0.0023809  -0.0282622  -0.0009758   0.0274874
    2  -0.0206645  -0.1096075  -0.0061281  -0.0113337  -0.0324754   0.0149137
    3  -0.0230992  -0.0052144   0.0083866   0.0154199  -0.0078490   0.0114200
          277         278         279         280         281         282
    1  -0.0567890   0.0095334  -0.0106311   0.0324113  -0.0078981   0.0545082
    2   0.0035015  -0.0043969   0.0200724  -0.0043177  -0.0295922   0.0886042
    3  -0.0177033  -0.0040105  -0.0243142   0.0140032  -0.0138711   0.0376609
          283         284         285         286         287         288
    1  -0.0053211  -0.0224104   0.0104660  -0.0038472   0.0527321  -0.0047374
    2  -0.0013780   0.0189030  -0.0121748  -0.0253499  -0.0148994   0.0059936
    3  -0.0067857  -0.0179272  -0.0290190   0.0202041   0.0156089   0.0045191
          289         290         291         292         293         294
    1   0.0193498  -0.0245518  -0.0056153  -0.0254580   0.0059703   0.0150100
    2   0.0035841   0.0146011  -0.0251842   0.0929669  -0.0061814  -0.0212806
    3   0.0252928  -0.0216257   0.0200781  -0.0535688   0.0000053   0.0221847
          295         296         297         298         299         300
    1  -0.0083549   0.0241902  -0.0169565   0.0032942  -0.0171805   0.0122592
    2  -0.0247283   0.0162777   0.0355171   0.0028857   0.0083121  -0.0139611
    3  -0.0130433  -0.0160138  -0.0446838   0.0036776   0.0282412   0.0299613
          301         302
    1   0.0202188  -0.0723175
    2   0.0267086  -0.0665041
    3  -0.0111235   0.0510198
  --- DONE ESP SUMMARY ---
Archival summary:
1\1\n0070.mhg0\SP\ProcedureUnspecified\6-31+G*\282856h22\ymao\FriMar1215:19:332021FriMar1215:19:332021\0\\#,ProcedureUnspecified,6-31+G*,\\0,1\S\O,1,1.49804\C,1,1.80639,2,104.816\H,3,1.0931,1,117.06,2,160.157,0\H,3,1.09318,1,104.348,2,42.6069,0\H,3,1.09355,1,105.521,2,-72.2546,0\C,1,1.80713,2,107.964,3,102.733,0\H,7,1.09288,1,105.488,2,-157.789,0\H,7,1.09311,1,99.8022,2,-41.5621,0\H,7,1.09374,1,121.448,2,76.1974,0\H,10,2.30222,7,104.263,1,-105.689,0\C,11,1.09254,10,125.44,7,-111.523,0\H,12,1.09274,11,107.562,10,125.463,0\H,12,1.09321,11,108.292,10,-116.274,0\S,12,1.80781,11,107.938,10,1.55205,0\O,15,1.49662,12,100.498,11,-65.5385,0\C,15,1.80659,12,94.4166,11,-162.921,0\H,17,1.09273,15,100.322,12,169.375,0\H,17,1.09352,15,112.941,12,-77.1316,0\H,17,1.09353,15,107.775,12,51.7905,0\H,11,2.32144,10,119.652,7,107.734,0\C,21,1.09256,11,120.827,10,-21.0243,0\H,22,1.09342,21,114.31,11,-42.7778,0\H,22,1.09373,21,111.138,11,-158.056,0\S,22,1.80728,21,112.155,11,89.6151,0\O,25,1.49611,22,105.604,21,33.7012,0\C,25,1.80668,22,97.2914,21,-72.4378,0\H,27,1.09276,25,107.891,22,49.7667,0\H,27,1.09307,25,107.982,22,-71.4187,0\H,27,1.09323,25,101.496,22,172.864,0\H,30,2.08063,27,124.235,25,177.239,0\C,31,1.09323,30,99.0676,27,101.096,0\H,32,1.09313,31,103.29,30,83.4928,0\H,32,1.09355,31,110.344,30,-36.7641,0\S,32,1.80651,31,112.241,30,-156.677,0\O,35,1.4973,32,103.79,31,-57.4474,0\C,35,1.80674,32,92.9605,31,48.3966,0\H,37,1.09234,35,108.495,32,-54.9548,0\H,37,1.09291,35,107.655,32,59.9445,0\H,37,1.09314,35,112.528,32,-174.808,0\H,38,2.44106,37,130.558,35,-109.273,0\C,41,1.09313,38,119.524,37,-40.5507,0\H,42,1.0925,41,112.38,38,-164.711,0\H,42,1.09348,41,109.479,38,63.0778,0\S,42,1.80709,41,106.388,38,-56.3526,0\O,45,1.49689,42,109.762,41,83.5832,0\C,45,1.80706,42,96.8854,41,-179.309,0\H,47,1.09276,45,107.675,42,-176.457,0\H,47,1.09284,45,113.387,42,56.8364,0\H,47,1.09296,45,107.288,42,-63.1765,0\Gh,41,2.12335,38,78.5844,37,165.187,0\Gh,51,1.10471,41,98.8647,38,87.2504,0\Gh,52,1.21862,51,123.34,41,-114.576,0\Gh,52,1.379,51,112.48,41,69.9042,0\Gh,54,1.01283,52,115.48,51,-13.0347,0\Gh,54,1.46168,52,125.395,51,162.525,0\Gh,56,1.0965,54,106.508,52,10.853,0\Gh,56,1.53738,54,110.038,52,-108.245,0\Gh,58,1.09635,56,103.475,54,48.8137,0\Gh,58,1.09712,56,111.701,54,-67.3475,0\Gh,56,1.53749,54,111.682,52,129.385,0\Gh,61,1.09594,56,113.801,54,-63.2637,0\Gh,61,1.09675,56,110.62,54,58.5341,0\Gh,61,1.53747,56,110.983,54,175.852,0\Gh,64,1.09647,61,108.425,56,65.4645,0\Gh,64,1.0967,61,114.026,56,-173.091,0\Gh,58,1.53753,56,111.525,54,178.258,0\Gh,67,1.09707,58,107.066,56,175.732,0\Gh,67,1.09759,58,115.574,56,-70.7115,0\Gh,67,1.53675,58,109.084,56,60.9827,0\Gh,70,1.09591,67,105.907,58,176.954,0\Gh,70,1.09663,67,109.685,58,67.3856,0\O,55,2.10325,54,152.045,52,26.2219,0\S,73,1.49728,55,140.097,54,127.261,0\C,74,1.80665,73,107.884,55,-68.0511,0\H,75,1.09241,74,110.172,73,-61.0104,0\H,75,1.09338,74,111.383,73,176.746,0\H,75,1.09346,74,114.358,73,58.4684,0\C,74,1.80754,73,100.994,55,-168.474,0\H,79,1.09216,74,112.501,73,156.189,0\H,79,1.09269,74,106.827,73,32.1389,0\H,79,1.09281,74,108.315,73,-81.3876,0\H,81,1.90799,79,115.478,74,-98.0235,0\C,83,1.09263,81,154.934,79,-35.3392,0\H,84,1.09288,83,106.84,81,62.5469,0\H,84,1.09298,83,118.889,81,-176.884,0\S,84,1.80724,83,109.293,81,-53.3955,0\O,87,1.4969,84,102.94,83,-170.7,0\C,87,1.80689,84,95.1796,83,-67.4399,0\H,89,1.09292,87,114.596,84,57.014,0\H,89,1.09317,87,108.513,84,-60.5344,0\H,89,1.09325,87,112.004,84,177.316,0\H,71,2.15143,70,123.03,67,-86.1449,0\C,93,1.09318,71,159.089,70,-63.7697,0\H,94,1.09236,93,118.274,71,52.4803,0\H,94,1.09345,93,102.074,71,168.046,0\S,94,1.80743,93,101.721,71,-76.6563,0\O,97,1.49735,94,100.404,93,-176.208,0\C,97,1.8072,94,93.4483,93,-76.4539,0\H,99,1.09276,97,111.018,94,65.3396,0\H,99,1.09301,97,106.846,94,-177.136,0\H,99,1.09372,97,104.846,94,-57.7368,0\H,90,2.19235,89,150.008,87,-68.3319,0\C,103,1.09225,90,107.394,89,164.802,0\H,104,1.09219,103,103.017,90,-153.593,0\H,104,1.09293,103,106.938,90,-33.2808,0\S,104,1.80821,103,119.903,90,88.3877,0\O,107,1.49685,104,101.419,103,-46.0452,0\C,107,1.80742,104,95.5691,103,62.8476,0\H,109,1.09247,107,108.965,104,-64.7838,0\H,109,1.09269,107,110.683,104,178.109,0\H,109,1.09364,107,111.181,104,61.6504,0\H,78,2.26977,75,111.186,74,63.9062,0\C,113,1.09377,78,103.758,75,132.893,0\H,114,1.09228,113,111.065,78,-93.308,0\H,114,1.09296,113,113.296,78,25.5297,0\S,114,1.80704,113,106.342,78,141.504,0\O,117,1.49589,114,99.7102,113,168.407,0\C,117,1.80694,114,98.4294,113,62.3017,0\H,119,1.09301,117,109.467,114,47.5436,0\H,119,1.09301,117,105.784,114,-75.4574,0\H,119,1.09318,117,108.461,114,168.848,0\H,105,2.28842,104,114.82,103,-164.629,0\C,123,1.09278,105,153.072,104,136.052,0\H,124,1.09299,123,103.559,105,-91.4819,0\H,124,1.09347,123,106.658,105,147.657,0\S,124,1.80668,123,114.956,105,21.9434,0\O,127,1.49661,124,103.449,123,-13.3802,0\C,127,1.80782,124,100.269,123,94.6217,0\H,129,1.09265,127,109.749,124,54.305,0\H,129,1.09295,127,120.122,124,-172.828,0\H,129,1.09327,127,102.143,124,-59.8521,0\H,101,2.2959,99,148.387,97,-23.1712,0\C,133,1.09297,101,147.795,99,-72.9515,0\H,134,1.09282,133,109.443,101,-152.043,0\H,134,1.0932,133,111.56,101,-22.7831,0\S,134,1.80662,133,105.996,101,91.7669,0\O,137,1.49691,134,109.943,133,-64.3894,0\C,137,1.80629,134,90.8157,133,44.3119,0\H,139,1.09282,137,100.61,134,151.553,0\H,139,1.09351,137,108.179,134,-92.9576,0\H,139,1.09379,137,108.765,134,34.6066,0\H,141,2.26683,139,115.965,137,-154.37,0\C,143,1.09275,141,160.159,139,157.99,0\H,144,1.09303,143,103.799,141,75.4963,0\H,144,1.09316,143,111.887,141,-156.754,0\S,144,1.80668,143,109.556,141,-47.9607,0\O,147,1.49743,144,105.315,143,-112.302,0\C,147,1.80645,144,93.8199,143,143.903,0\H,149,1.09252,147,115.24,144,-76.3189,0\H,149,1.09286,147,98.1486,144,171.151,0\H,149,1.09391,147,113.183,144,55.9761,0\H,131,2.30179,129,117.246,127,-113.507,0\C,153,1.09232,131,93.1956,129,-107.496,0\H,154,1.09273,153,117.237,131,-49.5335,0\H,154,1.09365,153,111.184,131,78.7631,0\S,154,1.80702,153,101.605,131,-166.747,0\O,157,1.49679,154,98.8397,153,-69.8801,0\C,157,1.80769,154,93.6542,153,-176.95,0\H,159,1.09253,157,102.955,154,177.634,0\H,159,1.09311,157,110.194,154,54.8839,0\H,159,1.09311,157,106.332,154,-65.5126,0\H,155,2.25532,154,105.107,153,-59.5572,0\C,163,1.09306,155,145.614,154,-135.41,0\H,164,1.09258,163,109.065,155,-120.502,0\H,164,1.09287,163,103.228,155,3.60522,0\S,164,1.80644,163,109.829,155,118.201,0\O,167,1.49705,164,107.239,163,-72.1918,0\C,167,1.8065,164,91.6393,163,-176.543,0\H,169,1.09294,167,104.035,164,65.1522,0\H,169,1.09312,167,112.214,164,-53.828,0\H,169,1.09313,167,101.227,164,-177.078,0\H,171,2.16469,169,128.638,167,-56.1668,0\C,173,1.09324,171,127.571,169,132.173,0\H,174,1.09322,173,103.73,171,-46.9423,0\H,174,1.09363,173,114.144,171,-173.971,0\S,174,1.80688,173,102.739,171,68.0083,0\O,177,1.49708,174,104.388,173,-70.6545,0\C,177,1.80681,174,93.6182,173,-176.663,0\H,179,1.09258,177,108.714,174,-70.8164,0\H,179,1.09283,177,106.908,174,50.6234,0\H,179,1.09294,177,108.033,174,170.041,0\H,181,2.32065,179,122.969,177,-176.185,0\C,183,1.09274,181,140.938,179,-44.5372,0\H,184,1.09273,183,107.923,181,-122.604,0\H,184,1.0937,183,111.332,181,1.21731,0\S,184,1.80687,183,102.844,181,128.748,0\O,187,1.49651,184,100.708,183,33.174,0\C,187,1.80689,184,92.5942,183,-65.3729,0\H,189,1.09225,187,105.816,184,152.799,0\H,189,1.09301,187,112.229,184,43.9868,0\H,189,1.09355,187,117.095,184,-87.174,0\H,48,2.32443,47,109.664,45,-93.5345,0\C,193,1.0933,48,108.895,47,-147.172,0\H,194,1.09278,193,115.904,48,29.9744,0\H,194,1.09314,193,112.614,48,157.24,0\S,194,1.80695,193,96.3516,48,-86.946,0\O,197,1.49715,194,103.771,193,-67.6838,0\C,197,1.80698,194,88.6518,193,-175.694,0\H,199,1.09209,197,110.961,194,-164.054,0\H,199,1.09281,197,116.522,194,76.0235,0\H,199,1.09315,197,108.372,194,-43.5918,0\H,196,2.05495,194,127.929,193,17.7274,0\C,203,1.09251,196,109.803,194,124.951,0\H,204,1.09283,203,109.114,196,-22.6894,0\H,204,1.09317,203,114.955,196,-147.344,0\S,204,1.80675,203,109.773,196,96.9288,0\O,207,1.49674,204,100.29,203,-54.4234,0\C,207,1.80668,204,95.2943,203,51.547,0\H,209,1.09309,207,108.785,204,68.5724,0\H,209,1.09315,207,107.649,204,-47.0837,0\H,209,1.09369,207,109.936,204,-169.084,0\H,200,2.15745,199,128.923,197,-15.2053,0\C,213,1.09228,200,128.383,199,-154.823,0\H,214,1.09259,213,106.743,200,-162.771,0\H,214,1.09409,213,113.92,200,-41.0494,0\S,214,1.80681,213,100.955,200,73.3147,0\O,217,1.49645,214,103.094,213,161.03,0\C,217,1.80695,214,93.1898,213,62.9857,0\H,219,1.09269,217,103.283,214,171.169,0\H,219,1.09337,217,109.695,214,-69.4967,0\H,219,1.09377,217,110.237,214,56.2128,0\O,220,2.20545,219,131.137,217,168.843,0\S,223,1.49746,220,139.935,219,-73.2497,0\C,224,1.80676,223,104.275,220,-35.3892,0\H,225,1.09229,224,107.324,223,-63.2546,0\H,225,1.09328,224,104.165,223,179.363,0\H,225,1.09339,224,112.993,223,62.9684,0\C,224,1.80726,223,99.8945,220,-138.494,0\H,229,1.0923,224,108.188,223,-62.3076,0\H,229,1.09272,224,106.869,223,175.61,0\H,229,1.09297,224,108.886,223,49.8031,0\H,211,2.22722,209,141.429,207,-66.1867,0\C,233,1.09275,211,120.377,209,-178.531,0\H,234,1.09327,233,103.428,211,146.845,0\H,234,1.09329,233,114.002,211,-87.1607,0\S,234,1.80693,233,109.515,211,34.448,0\O,237,1.49725,234,97.8427,233,-62.8484,0\C,237,1.80642,234,96.5808,233,-169.856,0\H,239,1.09214,237,105.692,234,63.1347,0\H,239,1.0929,237,108.962,234,-178.385,0\H,239,1.09299,237,106.567,234,-59.6253,0\H,235,2.04537,234,148.037,233,57.9091,0\C,243,1.0932,235,132.56,234,41.7272,0\H,244,1.09266,243,108.104,235,-111.378,0\H,244,1.09364,243,110.937,235,125.515,0\S,244,1.80597,243,107.35,235,12.6778,0\O,247,1.4968,244,103.799,243,57.1165,0\C,247,1.80665,244,98.9461,243,165.242,0\H,249,1.09266,247,106.775,244,82.6143,0\H,249,1.09296,247,108.26,244,-34.2957,0\H,249,1.09322,247,103.451,244,-164,0\H,223,2.39458,220,80.2407,219,65.322,0\C,253,1.09214,223,107.676,220,-106.415,0\H,254,1.09302,253,116.062,223,11.4786,0\H,254,1.09304,253,111.823,223,141.994,0\S,254,1.80654,253,106.798,223,-100.748,0\O,257,1.49645,254,99.1435,253,43.2481,0\C,257,1.80646,254,94.2059,253,-56.7789,0\H,259,1.09237,257,109.853,254,-77.6776,0\H,259,1.09318,257,114.148,254,40.7596,0\H,259,1.09329,257,112.413,254,163.541,0\H,262,2.16447,259,120.042,257,-38.1615,0\C,263,1.09315,262,164.342,259,152.636,0\H,264,1.09269,263,119.174,262,-69.2898,0\H,264,1.09345,263,101.78,262,48.7959,0\S,264,1.80624,263,106.077,262,161.301,0\O,267,1.49687,264,100.16,263,-81.2444,0\C,267,1.80682,264,93.9362,263,174.086,0\H,269,1.09265,267,105.543,264,71.7679,0\H,269,1.09342,267,121.83,264,-46.9959,0\H,269,1.09375,267,104.195,264,-171.505,0\H,8,2.45084,7,139.187,1,148.823,0\C,273,1.09245,8,127.239,7,-54.9829,0\H,274,1.09252,273,104.097,8,-121.372,0\H,274,1.09312,273,107.07,8,113.69,0\S,274,1.80673,273,111.736,8,-7.14865,0\O,277,1.4974,274,107.736,273,-91.8555,0\C,277,1.80722,274,97.5741,273,160.246,0\H,279,1.09283,277,107.066,274,37.5547,0\H,279,1.09295,277,109.677,274,152.361,0\H,279,1.09296,277,110.562,274,-80.6432,0\H,112,2.57224,109,117.074,107,133.642,0\C,283,1.09193,112,150.716,109,128.194,0\H,284,1.09238,283,113.868,112,140.915,0\H,284,1.09337,283,109.768,112,18.8752,0\S,284,1.80757,283,109.9,112,-95.5159,0\O,287,1.49735,284,104.908,283,-42.8826,0\C,287,1.80752,284,92.4368,283,56.1378,0\H,289,1.09273,287,108.409,284,-171.644,0\H,289,1.09288,287,109.127,284,62.3104,0\H,289,1.09294,287,105.666,284,-52.7412,0\H,285,2.46988,284,113.615,283,-108.68,0\C,293,1.0929,285,136.149,284,-78.3835,0\H,294,1.09262,293,112.006,285,8.22975,0\H,294,1.09348,293,111.787,285,-103.649,0\S,294,1.80651,293,109.734,285,132.22,0\O,297,1.49699,294,100.62,293,165.977,0\C,297,1.80717,294,98.1922,293,-86.0271,0\H,299,1.09249,297,111.211,294,-156.608,0\H,299,1.09293,297,103.434,294,-43.2951,0\H,299,1.09315,297,109.24,294,73.6821,0\\\@

 Total job time:  85.41s(wall), 278.56s(cpu) 
 Fri Mar 12 15:19:33 2021

        *************************************************************
        *                                                           *
        *  Thank you very much for using Q-Chem.  Have a nice day.  *
        *                                                           *
        *************************************************************


