                  Welcome to Q-Chem
     A Quantum Leap Into The Future Of Chemistry


 Q-Chem 5.2 (devel), Q-Chem, Inc., Pleasanton, CA (2019)

 Yihan Shao,  Zhengting Gan,  E. Epifanovsky,  A. T. B. Gilbert,  M. Wormit,  
 J. Kussmann,  A. W. Lange,  A. Behn,  Jia Deng,  Xintian Feng,  D. Ghosh,  
 M. Goldey,  P. R. Horn,  L. D. Jacobson,  I. Kaliman,  T. Kus,  A. Landau,  
 Jie Liu,  E. I. Proynov,  R. M. Richard,  R. P. Steele,  E. J. Sundstrom,  
 H. L. Woodcock III,  P. M. Zimmerman,  D. Zuev,  B. Alam,  B. Albrecht,  
 E. Alguire,  S. A. Baeppler,  D. Barton,  Z. Benda,  Y. A. Bernard,  
 E. J. Berquist,  K. B. Bravaya,  H. Burton,  K. Carter-Fenk,  D. Casanova,  
 Chun-Min Chang,  Yunqing Chen,  A. Chien,  K. D. Closser,  M. P. Coons,  
 S. Coriani,  S. Dasgupta,  A. L. Dempwolff,  M. Diedenhofen,  Hainam Do,  
 R. G. Edgar,  Po-Tung Fang,  S. Faraji,  S. Fatehi,  Qingguo Feng,  
 J. Fosso-Tande,  J. Gayvert,  Qinghui Ge,  A. Ghysels,  G. Gidofalvi,  
 J. Gomes,  J. Gonthier,  A. Gunina,  D. Hait,  M. W. D. Hanson-Heine,  
 P. H. P. Harbach,  A. W. Hauser,  M. F. Herbst,  J. E. Herr,  
 E. G. Hohenstein,  Z. C. Holden,  Kerwin Hui,  B. C. Huynh,  T.-C. Jagau,  
 Hyunjun Ji,  B. Kaduk,  K. Khistyaev,  Jaehoon Kim,  P. Klunzinger,  K. Koh,  
 D. Kosenkov,  L. Koulias,  T. Kowalczyk,  C. M. Krauter,  A. Kunitsa,  
 Ka Un Lao,  A. Laurent,  K. V. Lawler,  Joonho Lee,  D. Lefrancois,  
 S. Lehtola,  D. S. Levine,  Yi-Pei Li,  You-Sheng Lin,  Fenglai Liu,  
 Kuan-Yu Liu,  E. Livshits,  M. Loipersberger,  A. Luenser,  P. Manohar,  
 E. Mansoor,  S. F. Manzer,  Shan-Ping Mao,  Yuezhi Mao,  N. Mardirossian,  
 A. V. Marenich,  T. Markovich,  L. A. Martinez-Martinez,  S. A. Maurer,  
 N. J. Mayhall,  S. C. McKenzie,  J.-M. Mewes,  P. Morgante,  A. F. Morrison,  
 J. W. Mullinax,  K. Nanda,  T. S. Nguyen-Beck,  R. Olivares-Amaya,  
 J. A. Parkhill,  S. K. Paul,  F. Pavosevic,  Zheng Pei,  T. M. Perrine,  
 F. Plasser,  P. Pokhilko,  S. Prager,  A. Prociuk,  E. Ramos,  B. Rana,  
 D. R. Rehn,  F. Rob,  M. Scheurer,  M. Schneider,  N. Sergueev,  
 S. M. Sharada,  S. Sharma,  D. W. Small,  T. Stauch,  C. J. Stein,  
 T. Stein,  Yu-Chuan Su,  S. P. Veccham,  Zhen Tao,  A. J. W. Thom,  
 A. Tkatchenko,  T. Tsuchimochi,  N. M. Tubman,  L. Vogt,  M. L. Vidal,  
 O. Vydrov,  M. A. Watson,  J. Wenzel,  M. de Wergifosse,  T. A. Wesolowski,  
 A. White,  J. Witte,  A. Yamada,  Jun Yang,  K. Yao,  S. Yeganeh,  
 S. R. Yost,  Zhi-Qiang You,  A. Zech,  Igor Ying Zhang,  Xing Zhang,  
 Yan Zhao,  Ying Zhu,  B. R. Brooks,  G. K. L. Chan,  C. J. Cramer,  
 M. S. Gordon,  W. J. Hehre,  A. Klamt,  M. W. Schmidt,  C. D. Sherrill,  
 D. G. Truhlar,  A. Aspuru-Guzik,  R. Baer,  A. T. Bell,  N. A. Besley,  
 Jeng-Da Chai,  A. E. DePrince, III,  R. A. DiStasio Jr.,  A. Dreuw,  
 B. D. Dunietz,  T. R. Furlani,  Chao-Ping Hsu,  Yousung Jung,  Jing Kong,  
 D. S. Lambrecht,  WanZhen Liang,  C. Ochsenfeld,  V. A. Rassolov,  
 L. V. Slipchenko,  J. E. Subotnik,  T. Van Voorhis,  J. M. Herbert,  
 A. I. Krylov,  P. M. W. Gill,  M. Head-Gordon

 Contributors to earlier versions of Q-Chem not listed above: 
 R. D. Adamson,  B. Austin,  J. Baker,  G. J. O. Beran,  K. Brandhorst,  
 S. T. Brown,  E. F. C. Byrd,  A. K. Chakraborty,  C.-L. Cheng,  
 Siu Hung Chien,  D. M. Chipman,  D. L. Crittenden,  H. Dachsel,  
 R. J. Doerksen,  A. D. Dutoi,  L. Fusti-Molnar,  W. A. Goddard III,  
 A. Golubeva-Zadorozhnaya,  S. R. Gwaltney,  G. Hawkins,  A. Heyden,  
 S. Hirata,  G. Kedziora,  F. J. Keil,  C. Kelley,  Jihan Kim,  R. A. King,  
 R. Z. Khaliullin,  P. P. Korambath,  W. Kurlancheek,  A. M. Lee,  M. S. Lee,  
 S. V. Levchenko,  Ching Yeh Lin,  D. Liotard,  R. C. Lochan,  I. Lotan,  
 P. E. Maslen,  N. Nair,  D. P. O'Neill,  D. Neuhauser,  E. Neuscamman,  
 C. M. Oana,  R. Olson,  B. Peters,  R. Peverati,  P. A. Pieniazek,  
 Y. M. Rhee,  J. Ritchie,  M. A. Rohrdanz,  E. Rosta,  N. J. Russ,  
 H. F. Schaefer III,  N. E. Schultz,  N. Shenvi,  A. C. Simmonett,  A. Sodt,  
 D. Stuck,  K. S. Thanthiriwatte,  V. Vanovschi,  Tao Wang,  A. Warshel,  
 C. F. Williams,  Q. Wu,  X. Xu,  W. Zhang

 Please cite Q-Chem as follows:
 Y. Shao et al., Mol. Phys. 113, 184-215 (2015)
 DOI: 10.1080/00268976.2014.952696

 Q-Chem 5.2.2 for Intel X86 EM64T Linux

 Parts of Q-Chem use Armadillo 9.800.1 (Horizon Scraper).
 http://arma.sourceforge.net/

 Q-Chem begins on Thu Mar 11 13:37:37 2021  

Host: n0077.mhg0
0

     Scratch files written to /local/scratch/users/ymao/r7.00_frame_0098_almo_B3LYP_dp.in20210311133733//

Checking the input file for inconsistencies... 	...done.

--------------------------------------------------------------
User input:
--------------------------------------------------------------
$molecule
0 1
--
0 1
C    23.03700   30.34900   26.05700  
C    24.43800   29.72700   26.17600  
C    24.46200   28.25400   25.73700  
C    23.90900   28.10200   24.31000  
C    22.46700   28.63300   24.24400  
C    22.37400   30.10000   24.69300  
H    25.37400   27.65900   25.60500  
H    25.14900   30.23300   25.51100  
H    22.41900   30.04900   26.91200  
H    23.13200   31.42700   26.23300  
H    24.51200   28.67300   23.59400  
H    23.88300   27.07400   23.92900  
H    22.01400   28.54700   23.24800  
H    21.84200   27.92500   24.80100  
H    22.93600   30.72400   23.98700  
H    21.30600   30.34100   24.62200  
H    23.79800   27.68800   26.40200  
N    24.94000   29.77800   27.54900  
H    24.27000   29.49900   28.25600  
C    26.02300   30.46500   28.05400  
H    26.04900   30.42500   29.15800  
O    26.90700   30.96200   27.37800  
--
0 1
C    21.63400   24.16200   20.60400  
H    22.42600   24.43700   19.90200  
H    21.77000   23.23000   21.15800  
H    20.83300   23.76000   19.97800  
S    20.97800   25.66000   21.37300  
C    19.99000   26.38700   20.04600  
H    18.93900   26.13400   20.20900  
H    20.12200   27.47100   20.08300  
H    20.27400   25.98800   19.06900  
O    22.19300   26.53400   21.35500  
C    14.42600   32.17500   21.49200  
H    15.03200   32.65200   20.71800  
H    13.45400   31.87900   21.09000  
H    14.42900   32.84900   22.35300  
S    15.27400   30.65800   21.98900  
C    14.10800   30.26000   23.31100  
H    14.22000   29.18700   23.48800  
H    14.18300   30.85600   24.22500  
H    13.09900   30.46000   22.94200  
O    16.59900   31.10700   22.52100  
C    30.10600   30.26400   28.08800  
H    30.30000   29.60300   28.93600  
H    29.59100   31.15600   28.45400  
H    29.56700   29.73500   27.29800  
S    31.72100   30.85700   27.53500  
C    32.23400   31.64000   29.08100  
H    32.53600   30.87000   29.79600  
H    32.92200   32.47900   28.94900  
H    31.41200   32.21100   29.51800  
O    31.30000   32.08300   26.78700  
C    26.41900   28.34100   18.60200  
H    26.49400   28.96000   19.50000  
H    26.28200   27.27500   18.80000  
H    27.35000   28.53600   18.06500  
S    24.97400   28.94000   17.69800  
C    23.62200   28.74300   18.88000  
H    24.03500   29.27900   19.73900  
H    22.66600   29.12700   18.51500  
H    23.53700   27.67700   19.10600  
O    24.60600   28.01600   16.57900  
C    25.55200   33.86400   26.98300  
H    24.63500   33.58300   26.46000  
H    25.65900   33.31300   27.92000  
H    25.40900   34.93600   27.14700  
S    26.87300   33.69100   25.76200  
C    28.25400   34.10900   26.85100  
H    29.17700   33.99500   26.27700  
H    28.04800   35.09000   27.28900  
H    28.23400   33.29800   27.58400  
O    26.76400   34.88400   24.86500  
C    24.70700   33.13200   19.72800  
H    24.00000   33.91300   20.01900  
H    25.48300   33.45800   19.03100  
H    24.10100   32.36200   19.24400  
S    25.18900   32.29800   21.25700  
C    26.43900   33.46100   21.85100  
H    26.95900   33.80000   20.95100  
H    26.10800   34.25600   22.52300  
H    27.13400   32.86500   22.44800  
O    25.96800   31.18100   20.63600  
C    27.31500   29.76300   23.34300  
H    27.97100   30.04400   22.51500  
H    26.51500   29.16300   22.90100  
H    26.90900   30.68300   23.77200  
S    28.08800   28.95200   24.76000  
C    29.81800   29.40800   24.51100  
H    30.43500   28.59900   24.91000  
H    29.96300   29.63400   23.45100  
H    30.07900   30.33900   25.02000  
O    28.08400   27.49000   24.43800  
C    26.47800   25.38200   29.38400  
H    26.21700   25.13900   30.41700  
H    27.55100   25.21100   29.27200  
H    26.13400   26.39400   29.15700  
S    25.68800   24.15000   28.32400  
C    25.80200   25.14600   26.82100  
H    26.68800   25.75300   26.61900  
H    25.64200   24.38900   26.04900  
H    24.94900   25.82000   26.93700  
O    24.23200   24.12900   28.67200  
C    23.07900   23.54900   23.73600  
H    23.79300   23.92500   22.99900  
H    22.17600   23.22600   23.21100  
H    22.84900   24.36300   24.42700  
S    23.61900   22.05600   24.59900  
C    22.74700   22.44300   26.13300  
H    23.27700   23.26600   26.62000  
H    21.72200   22.72700   25.88200  
H    22.87800   21.51700   26.69800  
O    25.02200   22.43100   24.96300  
C    27.17200   24.18800   22.31100  
H    26.77300   24.35900   23.31400  
H    26.61600   23.57300   21.59800  
H    28.20600   23.90200   22.51700  
S    27.18400   25.89400   21.71700  
C    25.39900   26.11600   21.54700  
H    25.22000   27.16700   21.30600  
H    24.99400   25.39700   20.83000  
H    24.97800   25.93600   22.54000  
O    27.82100   25.88600   20.36200  
C    22.62300   36.25500   22.89400  
H    22.45400   35.77900   21.92400  
H    21.98100   37.13400   23.00200  
H    23.67400   36.55300   22.92000  
S    22.27000   35.08700   24.22700  
C    23.22300   33.62100   23.77300  
H    24.18000   33.94500   23.35700  
H    23.20500   32.98500   24.66200  
H    22.50800   33.15200   23.09200  
O    20.90700   34.61600   23.82500  
C    24.24700   26.91000   34.91600  
H    23.96100   27.74700   34.27400  
H    23.42800   26.22100   34.69600  
H    24.24900   27.20700   35.96800  
S    25.78900   26.08800   34.45700  
C    26.77000   27.59300   34.64500  
H    26.64400   27.94100   35.67300  
H    27.80800   27.42600   34.34500  
H    26.42500   28.44700   34.05600  
O    25.64700   25.84600   32.98600  
C    19.08800   33.05600   25.79300  
H    18.66400   33.73700   25.05100  
H    18.88000   33.45900   26.78800  
H    20.15000   32.79700   25.79900  
S    18.24100   31.46300   25.68700  
C    16.64600   32.12500   26.21900  
H    16.70600   32.59600   27.20400  
H    16.23100   32.83300   25.49800  
H    15.93900   31.30500   26.37000  
O    18.68000   30.58100   26.81400  
C    17.61400   24.95300   25.15700  
H    16.63500   25.43900   25.16200  
H    17.98700   24.86300   24.13300  
H    17.50700   24.02100   25.71800  
S    18.82600   25.89200   26.11300  
C    18.68700   27.38200   25.10000  
H    18.52100   27.06200   24.06800  
H    17.93200   28.11300   25.40000  
H    19.65600   27.88500   25.15000  
O    20.08100   25.31100   25.54000  
C    20.86500   31.41900   29.89300  
H    20.43900   30.65700   29.23500  
H    20.97100   32.29600   29.24900  
H    21.84200   31.07600   30.24400  
S    19.81900   31.64100   31.35000  
C    18.36900   31.91800   30.30800  
H    17.91400   30.92700   30.23000  
H    17.64400   32.56600   30.80600  
H    18.62000   32.33900   29.33100  
O    20.19100   32.91800   32.03700  
C    23.60300   32.51000   32.75900  
H    24.22600   33.11100   32.09100  
H    22.64800   32.20400   32.32400  
H    23.39500   33.15300   33.61800  
S    24.56600   31.13800   33.43400  
C    24.55600   30.09400   31.95900  
H    25.18700   30.64300   31.25600  
H    24.99700   29.15400   32.30100  
H    23.50000   30.11200   31.67700  
O    23.62900   30.51800   34.42400  
C    21.94200   26.49300   28.40800  
H    22.23400   25.44100   28.36300  
H    20.95900   26.72600   28.82500  
H    21.93900   26.88900   27.38900  
S    23.23500   27.44200   29.24200  
C    23.33500   26.64100   30.85900  
H    23.89200   25.70800   30.74200  
H    23.82700   27.23900   31.63000  
H    22.27800   26.43000   31.04400  
O    22.64500   28.79400   29.49500  
C    16.29900   26.70900   22.24800  
H    17.03200   25.95900   21.93800  
H    16.66500   27.56000   22.82700  
H    15.58100   26.19900   22.89600  
S    15.37200   27.34900   20.83600  
C    14.72800   25.75400   20.27900  
H    14.12300   25.79500   19.37000  
H    15.58300   25.13600   19.99400  
H    14.01700   25.31900   20.98500  
O    16.53200   27.53100   19.90700  
C    30.36700   26.76200   28.03100  
H    29.38400   26.70200   27.55500  
H    30.40800   27.50500   28.83200  
H    30.96700   27.07900   27.17400  
S    31.15600   25.21900   28.54300  
C    32.51800   25.88500   29.52600  
H    32.92800   26.72900   28.96600  
H    32.14500   26.23300   30.49200  
H    33.16900   25.02900   29.72400  
O    31.65100   24.62200   27.26300  
C    23.42400   39.13600   27.82500  
H    22.48100   38.97400   28.35200  
H    24.20500   39.04300   28.58300  
H    23.45200   40.14200   27.39900  
S    23.53400   38.00900   26.41700  
C    24.75200   38.73300   25.29700  
H    25.71400   38.30500   25.59200  
H    24.42200   38.38200   24.31600  
H    24.83200   39.81900   25.38900  
O    22.24400   38.14800   25.66900  
C    19.23300   23.06900   27.72700  
H    20.13400   23.45500   27.24300  
H    18.70500   22.40700   27.03600  
H    18.50300   23.80400   28.07200  
S    19.75100   22.21500   29.23300  
C    20.86300   23.51200   29.82400  
H    20.94800   23.51400   30.91300  
H    21.84500   23.25900   29.41700  
H    20.47500   24.48500   29.51000  
O    20.78900   21.27000   28.71400  
C    22.61200   35.09200   29.53900  
H    21.86300   34.35500   29.84100  
H    23.62200   34.68100   29.60800  
H    22.51200   36.05200   30.05300  
S    22.30900   35.19600   27.76100  
C    20.54000   35.56300   27.78600  
H    20.08500   35.25200   26.84200  
H    20.02200   35.00400   28.56900  
H    20.55300   36.63600   27.99600  
O    22.32500   33.73600   27.42800  
C    19.69000   29.66300   21.84800  
H    19.99700   28.64500   22.09900  
H    19.01200   29.99400   22.64000  
H    19.15300   29.60600   20.89800  
S    20.98000   30.92000   21.70800  
C    19.91100   32.32800   22.08300  
H    19.72700   32.34400   23.16000  
H    20.35700   33.23700   21.67100  
H    18.98500   32.12000   21.54100  
O    21.25900   30.89600   20.23700  
C    17.07200   26.79800   31.94500  
H    17.47700   27.41100   32.75400  
H    16.25000   27.35500   31.48800  
H    16.61600   25.87000   32.30100  
S    18.51300   26.40500   30.92900  
C    18.75800   28.11500   30.40100  
H    19.60400   28.33900   29.74600  
H    17.83400   28.39200   29.88500  
H    18.95200   28.71600   31.29200  
O    17.95700   25.78900   29.68300  
C    29.21100   23.00400   25.62800  
H    28.28400   23.08900   25.05600  
H    29.23200   22.00300   26.06700  
H    29.21000   23.85700   26.31100  
S    30.58000   23.22200   24.46900  
C    30.15400   24.95000   24.15700  
H    29.07400   25.06800   24.27900  
H    30.80600   25.53100   24.81300  
H    30.43200   25.20800   23.13200  
O    29.93000   22.41600   23.38800  
C    28.17300   28.19200   30.56200  
H    27.16600   28.14900   30.98500  
H    28.31200   28.93700   29.77500  
H    28.48100   27.20800   30.19800  
S    29.33100   28.73000   31.84100  
C    28.48200   30.29500   32.14800  
H    27.46900   30.14100   32.53000  
H    29.05500   30.92800   32.83100  
H    28.47800   30.73700   31.14900  
O    30.52700   29.19800   31.07200  
C    26.57200   35.32400   30.95100  
H    25.61000   35.37900   31.46800  
H    27.21000   36.18400   31.16900  
H    26.49300   34.96600   29.92200  
S    27.49300   34.01500   31.78900  
C    29.06500   34.18600   30.91400  
H    28.87900   34.52000   29.89100  
H    29.59900   34.82600   31.62100  
H    29.54400   33.21300   31.05000  
O    26.88500   32.88800   31.01300  
$end

$rem
JOBTYPE  SP
METHOD  B3LYP
BASIS  6-31+G(D)
SYMMETRY  FALSE
SYM_IGNORE  TRUE
MEM_TOTAL  16000
MEM_STATIC  8000
MAX_SUB_FILE_NUM  16000
BASIS_LIN_DEP_THRESH  6
THRESH  14
SCF_CONVERGENCE  8
GEN_SCFMAN  TRUE
SCF_GUESS  FRAGMO
FD_MAT_VEC_PROD  FALSE
XC_GRID  000075000302
NL_GRID  1
MAX_SCF_CYCLES  200
FRGM_METHOD  STOLL
SCFMI_MODE  1
$end

$development
almo_efield  1
$end

$rem_frgm
SCF_CONVERGENCE  4
$end

--------------------------------------------------------------
 ----------------------------------------------------------------
             Standard Nuclear Orientation (Angstroms)
    I     Atom           X                Y                Z
 ----------------------------------------------------------------
    1      C      23.0370000000    30.3490000000    26.0570000000
    2      C      24.4380000000    29.7270000000    26.1760000000
    3      C      24.4620000000    28.2540000000    25.7370000000
    4      C      23.9090000000    28.1020000000    24.3100000000
    5      C      22.4670000000    28.6330000000    24.2440000000
    6      C      22.3740000000    30.1000000000    24.6930000000
    7      H      25.3740000000    27.6590000000    25.6050000000
    8      H      25.1490000000    30.2330000000    25.5110000000
    9      H      22.4190000000    30.0490000000    26.9120000000
   10      H      23.1320000000    31.4270000000    26.2330000000
   11      H      24.5120000000    28.6730000000    23.5940000000
   12      H      23.8830000000    27.0740000000    23.9290000000
   13      H      22.0140000000    28.5470000000    23.2480000000
   14      H      21.8420000000    27.9250000000    24.8010000000
   15      H      22.9360000000    30.7240000000    23.9870000000
   16      H      21.3060000000    30.3410000000    24.6220000000
   17      H      23.7980000000    27.6880000000    26.4020000000
   18      N      24.9400000000    29.7780000000    27.5490000000
   19      H      24.2700000000    29.4990000000    28.2560000000
   20      C      26.0230000000    30.4650000000    28.0540000000
   21      H      26.0490000000    30.4250000000    29.1580000000
   22      O      26.9070000000    30.9620000000    27.3780000000
   23      C      21.6340000000    24.1620000000    20.6040000000
   24      H      22.4260000000    24.4370000000    19.9020000000
   25      H      21.7700000000    23.2300000000    21.1580000000
   26      H      20.8330000000    23.7600000000    19.9780000000
   27      S      20.9780000000    25.6600000000    21.3730000000
   28      C      19.9900000000    26.3870000000    20.0460000000
   29      H      18.9390000000    26.1340000000    20.2090000000
   30      H      20.1220000000    27.4710000000    20.0830000000
   31      H      20.2740000000    25.9880000000    19.0690000000
   32      O      22.1930000000    26.5340000000    21.3550000000
   33      C      14.4260000000    32.1750000000    21.4920000000
   34      H      15.0320000000    32.6520000000    20.7180000000
   35      H      13.4540000000    31.8790000000    21.0900000000
   36      H      14.4290000000    32.8490000000    22.3530000000
   37      S      15.2740000000    30.6580000000    21.9890000000
   38      C      14.1080000000    30.2600000000    23.3110000000
   39      H      14.2200000000    29.1870000000    23.4880000000
   40      H      14.1830000000    30.8560000000    24.2250000000
   41      H      13.0990000000    30.4600000000    22.9420000000
   42      O      16.5990000000    31.1070000000    22.5210000000
   43      C      30.1060000000    30.2640000000    28.0880000000
   44      H      30.3000000000    29.6030000000    28.9360000000
   45      H      29.5910000000    31.1560000000    28.4540000000
   46      H      29.5670000000    29.7350000000    27.2980000000
   47      S      31.7210000000    30.8570000000    27.5350000000
   48      C      32.2340000000    31.6400000000    29.0810000000
   49      H      32.5360000000    30.8700000000    29.7960000000
   50      H      32.9220000000    32.4790000000    28.9490000000
   51      H      31.4120000000    32.2110000000    29.5180000000
   52      O      31.3000000000    32.0830000000    26.7870000000
   53      C      26.4190000000    28.3410000000    18.6020000000
   54      H      26.4940000000    28.9600000000    19.5000000000
   55      H      26.2820000000    27.2750000000    18.8000000000
   56      H      27.3500000000    28.5360000000    18.0650000000
   57      S      24.9740000000    28.9400000000    17.6980000000
   58      C      23.6220000000    28.7430000000    18.8800000000
   59      H      24.0350000000    29.2790000000    19.7390000000
   60      H      22.6660000000    29.1270000000    18.5150000000
   61      H      23.5370000000    27.6770000000    19.1060000000
   62      O      24.6060000000    28.0160000000    16.5790000000
   63      C      25.5520000000    33.8640000000    26.9830000000
   64      H      24.6350000000    33.5830000000    26.4600000000
   65      H      25.6590000000    33.3130000000    27.9200000000
   66      H      25.4090000000    34.9360000000    27.1470000000
   67      S      26.8730000000    33.6910000000    25.7620000000
   68      C      28.2540000000    34.1090000000    26.8510000000
   69      H      29.1770000000    33.9950000000    26.2770000000
   70      H      28.0480000000    35.0900000000    27.2890000000
   71      H      28.2340000000    33.2980000000    27.5840000000
   72      O      26.7640000000    34.8840000000    24.8650000000
   73      C      24.7070000000    33.1320000000    19.7280000000
   74      H      24.0000000000    33.9130000000    20.0190000000
   75      H      25.4830000000    33.4580000000    19.0310000000
   76      H      24.1010000000    32.3620000000    19.2440000000
   77      S      25.1890000000    32.2980000000    21.2570000000
   78      C      26.4390000000    33.4610000000    21.8510000000
   79      H      26.9590000000    33.8000000000    20.9510000000
   80      H      26.1080000000    34.2560000000    22.5230000000
   81      H      27.1340000000    32.8650000000    22.4480000000
   82      O      25.9680000000    31.1810000000    20.6360000000
   83      C      27.3150000000    29.7630000000    23.3430000000
   84      H      27.9710000000    30.0440000000    22.5150000000
   85      H      26.5150000000    29.1630000000    22.9010000000
   86      H      26.9090000000    30.6830000000    23.7720000000
   87      S      28.0880000000    28.9520000000    24.7600000000
   88      C      29.8180000000    29.4080000000    24.5110000000
   89      H      30.4350000000    28.5990000000    24.9100000000
   90      H      29.9630000000    29.6340000000    23.4510000000
   91      H      30.0790000000    30.3390000000    25.0200000000
   92      O      28.0840000000    27.4900000000    24.4380000000
   93      C      26.4780000000    25.3820000000    29.3840000000
   94      H      26.2170000000    25.1390000000    30.4170000000
   95      H      27.5510000000    25.2110000000    29.2720000000
   96      H      26.1340000000    26.3940000000    29.1570000000
   97      S      25.6880000000    24.1500000000    28.3240000000
   98      C      25.8020000000    25.1460000000    26.8210000000
   99      H      26.6880000000    25.7530000000    26.6190000000
  100      H      25.6420000000    24.3890000000    26.0490000000
  101      H      24.9490000000    25.8200000000    26.9370000000
  102      O      24.2320000000    24.1290000000    28.6720000000
  103      C      23.0790000000    23.5490000000    23.7360000000
  104      H      23.7930000000    23.9250000000    22.9990000000
  105      H      22.1760000000    23.2260000000    23.2110000000
  106      H      22.8490000000    24.3630000000    24.4270000000
  107      S      23.6190000000    22.0560000000    24.5990000000
  108      C      22.7470000000    22.4430000000    26.1330000000
  109      H      23.2770000000    23.2660000000    26.6200000000
  110      H      21.7220000000    22.7270000000    25.8820000000
  111      H      22.8780000000    21.5170000000    26.6980000000
  112      O      25.0220000000    22.4310000000    24.9630000000
  113      C      27.1720000000    24.1880000000    22.3110000000
  114      H      26.7730000000    24.3590000000    23.3140000000
  115      H      26.6160000000    23.5730000000    21.5980000000
  116      H      28.2060000000    23.9020000000    22.5170000000
  117      S      27.1840000000    25.8940000000    21.7170000000
  118      C      25.3990000000    26.1160000000    21.5470000000
  119      H      25.2200000000    27.1670000000    21.3060000000
  120      H      24.9940000000    25.3970000000    20.8300000000
  121      H      24.9780000000    25.9360000000    22.5400000000
  122      O      27.8210000000    25.8860000000    20.3620000000
  123      C      22.6230000000    36.2550000000    22.8940000000
  124      H      22.4540000000    35.7790000000    21.9240000000
  125      H      21.9810000000    37.1340000000    23.0020000000
  126      H      23.6740000000    36.5530000000    22.9200000000
  127      S      22.2700000000    35.0870000000    24.2270000000
  128      C      23.2230000000    33.6210000000    23.7730000000
  129      H      24.1800000000    33.9450000000    23.3570000000
  130      H      23.2050000000    32.9850000000    24.6620000000
  131      H      22.5080000000    33.1520000000    23.0920000000
  132      O      20.9070000000    34.6160000000    23.8250000000
  133      C      24.2470000000    26.9100000000    34.9160000000
  134      H      23.9610000000    27.7470000000    34.2740000000
  135      H      23.4280000000    26.2210000000    34.6960000000
  136      H      24.2490000000    27.2070000000    35.9680000000
  137      S      25.7890000000    26.0880000000    34.4570000000
  138      C      26.7700000000    27.5930000000    34.6450000000
  139      H      26.6440000000    27.9410000000    35.6730000000
  140      H      27.8080000000    27.4260000000    34.3450000000
  141      H      26.4250000000    28.4470000000    34.0560000000
  142      O      25.6470000000    25.8460000000    32.9860000000
  143      C      19.0880000000    33.0560000000    25.7930000000
  144      H      18.6640000000    33.7370000000    25.0510000000
  145      H      18.8800000000    33.4590000000    26.7880000000
  146      H      20.1500000000    32.7970000000    25.7990000000
  147      S      18.2410000000    31.4630000000    25.6870000000
  148      C      16.6460000000    32.1250000000    26.2190000000
  149      H      16.7060000000    32.5960000000    27.2040000000
  150      H      16.2310000000    32.8330000000    25.4980000000
  151      H      15.9390000000    31.3050000000    26.3700000000
  152      O      18.6800000000    30.5810000000    26.8140000000
  153      C      17.6140000000    24.9530000000    25.1570000000
  154      H      16.6350000000    25.4390000000    25.1620000000
  155      H      17.9870000000    24.8630000000    24.1330000000
  156      H      17.5070000000    24.0210000000    25.7180000000
  157      S      18.8260000000    25.8920000000    26.1130000000
  158      C      18.6870000000    27.3820000000    25.1000000000
  159      H      18.5210000000    27.0620000000    24.0680000000
  160      H      17.9320000000    28.1130000000    25.4000000000
  161      H      19.6560000000    27.8850000000    25.1500000000
  162      O      20.0810000000    25.3110000000    25.5400000000
  163      C      20.8650000000    31.4190000000    29.8930000000
  164      H      20.4390000000    30.6570000000    29.2350000000
  165      H      20.9710000000    32.2960000000    29.2490000000
  166      H      21.8420000000    31.0760000000    30.2440000000
  167      S      19.8190000000    31.6410000000    31.3500000000
  168      C      18.3690000000    31.9180000000    30.3080000000
  169      H      17.9140000000    30.9270000000    30.2300000000
  170      H      17.6440000000    32.5660000000    30.8060000000
  171      H      18.6200000000    32.3390000000    29.3310000000
  172      O      20.1910000000    32.9180000000    32.0370000000
  173      C      23.6030000000    32.5100000000    32.7590000000
  174      H      24.2260000000    33.1110000000    32.0910000000
  175      H      22.6480000000    32.2040000000    32.3240000000
  176      H      23.3950000000    33.1530000000    33.6180000000
  177      S      24.5660000000    31.1380000000    33.4340000000
  178      C      24.5560000000    30.0940000000    31.9590000000
  179      H      25.1870000000    30.6430000000    31.2560000000
  180      H      24.9970000000    29.1540000000    32.3010000000
  181      H      23.5000000000    30.1120000000    31.6770000000
  182      O      23.6290000000    30.5180000000    34.4240000000
  183      C      21.9420000000    26.4930000000    28.4080000000
  184      H      22.2340000000    25.4410000000    28.3630000000
  185      H      20.9590000000    26.7260000000    28.8250000000
  186      H      21.9390000000    26.8890000000    27.3890000000
  187      S      23.2350000000    27.4420000000    29.2420000000
  188      C      23.3350000000    26.6410000000    30.8590000000
  189      H      23.8920000000    25.7080000000    30.7420000000
  190      H      23.8270000000    27.2390000000    31.6300000000
  191      H      22.2780000000    26.4300000000    31.0440000000
  192      O      22.6450000000    28.7940000000    29.4950000000
  193      C      16.2990000000    26.7090000000    22.2480000000
  194      H      17.0320000000    25.9590000000    21.9380000000
  195      H      16.6650000000    27.5600000000    22.8270000000
  196      H      15.5810000000    26.1990000000    22.8960000000
  197      S      15.3720000000    27.3490000000    20.8360000000
  198      C      14.7280000000    25.7540000000    20.2790000000
  199      H      14.1230000000    25.7950000000    19.3700000000
  200      H      15.5830000000    25.1360000000    19.9940000000
  201      H      14.0170000000    25.3190000000    20.9850000000
  202      O      16.5320000000    27.5310000000    19.9070000000
  203      C      30.3670000000    26.7620000000    28.0310000000
  204      H      29.3840000000    26.7020000000    27.5550000000
  205      H      30.4080000000    27.5050000000    28.8320000000
  206      H      30.9670000000    27.0790000000    27.1740000000
  207      S      31.1560000000    25.2190000000    28.5430000000
  208      C      32.5180000000    25.8850000000    29.5260000000
  209      H      32.9280000000    26.7290000000    28.9660000000
  210      H      32.1450000000    26.2330000000    30.4920000000
  211      H      33.1690000000    25.0290000000    29.7240000000
  212      O      31.6510000000    24.6220000000    27.2630000000
  213      C      23.4240000000    39.1360000000    27.8250000000
  214      H      22.4810000000    38.9740000000    28.3520000000
  215      H      24.2050000000    39.0430000000    28.5830000000
  216      H      23.4520000000    40.1420000000    27.3990000000
  217      S      23.5340000000    38.0090000000    26.4170000000
  218      C      24.7520000000    38.7330000000    25.2970000000
  219      H      25.7140000000    38.3050000000    25.5920000000
  220      H      24.4220000000    38.3820000000    24.3160000000
  221      H      24.8320000000    39.8190000000    25.3890000000
  222      O      22.2440000000    38.1480000000    25.6690000000
  223      C      19.2330000000    23.0690000000    27.7270000000
  224      H      20.1340000000    23.4550000000    27.2430000000
  225      H      18.7050000000    22.4070000000    27.0360000000
  226      H      18.5030000000    23.8040000000    28.0720000000
  227      S      19.7510000000    22.2150000000    29.2330000000
  228      C      20.8630000000    23.5120000000    29.8240000000
  229      H      20.9480000000    23.5140000000    30.9130000000
  230      H      21.8450000000    23.2590000000    29.4170000000
  231      H      20.4750000000    24.4850000000    29.5100000000
  232      O      20.7890000000    21.2700000000    28.7140000000
  233      C      22.6120000000    35.0920000000    29.5390000000
  234      H      21.8630000000    34.3550000000    29.8410000000
  235      H      23.6220000000    34.6810000000    29.6080000000
  236      H      22.5120000000    36.0520000000    30.0530000000
  237      S      22.3090000000    35.1960000000    27.7610000000
  238      C      20.5400000000    35.5630000000    27.7860000000
  239      H      20.0850000000    35.2520000000    26.8420000000
  240      H      20.0220000000    35.0040000000    28.5690000000
  241      H      20.5530000000    36.6360000000    27.9960000000
  242      O      22.3250000000    33.7360000000    27.4280000000
  243      C      19.6900000000    29.6630000000    21.8480000000
  244      H      19.9970000000    28.6450000000    22.0990000000
  245      H      19.0120000000    29.9940000000    22.6400000000
  246      H      19.1530000000    29.6060000000    20.8980000000
  247      S      20.9800000000    30.9200000000    21.7080000000
  248      C      19.9110000000    32.3280000000    22.0830000000
  249      H      19.7270000000    32.3440000000    23.1600000000
  250      H      20.3570000000    33.2370000000    21.6710000000
  251      H      18.9850000000    32.1200000000    21.5410000000
  252      O      21.2590000000    30.8960000000    20.2370000000
  253      C      17.0720000000    26.7980000000    31.9450000000
  254      H      17.4770000000    27.4110000000    32.7540000000
  255      H      16.2500000000    27.3550000000    31.4880000000
  256      H      16.6160000000    25.8700000000    32.3010000000
  257      S      18.5130000000    26.4050000000    30.9290000000
  258      C      18.7580000000    28.1150000000    30.4010000000
  259      H      19.6040000000    28.3390000000    29.7460000000
  260      H      17.8340000000    28.3920000000    29.8850000000
  261      H      18.9520000000    28.7160000000    31.2920000000
  262      O      17.9570000000    25.7890000000    29.6830000000
  263      C      29.2110000000    23.0040000000    25.6280000000
  264      H      28.2840000000    23.0890000000    25.0560000000
  265      H      29.2320000000    22.0030000000    26.0670000000
  266      H      29.2100000000    23.8570000000    26.3110000000
  267      S      30.5800000000    23.2220000000    24.4690000000
  268      C      30.1540000000    24.9500000000    24.1570000000
  269      H      29.0740000000    25.0680000000    24.2790000000
  270      H      30.8060000000    25.5310000000    24.8130000000
  271      H      30.4320000000    25.2080000000    23.1320000000
  272      O      29.9300000000    22.4160000000    23.3880000000
  273      C      28.1730000000    28.1920000000    30.5620000000
  274      H      27.1660000000    28.1490000000    30.9850000000
  275      H      28.3120000000    28.9370000000    29.7750000000
  276      H      28.4810000000    27.2080000000    30.1980000000
  277      S      29.3310000000    28.7300000000    31.8410000000
  278      C      28.4820000000    30.2950000000    32.1480000000
  279      H      27.4690000000    30.1410000000    32.5300000000
  280      H      29.0550000000    30.9280000000    32.8310000000
  281      H      28.4780000000    30.7370000000    31.1490000000
  282      O      30.5270000000    29.1980000000    31.0720000000
  283      C      26.5720000000    35.3240000000    30.9510000000
  284      H      25.6100000000    35.3790000000    31.4680000000
  285      H      27.2100000000    36.1840000000    31.1690000000
  286      H      26.4930000000    34.9660000000    29.9220000000
  287      S      27.4930000000    34.0150000000    31.7890000000
  288      C      29.0650000000    34.1860000000    30.9140000000
  289      H      28.8790000000    34.5200000000    29.8910000000
  290      H      29.5990000000    34.8260000000    31.6210000000
  291      H      29.5440000000    33.2130000000    31.0500000000
  292      O      26.8850000000    32.8880000000    31.0130000000
 ----------------------------------------------------------------
 Nuclear Repulsion Energy =       48359.27006207 hartrees
 There are      602 alpha and      602 beta electrons
 Requested basis set is 6-31+G(d)
 There are 962 shells and 2681 basis functions

 Total QAlloc Memory Limit  16000 MB
 Mega-Array Size      7821 MB
 MEM_STATIC part      8000 MB
 A cutoff of  1.0D-14 yielded 179561 shell pairs
 There are   1552741 function pairs
 Smallest overlap matrix eigenvalue = 2.92E-07
 Linear dependence detected in AO basis
 Tighter screening thresholds may be required for diffuse basis sets
 Use S2THRESH > 14 and THRESH = 14 in case of SCF convergence issues
 Number of orthogonalized atomic orbitals = 2679
 Maximum deviation from orthogonality = 1.794E-10

 Scale SEOQF with 1.000000e-03/1.000000e-03/1.000000e-03

 Standard Electronic Orientation quadrupole field applied
 Nucleus-field energy     =     0.0000000819 hartrees
Attempting to make child job directory: /local/scratch/users/ymao/r7.00_frame_0098_almo_B3LYP_dp.in20210311133733//Frg1/
Attempting to make child job directory: /local/scratch/users/ymao/r7.00_frame_0098_almo_B3LYP_dp.in20210311133733//Frg2/
Creating input file /local/scratch/users/ymao/r7.00_frame_0098_almo_B3LYP_dp.in20210311133733/Frg1.input
using default PutDataFrgm: nothing
calling putenv with: QCSCRATCH=/local/scratch/users/ymao/r7.00_frame_0098_almo_B3LYP_dp.in20210311133733/ 
Spawning Job For Fragment 0
Done Job For Fragment 0
calling putenv with: QCSCRATCH=/local/scratch/users/ymao 
calling putenv with: QCTHREADS=8 
Creating input file /local/scratch/users/ymao/r7.00_frame_0098_almo_B3LYP_dp.in20210311133733/Frg2.input
using default PutDataFrgm: nothing
calling putenv with: QCSCRATCH=/local/scratch/users/ymao/r7.00_frame_0098_almo_B3LYP_dp.in20210311133733/ 
Spawning Job For Fragment 1
Done Job For Fragment 1
calling putenv with: QCSCRATCH=/local/scratch/users/ymao 
calling putenv with: QCTHREADS=8 
 Time for running child jobs:  CPU 1.23 s  wall 26891.32 s

 -----------------------------------------------------------------------
  General SCF calculation program by
  Eric Jon Sundstrom, Paul Horn, Yuezhi Mao, Dmitri Zuev, Alec White,
  David Stuck, Shaama M.S., Shane Yost, Joonho Lee, David Small,
  Daniel Levine, Susi Lehtola, Hugh Burton, Evgeny Epifanovsky,
  Bang C. Huynh
 -----------------------------------------------------------------------
Performing Restricted Closed Shell SCFMI
Doing General SCFMI
 Exchange:     0.2000 Hartree-Fock + 0.0800 Slater + 0.7200 B88
 Correlation:  0.1900 VWN1RPA + 0.8100 LYP
 Using Euler-Maclaurin-Lebedev (75,302) quadrature formula
performing fock build before subrot guess so that all methods have access
Printing subrot_rss_gen Method Specification:
Occupied Subspace Method is 0
Virtual Subspace Method is 0
Energy prior to optimization (guess energy) = -15340.661285663686
Begin Timing: Total SCF Calculation
begin iterations for algorithm: DIIS         
the SCF tolerance is set to 1.00e-08
    1  -15340.6612856637      5.60e-05     00000 
    2  -15340.6539949497      9.55e-05     00000 
    3  -15340.6772458675      1.85e-05     00000 
    4  -15340.6780684697      7.85e-06     00000 
    5  -15340.6782318438      4.15e-06     00000 
    6  -15340.6782699048      2.54e-06     00000 
    7  -15340.6782865995      1.45e-06     00000 
    8  -15340.6782924572      8.87e-07     00000 
    9  -15340.6782942467      5.96e-07     00000 
   10  -15340.6782949168      4.11e-07     00000 
   11  -15340.6782952790      2.46e-07     00000 
   12  -15340.6782954201      1.45e-07     00000 
   13  -15340.6782954727      8.56e-08     00000 
   14  -15340.6782954882      6.40e-08     00000 
   15  -15340.6782954967      4.14e-08     00000 
   16  -15340.6782955012      1.88e-08     00000 
   17  -15340.6782955020      1.27e-08     00000 
   18  -15340.6782955022      9.55e-09     00000 Convergence criterion met
write pseudocanon occs and virts to disk
write pseudocanon orbital energies to disk
Timing for Total SCF: 61655.00s (wall), 488385.28s (cpu)
SCFMI Energy  -15340.6782955022
<S^2>            0.00000
 Total energy in the final basis set =   -15340.6782955022
    ==================================================
        The end of Object-Oriented SCFman: SCFMI      
    ==================================================
 
 --------------------------------------------------------------
 
                    Orbital Energies (a.u.)
 --------------------------------------------------------------
 
 Alpha MOs
 -- Occupied --
-89.0345 -89.0248 -89.0241 -89.0239 -89.0236 -89.0215 -89.0149 -89.0132
-89.0081 -89.0070 -89.0056 -89.0032 -89.0019 -89.0006 -88.9997 -88.9963
-88.9956 -88.9940 -88.9894 -88.9885 -88.9808 -88.9805 -88.9756 -88.9735
-88.9496 -88.9375 -88.9308 -19.1452 -19.1419 -19.1396 -19.1369 -19.1351
-19.1325 -19.1322 -19.1318 -19.1280 -19.1268 -19.1265 -19.1258 -19.1213
-19.1181 -19.1171 -19.1170 -19.1151 -19.1068 -19.1057 -19.0989 -19.0975
-19.0927 -19.0920 -19.0852 -19.0833 -19.0611 -19.0571 -19.0505 -14.3657
-10.2980 -10.2590 -10.2556 -10.2503 -10.2465 -10.2433 -10.2429 -10.2411
-10.2396 -10.2386 -10.2382 -10.2380 -10.2372 -10.2371 -10.2328 -10.2318
-10.2316 -10.2311 -10.2293 -10.2291 -10.2268 -10.2258 -10.2249 -10.2213
-10.2201 -10.2192 -10.2174 -10.2173 -10.2172 -10.2154 -10.2153 -10.2152
-10.2135 -10.2131 -10.2109 -10.2107 -10.2092 -10.2090 -10.2044 -10.2033
-10.2012 -10.2011 -10.1974 -10.1962 -10.1947 -10.1938 -10.1930 -10.1920
-10.1911 -10.1819 -10.1813 -10.1795 -10.1774 -10.1729 -10.1680 -10.1673
-10.1671 -10.1634 -10.1625 -10.1567 -10.1554  -8.0818  -8.0707  -8.0703
 -8.0699  -8.0690  -8.0673  -8.0614  -8.0595  -8.0537  -8.0528  -8.0513
 -8.0495  -8.0480  -8.0472  -8.0456  -8.0419  -8.0416  -8.0397  -8.0351
 -8.0342  -8.0270  -8.0265  -8.0216  -8.0200  -7.9960  -7.9840  -7.9775
 -6.0460  -6.0447  -6.0394  -6.0347  -6.0347  -6.0343  -6.0339  -6.0334
 -6.0333  -6.0331  -6.0321  -6.0316  -6.0303  -6.0283  -6.0278  -6.0271
 -6.0266  -6.0258  -6.0249  -6.0247  -6.0238  -6.0226  -6.0182  -6.0182
 -6.0169  -6.0168  -6.0168  -6.0159  -6.0158  -6.0143  -6.0138  -6.0126
 -6.0123  -6.0119  -6.0110  -6.0110  -6.0103  -6.0101  -6.0100  -6.0090
 -6.0087  -6.0069  -6.0064  -6.0060  -6.0055  -6.0050  -6.0048  -6.0042
 -6.0040  -6.0030  -6.0027  -5.9993  -5.9992  -5.9989  -5.9987  -5.9983
 -5.9972  -5.9970  -5.9926  -5.9914  -5.9912  -5.9909  -5.9901  -5.9898
 -5.9861  -5.9848  -5.9846  -5.9843  -5.9836  -5.9829  -5.9789  -5.9775
 -5.9602  -5.9590  -5.9536  -5.9485  -5.9472  -5.9421  -5.9410  -5.9407
 -5.9344  -1.0595  -1.0529  -1.0494  -1.0485  -1.0438  -1.0427  -1.0413
 -1.0410  -1.0403  -1.0363  -1.0363  -1.0315  -1.0310  -1.0286  -1.0246
 -1.0236  -1.0228  -1.0215  -1.0209  -1.0124  -1.0116  -1.0042  -1.0008
 -0.9997  -0.9967  -0.9729  -0.9659  -0.9562  -0.9298  -0.8369  -0.8343
 -0.8276  -0.8216  -0.8209  -0.8205  -0.8193  -0.8185  -0.8156  -0.8142
 -0.8120  -0.8108  -0.8070  -0.8046  -0.8027  -0.7985  -0.7945  -0.7941
 -0.7938  -0.7879  -0.7835  -0.7813  -0.7809  -0.7786  -0.7729  -0.7723
 -0.7587  -0.7565  -0.7548  -0.7532  -0.7512  -0.7509  -0.7488  -0.7445
 -0.7430  -0.7418  -0.7392  -0.7389  -0.7379  -0.7374  -0.7370  -0.7348
 -0.7338  -0.7315  -0.7276  -0.7269  -0.7259  -0.7251  -0.7182  -0.7164
 -0.7141  -0.7110  -0.7043  -0.6990  -0.6811  -0.6762  -0.6697  -0.6436
 -0.6413  -0.6386  -0.6378  -0.6365  -0.6356  -0.6354  -0.6331  -0.6279
 -0.6214  -0.6207  -0.6177  -0.6162  -0.6136  -0.6129  -0.6114  -0.6101
 -0.6094  -0.6080  -0.6079  -0.6014  -0.5997  -0.5954  -0.5949  -0.5898
 -0.5893  -0.5846  -0.5651  -0.5622  -0.5514  -0.5424  -0.5303  -0.5290
 -0.5144  -0.5113  -0.5080  -0.5058  -0.5031  -0.5029  -0.5005  -0.4987
 -0.4979  -0.4961  -0.4953  -0.4949  -0.4931  -0.4926  -0.4913  -0.4905
 -0.4891  -0.4890  -0.4883  -0.4874  -0.4869  -0.4868  -0.4861  -0.4856
 -0.4840  -0.4834  -0.4824  -0.4817  -0.4817  -0.4813  -0.4805  -0.4802
 -0.4800  -0.4790  -0.4785  -0.4779  -0.4767  -0.4766  -0.4752  -0.4738
 -0.4726  -0.4723  -0.4698  -0.4694  -0.4685  -0.4674  -0.4663  -0.4659
 -0.4656  -0.4650  -0.4643  -0.4640  -0.4631  -0.4626  -0.4623  -0.4616
 -0.4612  -0.4603  -0.4600  -0.4594  -0.4577  -0.4575  -0.4560  -0.4550
 -0.4537  -0.4536  -0.4520  -0.4519  -0.4510  -0.4501  -0.4495  -0.4482
 -0.4463  -0.4446  -0.4441  -0.4439  -0.4437  -0.4433  -0.4422  -0.4412
 -0.4402  -0.4401  -0.4392  -0.4390  -0.4376  -0.4374  -0.4369  -0.4360
 -0.4356  -0.4349  -0.4340  -0.4336  -0.4333  -0.4324  -0.4317  -0.4309
 -0.4296  -0.4290  -0.4281  -0.4280  -0.4273  -0.4264  -0.4258  -0.4258
 -0.4253  -0.4251  -0.4234  -0.4233  -0.4230  -0.4221  -0.4217  -0.4203
 -0.4200  -0.4197  -0.4195  -0.4189  -0.4175  -0.4173  -0.4158  -0.4150
 -0.4142  -0.4129  -0.4127  -0.4118  -0.4112  -0.4106  -0.4102  -0.4090
 -0.4082  -0.4080  -0.4077  -0.4069  -0.4059  -0.4045  -0.4040  -0.4032
 -0.4029  -0.4020  -0.4014  -0.4003  -0.3989  -0.3982  -0.3972  -0.3968
 -0.3966  -0.3961  -0.3948  -0.3945  -0.3932  -0.3916  -0.3914  -0.3903
 -0.3886  -0.3878  -0.3875  -0.3872  -0.3853  -0.3846  -0.3832  -0.3826
 -0.3823  -0.3814  -0.3807  -0.3797  -0.3795  -0.3773  -0.3765  -0.3745
 -0.3723  -0.3719  -0.3711  -0.3709  -0.3693  -0.3683  -0.3681  -0.3667
 -0.3633  -0.3623  -0.3618  -0.3608  -0.3574  -0.3563  -0.3552  -0.3541
 -0.3530  -0.3525  -0.3514  -0.3511  -0.3440  -0.3427  -0.3425  -0.3422
 -0.3411  -0.3368  -0.3352  -0.3342  -0.3130  -0.3115  -0.3101  -0.3059
 -0.3041  -0.3019  -0.2980  -0.2972  -0.2971  -0.2962  -0.2945  -0.2924
 -0.2921  -0.2897  -0.2886  -0.2859  -0.2856  -0.2816  -0.2815  -0.2779
 -0.2778  -0.2757  -0.2746  -0.2732  -0.2703  -0.2698  -0.2677  -0.2637
 -0.2631  -0.2628  -0.2622  -0.2617  -0.2611  -0.2599  -0.2567  -0.2557
 -0.2534  -0.2521  -0.2490  -0.2482  -0.2459  -0.2446  -0.2441  -0.2432
 -0.2411  -0.2392  -0.2372  -0.2353  -0.2341  -0.2335  -0.2262  -0.2254
 -0.2226  -0.2183  -0.2178  -0.2153  -0.2141  -0.2140  -0.2115  -0.1890
 -0.1767  -0.1651
 -- Virtual --
 -0.0479  -0.0421  -0.0352  -0.0335  -0.0310  -0.0279  -0.0262  -0.0242
 -0.0230  -0.0207  -0.0191  -0.0188  -0.0179  -0.0159  -0.0147  -0.0135
 -0.0130  -0.0111  -0.0107  -0.0096  -0.0088  -0.0084  -0.0073  -0.0055
 -0.0050  -0.0046  -0.0032  -0.0029  -0.0006   0.0003   0.0013   0.0020
  0.0026   0.0028   0.0043   0.0051   0.0058   0.0067   0.0074   0.0076
  0.0084   0.0094   0.0101   0.0111   0.0119   0.0121   0.0133   0.0138
  0.0145   0.0150   0.0159   0.0161   0.0171   0.0180   0.0190   0.0194
  0.0202   0.0212   0.0221   0.0226   0.0237   0.0245   0.0250   0.0255
  0.0259   0.0268   0.0273   0.0286   0.0290   0.0293   0.0300   0.0304
  0.0307   0.0311   0.0319   0.0333   0.0337   0.0339   0.0344   0.0358
  0.0358   0.0368   0.0378   0.0385   0.0387   0.0394   0.0404   0.0407
  0.0407   0.0415   0.0426   0.0434   0.0438   0.0444   0.0452   0.0456
  0.0464   0.0472   0.0474   0.0480   0.0488   0.0498   0.0503   0.0517
  0.0520   0.0526   0.0529   0.0536   0.0540   0.0545   0.0550   0.0566
  0.0568   0.0575   0.0580   0.0592   0.0593   0.0603   0.0610   0.0617
  0.0624   0.0633   0.0641   0.0650   0.0658   0.0659   0.0661   0.0672
  0.0676   0.0682   0.0688   0.0689   0.0706   0.0708   0.0713   0.0719
  0.0721   0.0733   0.0734   0.0737   0.0752   0.0755   0.0766   0.0769
  0.0777   0.0783   0.0788   0.0789   0.0798   0.0808   0.0813   0.0821
  0.0832   0.0837   0.0841   0.0847   0.0854   0.0862   0.0867   0.0873
  0.0881   0.0890   0.0893   0.0908   0.0909   0.0918   0.0926   0.0931
  0.0934   0.0941   0.0948   0.0952   0.0960   0.0967   0.0970   0.0980
  0.0989   0.0992   0.0995   0.1002   0.1006   0.1014   0.1022   0.1034
  0.1039   0.1043   0.1045   0.1048   0.1055   0.1063   0.1070   0.1076
  0.1083   0.1087   0.1093   0.1100   0.1112   0.1117   0.1122   0.1129
  0.1132   0.1136   0.1140   0.1148   0.1155   0.1158   0.1173   0.1180
  0.1182   0.1184   0.1192   0.1201   0.1206   0.1210   0.1216   0.1219
  0.1224   0.1234   0.1240   0.1253   0.1256   0.1262   0.1266   0.1271
  0.1282   0.1287   0.1293   0.1296   0.1303   0.1309   0.1311   0.1321
  0.1326   0.1331   0.1332   0.1341   0.1344   0.1358   0.1369   0.1371
  0.1382   0.1386   0.1389   0.1394   0.1402   0.1410   0.1411   0.1419
  0.1423   0.1430   0.1436   0.1443   0.1447   0.1456   0.1459   0.1463
  0.1471   0.1477   0.1486   0.1490   0.1495   0.1499   0.1502   0.1512
  0.1520   0.1528   0.1533   0.1538   0.1538   0.1549   0.1558   0.1565
  0.1570   0.1575   0.1580   0.1586   0.1590   0.1596   0.1603   0.1606
  0.1612   0.1619   0.1625   0.1637   0.1645   0.1647   0.1653   0.1660
  0.1663   0.1670   0.1677   0.1682   0.1688   0.1694   0.1701   0.1705
  0.1711   0.1716   0.1726   0.1731   0.1736   0.1741   0.1745   0.1753
  0.1758   0.1763   0.1770   0.1779   0.1782   0.1787   0.1794   0.1800
  0.1802   0.1816   0.1822   0.1825   0.1839   0.1842   0.1850   0.1851
  0.1857   0.1863   0.1867   0.1879   0.1880   0.1883   0.1886   0.1889
  0.1904   0.1905   0.1913   0.1922   0.1931   0.1940   0.1947   0.1951
  0.1959   0.1966   0.1967   0.1973   0.1979   0.1985   0.1990   0.1991
  0.2002   0.2009   0.2017   0.2022   0.2026   0.2032   0.2032   0.2044
  0.2050   0.2056   0.2064   0.2072   0.2078   0.2081   0.2088   0.2091
  0.2098   0.2107   0.2108   0.2118   0.2127   0.2131   0.2138   0.2140
  0.2146   0.2152   0.2165   0.2171   0.2174   0.2183   0.2192   0.2202
  0.2210   0.2215   0.2222   0.2226   0.2232   0.2237   0.2246   0.2251
  0.2265   0.2268   0.2273   0.2283   0.2285   0.2292   0.2300   0.2306
  0.2315   0.2318   0.2320   0.2334   0.2337   0.2346   0.2360   0.2366
  0.2370   0.2377   0.2381   0.2386   0.2389   0.2402   0.2406   0.2413
  0.2422   0.2429   0.2435   0.2443   0.2450   0.2458   0.2466   0.2469
  0.2479   0.2485   0.2489   0.2496   0.2501   0.2507   0.2518   0.2519
  0.2521   0.2534   0.2537   0.2541   0.2552   0.2566   0.2570   0.2572
  0.2579   0.2594   0.2604   0.2607   0.2613   0.2622   0.2627   0.2642
  0.2644   0.2653   0.2661   0.2662   0.2677   0.2679   0.2686   0.2689
  0.2703   0.2708   0.2717   0.2725   0.2732   0.2740   0.2749   0.2759
  0.2763   0.2767   0.2777   0.2784   0.2793   0.2796   0.2809   0.2816
  0.2824   0.2834   0.2839   0.2840   0.2862   0.2869   0.2872   0.2879
  0.2882   0.2888   0.2899   0.2905   0.2929   0.2934   0.2943   0.2944
  0.2947   0.2958   0.2965   0.2972   0.2980   0.2996   0.3001   0.3003
  0.3016   0.3032   0.3041   0.3045   0.3058   0.3059   0.3069   0.3073
  0.3085   0.3089   0.3097   0.3108   0.3116   0.3127   0.3130   0.3137
  0.3143   0.3150   0.3162   0.3170   0.3178   0.3180   0.3184   0.3196
  0.3211   0.3214   0.3225   0.3228   0.3244   0.3254   0.3257   0.3265
  0.3270   0.3279   0.3287   0.3293   0.3299   0.3305   0.3317   0.3330
  0.3342   0.3346   0.3352   0.3359   0.3364   0.3377   0.3391   0.3393
  0.3403   0.3411   0.3426   0.3431   0.3438   0.3447   0.3453   0.3459
  0.3470   0.3479   0.3485   0.3495   0.3496   0.3504   0.3517   0.3528
  0.3541   0.3550   0.3555   0.3560   0.3577   0.3578   0.3587   0.3589
  0.3598   0.3601   0.3615   0.3616   0.3637   0.3642   0.3644   0.3653
  0.3672   0.3679   0.3687   0.3693   0.3705   0.3707   0.3721   0.3726
  0.3731   0.3736   0.3757   0.3768   0.3769   0.3781   0.3796   0.3801
  0.3808   0.3814   0.3821   0.3831   0.3843   0.3845   0.3848   0.3857
  0.3866   0.3877   0.3896   0.3903   0.3917   0.3923   0.3932   0.3935
  0.3942   0.3946   0.3963   0.3967   0.3976   0.3982   0.3984   0.3993
  0.3996   0.4010   0.4018   0.4022   0.4031   0.4038   0.4061   0.4066
  0.4066   0.4079   0.4081   0.4094   0.4098   0.4114   0.4121   0.4130
  0.4148   0.4151   0.4169   0.4175   0.4187   0.4192   0.4207   0.4209
  0.4222   0.4233   0.4243   0.4249   0.4260   0.4269   0.4275   0.4289
  0.4302   0.4312   0.4320   0.4330   0.4343   0.4348   0.4363   0.4367
  0.4380   0.4389   0.4399   0.4415   0.4432   0.4443   0.4453   0.4461
  0.4465   0.4477   0.4492   0.4493   0.4509   0.4520   0.4534   0.4538
  0.4543   0.4558   0.4573   0.4578   0.4598   0.4605   0.4612   0.4634
  0.4642   0.4650   0.4661   0.4666   0.4684   0.4698   0.4713   0.4727
  0.4734   0.4745   0.4761   0.4770   0.4792   0.4809   0.4813   0.4837
  0.4851   0.4862   0.4874   0.4882   0.4898   0.4905   0.4909   0.4940
  0.4957   0.4963   0.4978   0.5000   0.5020   0.5026   0.5035   0.5066
  0.5083   0.5086   0.5110   0.5116   0.5125   0.5153   0.5168   0.5174
  0.5200   0.5213   0.5218   0.5244   0.5255   0.5271   0.5277   0.5291
  0.5327   0.5329   0.5340   0.5346   0.5353   0.5379   0.5390   0.5395
  0.5414   0.5439   0.5460   0.5475   0.5480   0.5492   0.5508   0.5527
  0.5532   0.5540   0.5561   0.5598   0.5607   0.5616   0.5625   0.5642
  0.5651   0.5671   0.5688   0.5706   0.5712   0.5732   0.5746   0.5759
  0.5773   0.5801   0.5810   0.5821   0.5824   0.5849   0.5851   0.5861
  0.5881   0.5897   0.5912   0.5932   0.5954   0.5960   0.5972   0.5983
  0.6002   0.6011   0.6032   0.6047   0.6066   0.6080   0.6089   0.6106
  0.6116   0.6128   0.6134   0.6160   0.6165   0.6179   0.6199   0.6205
  0.6214   0.6232   0.6237   0.6246   0.6257   0.6279   0.6284   0.6293
  0.6307   0.6317   0.6339   0.6346   0.6369   0.6382   0.6391   0.6401
  0.6411   0.6422   0.6428   0.6440   0.6443   0.6462   0.6469   0.6481
  0.6497   0.6506   0.6512   0.6520   0.6544   0.6552   0.6568   0.6580
  0.6587   0.6607   0.6614   0.6616   0.6624   0.6634   0.6639   0.6653
  0.6667   0.6678   0.6686   0.6691   0.6706   0.6715   0.6727   0.6742
  0.6753   0.6763   0.6769   0.6777   0.6790   0.6799   0.6814   0.6827
  0.6835   0.6847   0.6854   0.6873   0.6885   0.6896   0.6897   0.6909
  0.6919   0.6933   0.6955   0.6964   0.6967   0.6983   0.6986   0.6997
  0.7014   0.7039   0.7043   0.7057   0.7070   0.7073   0.7080   0.7098
  0.7111   0.7131   0.7132   0.7139   0.7147   0.7161   0.7176   0.7195
  0.7205   0.7216   0.7242   0.7245   0.7252   0.7261   0.7283   0.7292
  0.7304   0.7311   0.7320   0.7334   0.7345   0.7367   0.7389   0.7406
  0.7417   0.7427   0.7442   0.7456   0.7497   0.7504   0.7520   0.7523
  0.7556   0.7581   0.7586   0.7596   0.7610   0.7619   0.7634   0.7649
  0.7665   0.7667   0.7678   0.7684   0.7696   0.7729   0.7743   0.7756
  0.7768   0.7780   0.7801   0.7820   0.7846   0.7850   0.7869   0.7897
  0.7918   0.7929   0.7940   0.7950   0.7957   0.7982   0.7989   0.8012
  0.8032   0.8043   0.8068   0.8075   0.8087   0.8098   0.8121   0.8128
  0.8151   0.8153   0.8180   0.8195   0.8212   0.8225   0.8240   0.8248
  0.8273   0.8277   0.8299   0.8305   0.8321   0.8336   0.8354   0.8360
  0.8367   0.8374   0.8385   0.8403   0.8413   0.8428   0.8434   0.8454
  0.8458   0.8468   0.8490   0.8497   0.8509   0.8522   0.8538   0.8545
  0.8551   0.8562   0.8568   0.8585   0.8593   0.8607   0.8620   0.8633
  0.8648   0.8649   0.8682   0.8697   0.8711   0.8719   0.8732   0.8743
  0.8755   0.8770   0.8774   0.8794   0.8804   0.8812   0.8818   0.8831
  0.8851   0.8855   0.8867   0.8876   0.8886   0.8901   0.8922   0.8929
  0.8945   0.8948   0.8970   0.8983   0.9005   0.9015   0.9025   0.9037
  0.9050   0.9057   0.9073   0.9099   0.9111   0.9124   0.9139   0.9140
  0.9146   0.9155   0.9159   0.9168   0.9180   0.9188   0.9206   0.9217
  0.9232   0.9245   0.9247   0.9253   0.9270   0.9280   0.9288   0.9304
  0.9319   0.9326   0.9340   0.9344   0.9371   0.9372   0.9385   0.9397
  0.9398   0.9406   0.9413   0.9428   0.9442   0.9466   0.9471   0.9482
  0.9483   0.9494   0.9505   0.9519   0.9527   0.9543   0.9556   0.9565
  0.9577   0.9592   0.9608   0.9618   0.9631   0.9637   0.9642   0.9656
  0.9658   0.9669   0.9683   0.9686   0.9694   0.9714   0.9728   0.9741
  0.9755   0.9760   0.9768   0.9774   0.9776   0.9788   0.9804   0.9815
  0.9825   0.9836   0.9856   0.9864   0.9866   0.9879   0.9895   0.9905
  0.9910   0.9914   0.9931   0.9954   0.9962   0.9974   0.9978   0.9993
  1.0009   1.0020   1.0029   1.0055   1.0059   1.0074   1.0078   1.0091
  1.0098   1.0113   1.0127   1.0138   1.0147   1.0167   1.0176   1.0195
  1.0202   1.0214   1.0227   1.0237   1.0255   1.0269   1.0270   1.0281
  1.0296   1.0307   1.0318   1.0336   1.0345   1.0362   1.0368   1.0373
  1.0383   1.0393   1.0411   1.0427   1.0432   1.0450   1.0470   1.0485
  1.0503   1.0512   1.0514   1.0522   1.0540   1.0549   1.0570   1.0594
  1.0603   1.0613   1.0614   1.0636   1.0646   1.0672   1.0682   1.0689
  1.0708   1.0732   1.0734   1.0746   1.0770   1.0778   1.0787   1.0810
  1.0821   1.0831   1.0846   1.0851   1.0872   1.0893   1.0904   1.0922
  1.0932   1.0946   1.0954   1.0978   1.0982   1.0994   1.1002   1.1020
  1.1037   1.1048   1.1050   1.1065   1.1086   1.1097   1.1100   1.1118
  1.1129   1.1140   1.1155   1.1171   1.1187   1.1190   1.1207   1.1213
  1.1221   1.1233   1.1240   1.1259   1.1284   1.1302   1.1313   1.1318
  1.1333   1.1366   1.1376   1.1380   1.1393   1.1404   1.1422   1.1436
  1.1440   1.1444   1.1461   1.1476   1.1491   1.1507   1.1539   1.1543
  1.1553   1.1566   1.1578   1.1593   1.1606   1.1616   1.1626   1.1630
  1.1659   1.1668   1.1682   1.1685   1.1706   1.1715   1.1722   1.1735
  1.1742   1.1764   1.1785   1.1802   1.1814   1.1823   1.1848   1.1866
  1.1873   1.1887   1.1900   1.1914   1.1923   1.1935   1.1956   1.1963
  1.1990   1.1999   1.2010   1.2025   1.2046   1.2067   1.2080   1.2090
  1.2108   1.2128   1.2137   1.2154   1.2175   1.2191   1.2204   1.2223
  1.2262   1.2274   1.2283   1.2291   1.2296   1.2333   1.2339   1.2354
  1.2369   1.2387   1.2399   1.2425   1.2460   1.2474   1.2478   1.2505
  1.2522   1.2554   1.2561   1.2571   1.2606   1.2617   1.2651   1.2658
  1.2686   1.2715   1.2726   1.2758   1.2782   1.2789   1.2816   1.2823
  1.2853   1.2858   1.2893   1.2905   1.2937   1.2959   1.2968   1.3003
  1.3037   1.3054   1.3084   1.3097   1.3125   1.3159   1.3178   1.3204
  1.3217   1.3223   1.3262   1.3271   1.3277   1.3304   1.3316   1.3341
  1.3349   1.3366   1.3382   1.3399   1.3401   1.3422   1.3441   1.3444
  1.3473   1.3501   1.3509   1.3529   1.3559   1.3565   1.3589   1.3599
  1.3630   1.3655   1.3660   1.3672   1.3674   1.3694   1.3709   1.3734
  1.3737   1.3762   1.3779   1.3791   1.3798   1.3826   1.3845   1.3847
  1.3857   1.3863   1.3895   1.3901   1.3916   1.3960   1.3963   1.3984
  1.3988   1.4002   1.4004   1.4020   1.4044   1.4069   1.4082   1.4100
  1.4113   1.4117   1.4127   1.4135   1.4155   1.4163   1.4187   1.4194
  1.4205   1.4224   1.4227   1.4248   1.4272   1.4273   1.4291   1.4313
  1.4324   1.4338   1.4367   1.4371   1.4385   1.4408   1.4422   1.4449
  1.4455   1.4482   1.4490   1.4511   1.4539   1.4557   1.4572   1.4578
  1.4600   1.4620   1.4633   1.4647   1.4668   1.4677   1.4700   1.4728
  1.4746   1.4757   1.4766   1.4795   1.4812   1.4820   1.4843   1.4860
  1.4886   1.4887   1.4924   1.4931   1.4951   1.4960   1.4982   1.5000
  1.5005   1.5041   1.5076   1.5088   1.5098   1.5113   1.5117   1.5167
  1.5215   1.5236   1.5248   1.5261   1.5268   1.5306   1.5326   1.5341
  1.5355   1.5383   1.5416   1.5447   1.5451   1.5493   1.5508   1.5537
  1.5557   1.5575   1.5627   1.5649   1.5677   1.5691   1.5718   1.5757
  1.5779   1.5818   1.5826   1.5859   1.5902   1.5928   1.5944   1.5969
  1.5996   1.6026   1.6064   1.6070   1.6170   1.6202   1.6216   1.6262
  1.6284   1.6346   1.6349   1.6364   1.6394   1.6434   1.6456   1.6494
  1.6510   1.6530   1.6546   1.6567   1.6580   1.6604   1.6618   1.6630
  1.6656   1.6670   1.6689   1.6703   1.6741   1.6753   1.6804   1.6810
  1.6829   1.6835   1.6848   1.6861   1.6884   1.6889   1.6906   1.6910
  1.6927   1.6948   1.6971   1.6974   1.7000   1.7016   1.7024   1.7049
  1.7053   1.7064   1.7072   1.7090   1.7094   1.7100   1.7112   1.7142
  1.7155   1.7163   1.7170   1.7183   1.7191   1.7201   1.7218   1.7225
  1.7250   1.7258   1.7276   1.7283   1.7305   1.7309   1.7318   1.7331
  1.7368   1.7389   1.7399   1.7413   1.7430   1.7440   1.7458   1.7463
  1.7467   1.7485   1.7489   1.7519   1.7533   1.7553   1.7558   1.7575
  1.7591   1.7602   1.7620   1.7629   1.7664   1.7673   1.7687   1.7696
  1.7723   1.7734   1.7759   1.7772   1.7785   1.7795   1.7811   1.7830
  1.7844   1.7874   1.7881   1.7903   1.7907   1.7925   1.7969   1.7977
  1.8001   1.8015   1.8032   1.8052   1.8075   1.8102   1.8114   1.8147
  1.8156   1.8195   1.8236   1.8256   1.8264   1.8291   1.8318   1.8338
  1.8348   1.8387   1.8410   1.8418   1.8437   1.8457   1.8461   1.8479
  1.8526   1.8533   1.8559   1.8585   1.8589   1.8622   1.8663   1.8671
  1.8701   1.8715   1.8727   1.8759   1.8775   1.8793   1.8804   1.8827
  1.8830   1.8843   1.8857   1.8875   1.8880   1.8893   1.8922   1.8932
  1.8947   1.8957   1.8983   1.8992   1.9008   1.9040   1.9065   1.9072
  1.9076   1.9086   1.9100   1.9112   1.9134   1.9141   1.9149   1.9160
  1.9183   1.9208   1.9217   1.9242   1.9261   1.9268   1.9288   1.9301
  1.9315   1.9328   1.9332   1.9345   1.9357   1.9364   1.9374   1.9390
  1.9416   1.9442   1.9449   1.9465   1.9493   1.9511   1.9515   1.9543
  1.9571   1.9576   1.9595   1.9636   1.9648   1.9684   1.9734   1.9802
  1.9815   1.9856   1.9872   1.9888   1.9981   2.0062   2.0120   2.0141
  2.0259   2.0342   2.0356   2.0363   2.0370   2.0389   2.0428   2.0464
  2.0479   2.0533   2.0539   2.0555   2.0565   2.0578   2.0592   2.0607
  2.0612   2.0626   2.0656   2.0663   2.0681   2.0702   2.0719   2.0727
  2.0743   2.0749   2.0759   2.0774   2.0797   2.0821   2.0823   2.0830
  2.0832   2.0856   2.0883   2.0912   2.0932   2.0955   2.0969   2.0997
  2.1010   2.1025   2.1039   2.1046   2.1056   2.1079   2.1104   2.1115
  2.1118   2.1148   2.1196   2.1208   2.1212   2.1248   2.1263   2.1279
  2.1299   2.1338   2.1346   2.1370   2.1378   2.1412   2.1427   2.1465
  2.1472   2.1509   2.1552   2.1555   2.1606   2.1650   2.1651   2.1718
  2.1745   2.1765   2.1806   2.1835   2.1853   2.1898   2.1931   2.1932
  2.1942   2.1982   2.2032   2.2038   2.2063   2.2072   2.2094   2.2106
  2.2123   2.2153   2.2155   2.2159   2.2184   2.2205   2.2214   2.2229
  2.2235   2.2241   2.2250   2.2270   2.2283   2.2291   2.2297   2.2324
  2.2334   2.2336   2.2351   2.2365   2.2375   2.2400   2.2417   2.2443
  2.2447   2.2463   2.2482   2.2484   2.2490   2.2505   2.2512   2.2529
  2.2533   2.2540   2.2550   2.2560   2.2571   2.2572   2.2589   2.2604
  2.2612   2.2620   2.2624   2.2647   2.2653   2.2662   2.2684   2.2698
  2.2702   2.2720   2.2731   2.2739   2.2752   2.2762   2.2775   2.2781
  2.2791   2.2795   2.2808   2.2818   2.2831   2.2834   2.2850   2.2857
  2.2865   2.2904   2.2909   2.2919   2.2924   2.2930   2.2935   2.2948
  2.2977   2.2995   2.3004   2.3014   2.3021   2.3035   2.3053   2.3066
  2.3076   2.3083   2.3091   2.3106   2.3116   2.3126   2.3149   2.3165
  2.3173   2.3181   2.3193   2.3201   2.3215   2.3227   2.3245   2.3251
  2.3265   2.3273   2.3293   2.3305   2.3315   2.3323   2.3332   2.3340
  2.3354   2.3357   2.3387   2.3411   2.3423   2.3432   2.3445   2.3462
  2.3479   2.3497   2.3508   2.3520   2.3533   2.3536   2.3570   2.3579
  2.3603   2.3613   2.3624   2.3640   2.3652   2.3664   2.3684   2.3709
  2.3718   2.3731   2.3750   2.3773   2.3788   2.3791   2.3818   2.3850
  2.3885   2.3894   2.3909   2.3937   2.3999   2.4023   2.4068   2.4081
  2.4111   2.4194   2.4349   2.4577   2.4712   2.4854   2.5207   2.5265
  2.5585   2.6106   2.6864   2.7418   2.7550   2.7977   2.8119   2.8175
  2.8188   2.8214   2.8224   2.8245   2.8279   2.8383   2.8395   2.8429
  2.8439   2.8456   2.8488   2.8554   2.8631   2.8644   2.8669   2.8698
  2.8735   2.8746   2.8754   2.8768   2.8831   2.8840   2.8850   2.8944
  2.8959   2.8990   2.9097   2.9132   2.9162   2.9222   3.0946   3.2611
  3.9366   3.9474   3.9515   3.9543   3.9579   3.9589   3.9655   3.9727
  3.9780   3.9811   3.9837   3.9863   3.9891   3.9937   3.9953   3.9999
  4.0040   4.0064   4.0073   4.0120   4.0154   4.0235   4.0289   4.0330
  4.0387   4.0427   4.0539   4.2102   4.2160   4.2245   4.2283   4.2303
  4.2343   4.2359   4.2389   4.2416   4.2440   4.2475   4.2490   4.2510
  4.2546   4.2575   4.2599   4.2642   4.2654   4.2659   4.2707   4.2749
  4.2806   4.2832   4.2850   4.2894   4.2936   4.2962   4.2981   4.3008
  4.3036   4.3039   4.3064   4.3089   4.3102   4.3152   4.3168   4.3218
  4.3246   4.3257   4.3286   4.3307   4.3323   4.3359   4.3401   4.3451
  4.3454   4.3480   4.3512   4.3514   4.3559   4.3580   4.3607   4.3658
  4.3689   4.3713   4.3739   4.3745   4.3823   4.3833   4.3878   4.3929
  4.3978   4.4022   4.4042   4.4115   4.4155   4.4230   4.4255   4.4336
  4.4358   4.4567   4.4612   4.4680   4.4779   4.4837   4.5043   4.5210
  4.5292   4.5333   4.5413   4.5646   4.5756   4.5898   4.6415   4.6803
  4.7119   4.7345   4.7517   4.7988   4.8873
 --------------------------------------------------------------
 
          Ground-State Mulliken Net Atomic Charges

     Atom                 Charge (a.u.)
  ----------------------------------------
      1 C                    -0.123239
      2 C                    -0.796132
      3 C                    -0.385336
      4 C                    -0.255167
      5 C                    -0.332842
      6 C                    -0.576333
      7 H                     0.241163
      8 H                     0.219861
      9 H                     0.239145
     10 H                     0.226744
     11 H                     0.185668
     12 H                     0.203915
     13 H                     0.220505
     14 H                     0.192060
     15 H                     0.211248
     16 H                     0.185100
     17 H                     0.174925
     18 N                    -0.210966
     19 H                     0.447428
     20 C                     0.339004
     21 H                     0.136017
     22 O                    -0.542767
     23 C                    -0.898091
     24 H                     0.288428
     25 H                     0.238955
     26 H                     0.233451
     27 S                     1.034602
     28 C                    -0.922544
     29 H                     0.245134
     30 H                     0.293914
     31 H                     0.263128
     32 O                    -0.645684
     33 C                    -0.788567
     34 H                     0.267054
     35 H                     0.228896
     36 H                     0.251241
     37 S                     0.696499
     38 C                    -0.798848
     39 H                     0.243108
     40 H                     0.257376
     41 H                     0.241636
     42 O                    -0.595051
     43 C                    -0.787426
     44 H                     0.253388
     45 H                     0.267963
     46 H                     0.267702
     47 S                     0.901821
     48 C                    -0.854912
     49 H                     0.252669
     50 H                     0.262334
     51 H                     0.233983
     52 O                    -0.742127
     53 C                    -0.744343
     54 H                     0.264787
     55 H                     0.276623
     56 H                     0.247583
     57 S                     0.670071
     58 C                    -0.744649
     59 H                     0.231353
     60 H                     0.268148
     61 H                     0.259511
     62 O                    -0.705200
     63 C                    -0.990988
     64 H                     0.293971
     65 H                     0.268668
     66 H                     0.251223
     67 S                     1.029533
     68 C                    -1.026000
     69 H                     0.293893
     70 H                     0.222402
     71 H                     0.269418
     72 O                    -0.668684
     73 C                    -0.893221
     74 H                     0.218429
     75 H                     0.254745
     76 H                     0.300985
     77 S                     1.247139
     78 C                    -0.988624
     79 H                     0.242171
     80 H                     0.270715
     81 H                     0.259111
     82 O                    -0.710253
     83 C                    -0.913576
     84 H                     0.274222
     85 H                     0.287706
     86 H                     0.237403
     87 S                     0.763317
     88 C                    -0.934704
     89 H                     0.261379
     90 H                     0.256679
     91 H                     0.274742
     92 O                    -0.631974
     93 C                    -0.985355
     94 H                     0.304472
     95 H                     0.242181
     96 H                     0.262558
     97 S                     0.904133
     98 C                    -0.824630
     99 H                     0.271173
    100 H                     0.322810
    101 H                     0.263593
    102 O                    -0.782723
    103 C                    -0.934502
    104 H                     0.272525
    105 H                     0.203505
    106 H                     0.287064
    107 S                     0.914582
    108 C                    -0.848608
    109 H                     0.285244
    110 H                     0.238288
    111 H                     0.276182
    112 O                    -0.772337
    113 C                    -0.789071
    114 H                     0.234089
    115 H                     0.233841
    116 H                     0.316471
    117 S                     0.809610
    118 C                    -0.913456
    119 H                     0.270719
    120 H                     0.248958
    121 H                     0.228959
    122 O                    -0.646915
    123 C                    -1.080528
    124 H                     0.251569
    125 H                     0.289998
    126 H                     0.232472
    127 S                     0.701271
    128 C                    -0.865956
    129 H                     0.226158
    130 H                     0.278119
    131 H                     0.287214
    132 O                    -0.666407
    133 C                    -0.909086
    134 H                     0.292621
    135 H                     0.256466
    136 H                     0.242632
    137 S                     0.985253
    138 C                    -0.873657
    139 H                     0.249735
    140 H                     0.255633
    141 H                     0.237181
    142 O                    -0.749424
    143 C                    -0.786339
    144 H                     0.287379
    145 H                     0.223323
    146 H                     0.320080
    147 S                     0.578318
    148 C                    -0.805660
    149 H                     0.251925
    150 H                     0.249242
    151 H                     0.241889
    152 O                    -0.589248
    153 C                    -0.793663
    154 H                     0.231331
    155 H                     0.258057
    156 H                     0.244145
    157 S                     0.887503
    158 C                    -0.801409
    159 H                     0.231571
    160 H                     0.254923
    161 H                     0.286983
    162 O                    -0.619128
    163 C                    -0.944331
    164 H                     0.294614
    165 H                     0.295864
    166 H                     0.255529
    167 S                     0.990974
    168 C                    -0.863011
    169 H                     0.244907
    170 H                     0.251086
    171 H                     0.260428
    172 O                    -0.653809
    173 C                    -0.901759
    174 H                     0.230413
    175 H                     0.259288
    176 H                     0.259975
    177 S                     0.679248
    178 C                    -0.811483
    179 H                     0.274651
    180 H                     0.234630
    181 H                     0.268751
    182 O                    -0.653071
    183 C                    -0.595406
    184 H                     0.317939
    185 H                     0.240706
    186 H                     0.280280
    187 S                    -0.088082
    188 C                    -0.350469
    189 H                     0.305733
    190 H                     0.262044
    191 H                     0.232130
    192 O                    -0.616588
    193 C                    -0.887786
    194 H                     0.262911
    195 H                     0.266068
    196 H                     0.229159
    197 S                     0.918169
    198 C                    -0.886799
    199 H                     0.262840
    200 H                     0.257150
    201 H                     0.224882
    202 O                    -0.711919
    203 C                    -1.059466
    204 H                     0.289723
    205 H                     0.247074
    206 H                     0.275155
    207 S                     0.973861
    208 C                    -0.861800
    209 H                     0.249934
    210 H                     0.254914
    211 H                     0.259174
    212 O                    -0.711249
    213 C                    -0.962174
    214 H                     0.261015
    215 H                     0.240744
    216 H                     0.247403
    217 S                     1.114260
    218 C                    -0.904264
    219 H                     0.257485
    220 H                     0.260441
    221 H                     0.236588
    222 O                    -0.698968
    223 C                    -0.898639
    224 H                     0.290745
    225 H                     0.241007
    226 H                     0.265576
    227 S                     0.842860
    228 C                    -0.837070
    229 H                     0.237270
    230 H                     0.338614
    231 H                     0.234869
    232 O                    -0.771839
    233 C                    -0.718496
    234 H                     0.277662
    235 H                     0.247308
    236 H                     0.225979
    237 S                     0.833326
    238 C                    -0.823973
    239 H                     0.295792
    240 H                     0.252464
    241 H                     0.242167
    242 O                    -0.598986
    243 C                    -1.226884
    244 H                     0.246637
    245 H                     0.264964
    246 H                     0.288759
    247 S                     1.369412
    248 C                    -1.006653
    249 H                     0.262899
    250 H                     0.270118
    251 H                     0.276275
    252 O                    -0.731636
    253 C                    -0.912797
    254 H                     0.232946
    255 H                     0.257804
    256 H                     0.255179
    257 S                     0.953763
    258 C                    -0.886439
    259 H                     0.286714
    260 H                     0.258750
    261 H                     0.242415
    262 O                    -0.737742
    263 C                    -0.915624
    264 H                     0.288325
    265 H                     0.243180
    266 H                     0.213927
    267 S                     0.971746
    268 C                    -0.886455
    269 H                     0.280694
    270 H                     0.242223
    271 H                     0.271999
    272 O                    -0.727147
    273 C                    -0.757469
    274 H                     0.249231
    275 H                     0.271386
    276 H                     0.267273
    277 S                     0.539132
    278 C                    -0.642316
    279 H                     0.238141
    280 H                     0.249420
    281 H                     0.272426
    282 O                    -0.693888
    283 C                    -0.806584
    284 H                     0.252110
    285 H                     0.222810
    286 H                     0.274066
    287 S                     0.964026
    288 C                    -0.819253
    289 H                     0.260952
    290 H                     0.237269
    291 H                     0.265282
    292 O                    -0.753290
  ----------------------------------------
  Sum of atomic charges =     0.000000

 -----------------------------------------------------------------
                    Cartesian Multipole Moments
 -----------------------------------------------------------------
    Charge (ESU x 10^10)
                 0.0000
    Dipole Moment (Debye)
         X     -22.5449      Y      24.7545      Z      26.1751
       Tot      42.4993
    Quadrupole Moments (Debye-Ang)
        XX   -1849.4346     XY      46.2283     YY     476.6445
        XZ     193.5397     YZ    1414.3217     ZZ     303.6334
    Octopole Moments (Debye-Ang^2)
       XXX  -95763.6063    XXY  -34163.1419    XYY   -1389.8579
       YYY  -19412.0799    XXZ  -25957.9697    XYZ   23837.5928
       YYZ   34994.4041    XZZ     117.0447    YZZ   26190.7952
       ZZZ  -28344.9283
    Hexadecapole Moments (Debye-Ang^3)
      XXXX ************   XXXY ************   XXYY ************
      XYYY -743200.2630   YYYY ************   XXXZ ************
      XXYZ -253107.5550   XYYZ  619768.4523   YYYZ  157627.0525
      XXZZ -730814.7131   XYZZ  482933.0861   YYZZ  580235.3440
      XZZZ -760119.8716   YZZZ -365824.2220   ZZZZ ************
 -----------------------------------------------------------------
Archival summary:
[...]
    2   0.0059629   0.0334681  -0.0265774   0.0104819  -0.0381117   0.0075739
    3  -0.0003037  -0.0146627   0.0024643   0.0296046   0.0377939  -0.0001126
          139         140         141         142         143         144
    1   0.0071138   0.0307723  -0.0190448  -0.0109373   0.0068178   0.0064577
    2   0.0093905  -0.0082684   0.0182952  -0.0217180   0.0050219   0.0209463
    3   0.0335484  -0.0004458  -0.0216512  -0.1072564   0.0028596  -0.0283699
          145         146         147         148         149         150
    1  -0.0048295   0.0335556  -0.0004715  -0.0057281   0.0087925  -0.0111408
    2   0.0105619   0.0072641  -0.0177331   0.0019903   0.0149325   0.0196928
    3   0.0298038  -0.0106205  -0.0594309   0.0040794   0.0283466  -0.0230894
          151         152         153         154         155         156
    1  -0.0181832   0.0338513  -0.0029475  -0.0302649   0.0165666  -0.0031777
    2  -0.0269098  -0.0682618  -0.0031397   0.0148590  -0.0097466  -0.0324597
    3  -0.0005493   0.0794480  -0.0022931   0.0002485  -0.0241243   0.0037346
          157         158         159         160         161         162
    1  -0.0118209   0.0024260   0.0024049  -0.0207763   0.0299525   0.0928789
    2   0.0076268   0.0081315  -0.0059680   0.0215765   0.0148612  -0.0416300
    3   0.0536740  -0.0052089  -0.0297634   0.0144099   0.0018532  -0.0417996
          163         164         165         166         167         168
    1   0.0102697  -0.0044708   0.0074280   0.0303737  -0.0045546  -0.0057934
    2  -0.0035307  -0.0275469   0.0264260  -0.0163420  -0.0525344   0.0016918
    3  -0.0108362  -0.0204927  -0.0151382  -0.0043668   0.0252395  -0.0048234
          169         170         171         172         173         174
    1  -0.0163076  -0.0176316   0.0073745   0.0263513  -0.0070826   0.0153184
    2  -0.0262058   0.0203085   0.0058566   0.0905060   0.0050724   0.0111980
    3  -0.0142837   0.0181815  -0.0283713   0.0544084  -0.0036963  -0.0274539
          175         176         177         178         179         180
    1  -0.0285147  -0.0138362   0.0526835  -0.0052150   0.0169180   0.0035291
    2  -0.0062092   0.0158335   0.0163168  -0.0006321   0.0086092  -0.0319145
    3  -0.0098966   0.0249793   0.0112988  -0.0088364  -0.0340707  -0.0047655
          181         182         183         184         185         186
    1  -0.0253417  -0.0682042  -0.0043761   0.0073610  -0.0263413  -0.0003865
    2  -0.0210198  -0.0433692  -0.0051594  -0.0290582   0.0033317   0.0097031
    3  -0.0239725   0.0746537  -0.0058735  -0.0013409   0.0134855  -0.0336082
          187         188         189         190         191         192
    1   0.0546174   0.0003553   0.0112908   0.0108133  -0.0265003  -0.0338284
    2  -0.0020819  -0.0066043  -0.0286818   0.0187479  -0.0084164   0.1043478
    3  -0.0336338   0.0065768  -0.0017215   0.0159003   0.0226537   0.0096177
          193         194         195         196         197         198
    1   0.0018644   0.0255205   0.0219821  -0.0188571  -0.0333903  -0.0011414
    2  -0.0036627  -0.0114075   0.0222318  -0.0188537   0.0357971  -0.0083662
    3   0.0059161  -0.0137039   0.0110968   0.0252563   0.0118807  -0.0037123
          199         200         201         202         203         204
    1  -0.0131378   0.0257417  -0.0137291   0.0863897   0.0009462  -0.0318225
    2   0.0150237  -0.0203335  -0.0210683   0.0149042   0.0076052  -0.0152135
    3  -0.0312278  -0.0021488   0.0277475  -0.0690684  -0.0041184  -0.0044885
          205         206         207         208         209         210
    1   0.0008388   0.0253098  -0.0388964   0.0063086   0.0272233  -0.0122045
    2   0.0206852   0.0118084  -0.0350789   0.0032689   0.0197042   0.0130668
    3   0.0209611  -0.0223019   0.0375973   0.0028918  -0.0123811   0.0290001
          211         212         213         214         215         216
    1   0.0277078   0.0345099  -0.0016255  -0.0317792   0.0289531  -0.0061634
    2  -0.0188148  -0.0485668   0.0087296  -0.0032009  -0.0052496   0.0342008
    3   0.0000476  -0.0935166   0.0038243   0.0077821   0.0180581  -0.0048921
          217         218         219         220         221         222
    1   0.0209527   0.0056332   0.0313294  -0.0051845  -0.0026229  -0.0954688
    2  -0.0596547   0.0035044  -0.0146928  -0.0037713   0.0340442   0.0078371
    3   0.0163507  -0.0040659  -0.0022547  -0.0292846  -0.0060274  -0.0560802
          223         224         225         226         227         228
    1   0.0004406   0.0199451  -0.0089772  -0.0165865  -0.0386631   0.0086512
    2   0.0063905   0.0171298  -0.0272715   0.0344842  -0.0129308   0.0057396
    3  -0.0050392  -0.0163011  -0.0162631   0.0074795   0.0313688  -0.0012866
          229         230         231         232         233         234
    1   0.0017749   0.0274343  -0.0067772   0.0772216  -0.0038247  -0.0150199
    2  -0.0030160  -0.0065077   0.0281615  -0.0696567  -0.0053688  -0.0216707
    3   0.0325640  -0.0163339  -0.0092789  -0.0373778   0.0064816   0.0231117
          235         236         237         238         239         240
    1   0.0252303  -0.0045424   0.0281231  -0.0073923  -0.0055844  -0.0121075
    2  -0.0150649   0.0249493   0.0406365   0.0004378   0.0029368  -0.0155774
    3   0.0088338   0.0205516  -0.0277573   0.0000112  -0.0315710   0.0271641
          241         242         243         244         245         246
    1  -0.0208081   0.0007653  -0.0087879   0.0256457  -0.0282457  -0.0150757
    2   0.0338962  -0.1086520  -0.0046062  -0.0256011   0.0059956   0.0051691
    3  -0.0024556  -0.0246956   0.0016016   0.0092351   0.0195200  -0.0281636
          247         248         249         250         251         252
    1   0.0422938  -0.0074741  -0.0033939   0.0116508  -0.0324831   0.0222981
    2  -0.0074168   0.0056008   0.0114305   0.0278012   0.0000424  -0.0051893
    3   0.0410750  -0.0006227   0.0283917  -0.0005792  -0.0114497  -0.1075420
          253         254         255         256         257         258
    1  -0.0067948   0.0032945  -0.0175898  -0.0080176   0.0409812   0.0012328
    2   0.0019040   0.0143857   0.0169988  -0.0271032  -0.0196673   0.0100599
    3   0.0045537   0.0338624  -0.0256392   0.0147200   0.0276983  -0.0038260
          259         260         261         262         263         264
    1   0.0265520  -0.0232427   0.0028300  -0.0399746  -0.0079192  -0.0233077
    2  -0.0043350   0.0100751   0.0248468  -0.0451680   0.0011305  -0.0056841
    3  -0.0221570  -0.0170151   0.0255896  -0.0920404   0.0027703  -0.0239665
          265         266         267         268         269         270
    1   0.0021403   0.0023454   0.0472512  -0.0028580  -0.0256357   0.0097757
    2  -0.0248876   0.0146082  -0.0081507   0.0058590   0.0176832   0.0211307
    3   0.0169544   0.0328765   0.0195687  -0.0028411   0.0049950   0.0241262
          271         272         273         274         275         276
    1   0.0052339  -0.0473615  -0.0064214  -0.0347945  -0.0088042   0.0030916
    2   0.0054435  -0.0624637  -0.0019668  -0.0042169   0.0157305  -0.0274454
    3  -0.0319281  -0.0784042  -0.0056541   0.0048267  -0.0239492  -0.0085295
          277         278         279         280         281         282
    1  -0.0012446  -0.0061757  -0.0310879   0.0164982  -0.0109285   0.0894452
    2  -0.0355339   0.0072557   0.0033809   0.0145471   0.0235041   0.0332158
    3   0.0465521  -0.0020453   0.0093191   0.0209735  -0.0206230  -0.0512460
          283         284         285         286         287         288
    1  -0.0021486  -0.0297860   0.0049520  -0.0051170   0.0023160   0.0051650
    2   0.0031512   0.0072317   0.0433539  -0.0039481   0.0043173   0.0008527
    3  -0.0016316   0.0096742  -0.0076662  -0.0276424   0.0497462   0.0014773
          289         290         291         292
    1   0.0059806   0.0318137   0.0139322  -0.0465850
    2   0.0087237   0.0313413  -0.0285423  -0.0830510
    3  -0.0276300   0.0052304  -0.0072657  -0.0556162
  --- DONE ESP SUMMARY ---
Archival summary:
1\1\n0077.mhg0\SP\ProcedureUnspecified\6-31+G*\272754h22\ymao\FriMar1216:25:202021FriMar1216:25:202021\0\\#,ProcedureUnspecified,6-31+G*,\\0,1\S\O,1,1.49667\C,1,1.80729,2,105.72\H,3,1.09275,1,114.434,2,-51.2798,0\H,3,1.0929,1,108.106,2,-171.979,0\H,3,1.09362,1,100.567,2,72.4712,0\C,1,1.80776,2,105.679,3,108.424,0\H,7,1.0927,1,109.467,2,-169.289,0\H,7,1.09292,1,110.816,2,-38.1532,0\H,7,1.09325,1,103.994,2,75.3623,0\Gh,2,2.16166,1,84.3404,3,132.123,0\Gh,11,1.01321,2,170.699,1,78.3179,0\Gh,12,1.37836,11,113.651,2,174.355,0\Gh,13,1.10503,12,111.499,11,10.2937,0\Gh,13,1.21879,12,124.745,11,-175.448,0\Gh,12,1.46278,11,114.735,2,10.5965,0\Gh,16,1.09717,12,109.295,11,168.553,0\Gh,16,1.53721,12,107.224,11,-78.1492,0\Gh,18,1.0969,16,124.55,12,-65.887,0\Gh,18,1.09703,16,108.169,12,61.3156,0\Gh,16,1.53748,12,111.793,11,45.3668,0\Gh,21,1.0964,16,107.842,12,68.1862,0\Gh,21,1.09679,16,110.026,12,-41.2462,0\Gh,21,1.5369,16,113.343,12,-170.014,0\Gh,24,1.09711,21,104.951,16,-70.9795,0\Gh,24,1.09715,21,116.217,16,168.05,0\Gh,24,1.53699,21,112.818,16,47.4472,0\Gh,27,1.09642,24,115.686,21,71.1467,0\Gh,27,1.09755,24,108.356,21,-177.486,0\Gh,18,1.53793,16,110.737,12,178.375,0\Gh,30,1.0965,18,110.896,16,60.5011,0\Gh,30,1.09664,18,115.058,16,-179.323,0\H,32,2.10319,30,136.412,18,-106.012,0\C,33,1.09348,32,135.326,30,-41.505,0\H,34,1.09303,33,107.185,32,4.01445,0\H,34,1.09319,33,110.164,32,-122.132,0\S,34,1.80677,33,105.944,32,118.577,0\O,37,1.49728,34,109.622,33,170.204,0\C,37,1.80649,34,98.0717,33,58.6577,0\H,39,1.09242,37,107.635,34,-177.265,0\H,39,1.09291,37,98.9997,34,-71.1767,0\H,39,1.09349,37,108.67,34,54.8868,0\H,31,2.1754,30,146.27,18,46.9089,0\C,43,1.09333,31,131.955,30,-71.3836,0\H,44,1.09311,43,105.9,31,-159.202,0\H,44,1.09329,43,110.408,31,-42.9072,0\S,44,1.80642,43,112.573,31,71.8743,0\O,47,1.49705,44,105.58,43,35.0747,0\C,47,1.80633,44,100.858,43,141.66,0\H,49,1.09269,47,112.312,44,90.8566,0\H,49,1.09287,47,107.668,44,-149.123,0\H,49,1.09348,47,108.228,44,-23.511,0\H,22,2.21376,21,125.515,16,99.7798,0\C,53,1.09323,22,170.773,21,1.00091,0\H,54,1.09265,53,119.771,22,-97.2839,0\H,54,1.09314,53,104.255,22,36.7888,0\S,54,1.80651,53,105.014,22,140.6,0\O,57,1.49707,54,99.0616,53,-88.7708,0\C,57,1.80713,54,103.655,53,167.957,0\H,59,1.09274,57,110.279,54,-66.6056,0\H,59,1.09363,57,110.044,54,50.9182,0\H,59,1.09383,57,109.385,54,172.219,0\H,55,2.12355,54,171.172,53,57.7286,0\C,63,1.09232,55,114.214,54,29.7924,0\H,64,1.093,63,104.686,55,-101.703,0\H,64,1.09331,63,115.143,55,139.337,0\S,64,1.80773,63,117.442,55,14.9555,0\O,67,1.49672,64,104.867,63,-167.639,0\C,67,1.80713,64,99.5285,63,91.8019,0\H,69,1.09282,67,119.203,64,49.9326,0\H,69,1.09288,67,101.388,64,169.158,0\H,69,1.09293,67,106.084,64,-81.1505,0\H,28,2.21405,27,130.886,24,56.8806,0\C,73,1.09292,28,151.222,27,124.403,0\H,74,1.09288,73,106.984,28,-173.259,0\H,74,1.09315,73,108.213,28,-54.1939,0\S,74,1.80709,73,106.597,28,61.0897,0\O,77,1.49697,74,99.7837,73,-50.8926,0\C,77,1.80682,74,94.6063,73,-150.964,0\H,79,1.09301,77,111.551,74,-60.0778,0\H,79,1.09307,77,103.723,74,-174.685,0\H,79,1.09353,77,108.025,74,61.2656,0\H,20,2.25842,18,105.181,16,-135.25,0\C,83,1.09332,20,151.932,18,-8.10676,0\H,84,1.09282,83,108.043,20,35.6957,0\H,84,1.09299,83,112.811,20,-88.5253,0\S,84,1.80666,83,101.675,20,163.739,0\O,87,1.49716,84,105.217,83,28.8269,0\C,87,1.80708,84,94.8504,83,-80.6486,0\H,89,1.0923,87,105.223,84,-85.0367,0\H,89,1.09271,87,111.834,84,41.2898,0\H,89,1.09282,87,107.365,84,160.928,0\H,14,2.27863,13,155.163,12,-51.2168,0\C,93,1.0926,14,139.713,13,80.4974,0\H,94,1.09315,93,112.559,14,-74.144,0\H,94,1.09318,93,113.602,14,64.8046,0\S,94,1.80711,93,103.397,14,176.667,0\O,97,1.49749,94,107.275,93,175.441,0\C,97,1.80704,94,97.5155,93,69.079,0\H,99,1.09297,97,104.745,94,171.024,0\H,99,1.09311,97,113.684,94,53.1959,0\H,99,1.09341,97,109.992,94,-76.1722,0\H,40,2.28421,39,111.808,37,67.1564,0\C,103,1.09326,40,103.545,39,-161.357,0\H,104,1.09225,103,117.727,40,172.246,0\H,104,1.09292,103,109.297,40,50.4969,0\S,104,1.80688,103,108.473,40,-68.3894,0\O,107,1.4969,104,106.73,103,65.1668,0\C,107,1.80692,104,92.7232,103,-29.8067,0\H,109,1.09258,107,107.315,104,66.5833,0\H,109,1.09275,107,107.904,104,-46.5714,0\H,109,1.09324,107,110.701,104,-176.594,0\H,76,2.28754,74,124.864,73,-126.657,0\C,113,1.09243,76,112.941,74,-137.429,0\H,114,1.0934,113,105.619,76,90.3091,0\H,114,1.09357,113,117.383,76,-28.5,0\S,114,1.80629,113,108.074,76,-155.507,0\O,117,1.49725,114,97.498,113,85.9914,0\C,117,1.80804,114,96.3759,113,-171.909,0\H,119,1.09233,117,112.584,114,67.2437,0\H,119,1.0927,117,114.859,114,-177.786,0\H,119,1.09278,117,107.491,114,-62.9256,0\H,9,2.29914,7,146.355,1,34.3791,0\C,123,1.09312,9,123.531,7,-155.776,0\H,124,1.09212,123,103.805,9,126.051,0\H,124,1.09397,123,108.613,9,-113.118,0\S,124,1.80635,123,118.301,9,6.65389,0\O,127,1.49703,124,101.339,123,-75.2233,0\C,127,1.80643,124,93.8213,123,178.483,0\H,129,1.09283,127,104.05,124,-66.8154,0\H,129,1.09306,127,118.398,124,52.5008,0\H,129,1.09355,127,109.336,124,172.295,0\H,8,2.3073,7,100.062,1,120.791,0\C,133,1.09356,8,103.94,7,-159.917,0\H,134,1.09231,133,108.195,8,113.003,0\H,134,1.09269,133,114.704,8,-7.05848,0\S,134,1.80777,133,109.041,8,-124.914,0\O,137,1.49661,134,98.0343,133,135.075,0\C,137,1.80712,134,96.2989,133,31.9474,0\H,139,1.09186,137,104.267,134,-77.8929,0\H,139,1.09294,137,112.28,134,167.181,0\H,139,1.09318,137,107.433,134,46.8599,0\H,142,2.21451,139,138.335,137,83.4333,0\C,143,1.09283,142,128.087,139,-103.12,0\H,144,1.09264,143,116.837,142,70.736,0\H,144,1.09334,143,111.183,142,-57.2986,0\S,144,1.80646,143,108.263,142,-175.522,0\O,147,1.49717,144,101.083,143,150.294,0\C,147,1.80705,144,94.8355,143,48.1679,0\H,149,1.09223,147,112.119,144,25.9162,0\H,149,1.09286,147,114.273,144,149.131,0\H,149,1.09333,147,103.418,144,-93.1233,0\H,152,2.09276,149,129.104,147,-120.376,0\C,153,1.09272,152,121.543,149,-69.1224,0\H,154,1.0932,153,93.8917,152,-141.744,0\H,154,1.09348,153,116.733,152,109.528,0\S,154,1.80713,153,122.443,152,-29.4858,0\O,157,1.4968,154,100.617,153,111.519,0\C,157,1.8071,154,102.678,153,-143.957,0\H,159,1.09263,157,107.951,154,-141.396,0\H,159,1.09288,157,111.562,154,-18.9738,0\H,159,1.09324,157,108.846,154,99.3307,0\H,29,2.32338,27,143.493,24,-69.0989,0\C,163,1.09251,29,113.383,27,82.895,0\H,164,1.09276,163,106.811,29,147.321,0\H,164,1.09385,163,106.845,29,-95.0794,0\S,164,1.80658,163,117.742,29,24.8824,0\O,167,1.49742,164,101.421,163,94.3782,0\C,167,1.80717,164,95.9485,163,-154.767,0\H,169,1.09272,167,108.393,164,76.5747,0\H,169,1.09293,167,104.478,164,-41.1741,0\H,169,1.09313,167,109.167,164,-157.048,0\H,96,2.37046,94,136.979,93,88.6805,0\C,173,1.09328,96,145.28,94,160.63,0\H,174,1.0926,173,102.809,96,-129.05,0\H,174,1.09331,173,105.729,96,110.447,0\S,174,1.8063,173,115.048,96,-12.5234,0\O,177,1.49752,174,106.761,173,50.2242,0\C,177,1.80669,174,93.3254,173,-55.4889,0\H,179,1.09265,177,107.559,174,169.523,0\H,179,1.09295,177,114.995,174,59.4925,0\H,179,1.09312,177,111.503,174,-67.9433,0\H,53,2.37388,22,70.1021,21,-143.996,0\C,183,1.09242,53,158.918,22,123.47,0\H,184,1.09225,183,111.295,53,-136.43,0\H,184,1.09386,183,102.364,53,103.477,0\S,184,1.80716,183,105.397,53,-8.17871,0\O,187,1.49658,184,105.986,183,76.5128,0\C,187,1.80771,184,97.4277,183,-177.16,0\H,189,1.09289,187,107.739,184,176.611,0\H,189,1.09335,187,102.614,184,64.0422,0\H,189,1.09391,187,107.741,184,-55.6118,0\H,90,2.38964,89,102.225,87,165.162,0\C,193,1.09344,90,140.482,89,-8.50317,0\H,194,1.09257,193,109.755,90,-97.6266,0\H,194,1.09308,193,110.666,90,30.3668,0\S,194,1.80728,193,108.844,90,150.32,0\O,197,1.49693,194,103.972,193,77.8879,0\C,197,1.80673,194,94.4171,193,-179.545,0\H,199,1.09242,197,101.35,194,-56.1692,0\H,199,1.09339,197,111.184,194,-172.818,0\H,199,1.09353,197,111.881,194,63.2131,0\H,198,2.18588,197,118.486,194,16.4318,0\C,203,1.09255,198,152.747,197,93.134,0\H,204,1.09291,203,110.841,198,-145.242,0\H,204,1.09309,203,108.511,198,-19.5056,0\S,204,1.80712,203,106.103,198,92.6643,0\O,207,1.4966,204,99.8088,203,-159.409,0\C,207,1.80731,204,97.7048,203,-59.0664,0\H,209,1.09211,207,110.803,204,-43.5727,0\H,209,1.09302,207,114.074,204,-151.706,0\H,209,1.09331,207,109.433,204,75.8168,0\H,203,2.10335,198,81.8466,197,-78.2097,0\C,213,1.09331,203,135.411,198,179.541,0\H,214,1.09313,213,110.899,203,43.4212,0\H,214,1.09383,213,112.942,203,-67.4894,0\S,214,1.80707,213,110.875,203,157.577,0\O,217,1.49661,214,104.046,213,-151.796,0\C,217,1.8069,214,99.7022,213,-36.8099,0\H,219,1.09242,217,109.945,214,75.7532,0\H,219,1.09272,217,106.781,214,-43.0575,0\H,219,1.0935,217,104.994,214,-169.453,0\H,95,2.39411,94,146.102,93,-10.795,0\C,223,1.09333,95,159.607,94,-153.026,0\H,224,1.0932,223,108.831,95,-98.18,0\H,224,1.09321,223,110.741,95,148.055,0\S,224,1.80728,223,107.272,95,21.0376,0\O,227,1.49702,224,109.325,223,77.1748,0\C,227,1.80693,224,91.0528,223,-171.745,0\H,229,1.09249,227,111.137,224,-151.276,0\H,229,1.09306,227,112.968,224,-27.9289,0\H,229,1.09325,227,103.66,224,93.9942,0\H,226,2.32069,224,126.781,223,-61.3545,0\C,233,1.09333,226,142.272,224,127.204,0\H,234,1.0926,233,111.239,226,-64.1314,0\H,234,1.09352,233,113.534,226,167.56,0\S,234,1.80663,233,101.289,226,45.6774,0\O,237,1.49758,234,99.2604,233,-50.1701,0\C,237,1.80684,234,99.3392,233,53.9553,0\H,239,1.09265,237,111.725,234,-38.7134,0\H,239,1.09311,237,109.742,234,-156.011,0\H,239,1.09343,237,100.973,234,80.1687,0\H,241,2.16097,239,119.324,237,104.945,0\C,243,1.09348,241,102.854,239,-145.742,0\H,244,1.09275,243,108.324,241,-67.5328,0\H,244,1.09314,243,105.493,241,64.4839,0\S,244,1.80729,243,106.802,241,175.046,0\O,247,1.49692,244,109.74,243,-55.5457,0\C,247,1.80701,244,94.2145,243,51.6739,0\H,249,1.0924,247,112.238,244,65.5329,0\H,249,1.09318,247,109.677,244,-172.684,0\H,249,1.09347,247,111.998,244,-58.3111,0\H,60,2.41941,59,121.148,57,-86.008,0\C,253,1.09291,60,148.655,59,84.5346,0\H,254,1.09282,253,114.634,60,-170.58,0\H,254,1.09346,253,112.464,60,66.125,0\S,254,1.80613,253,102.959,60,-47.0751,0\O,257,1.49764,254,103.53,253,-39.5055,0\C,257,1.80685,254,105.917,253,-151.03,0\H,259,1.09233,257,116.367,254,-80.6809,0\H,259,1.09235,257,109.634,254,159.545,0\H,259,1.09284,257,105.596,254,40.7456,0\H,68,2.54951,67,160.457,64,175.697,0\C,263,1.09325,68,147.682,67,67.3938,0\H,264,1.09232,263,104.138,68,93.6443,0\H,264,1.09285,263,114.335,68,-144.165,0\S,264,1.80667,263,106.15,68,-24.8568,0\O,267,1.49712,264,111.467,263,-169.338,0\C,267,1.80661,264,103.593,263,-58.3641,0\H,269,1.09299,267,113.439,264,176.051,0\H,269,1.093,267,107.447,264,-62.0167,0\H,269,1.0935,267,100.245,264,53.09,0\H,210,2.61543,209,166.476,207,122.981,0\C,273,1.09301,210,125.533,209,161.481,0\H,274,1.0921,273,117.61,210,36.5603,0\H,274,1.09298,273,103.101,210,-98.8947,0\S,274,1.80722,273,103.693,210,157.608,0\O,277,1.49732,274,99.9915,273,-60.6718,0\C,277,1.80664,274,98.6442,273,-157.991,0\H,279,1.09236,277,103.671,274,65.5443,0\H,279,1.09278,277,100.372,274,-58.1775,0\H,279,1.09351,277,105.404,274,-174.975,0\O,166,2.65998,164,131.034,163,-130.079,0\S,283,1.49675,166,133.903,164,62.0589,0\C,284,1.80711,283,112.163,166,107.337,0\H,285,1.09281,284,107.964,283,150.417,0\H,285,1.09325,284,105.575,283,-92.885,0\H,285,1.09373,284,116.557,283,33.6169,0\C,284,1.8076,283,105.145,166,-150.926,0\H,289,1.09263,284,107.515,283,60.8208,0\H,289,1.0927,284,106.925,283,179.557,0\H,289,1.09344,284,107.429,283,-53.6798,0\\\@

 Total job time:  80.21s(wall), 257.36s(cpu) 
 Fri Mar 12 16:25:20 2021

        *************************************************************
        *                                                           *
        *  Thank you very much for using Q-Chem.  Have a nice day.  *
        *                                                           *
        *************************************************************


