                  Welcome to Q-Chem
     A Quantum Leap Into The Future Of Chemistry


 Q-Chem 5.2 (devel), Q-Chem, Inc., Pleasanton, CA (2019)

 Yihan Shao,  Zhengting Gan,  E. Epifanovsky,  A. T. B. Gilbert,  M. Wormit,  
 J. Kussmann,  A. W. Lange,  A. Behn,  Jia Deng,  Xintian Feng,  D. Ghosh,  
 M. Goldey,  P. R. Horn,  L. D. Jacobson,  I. Kaliman,  T. Kus,  A. Landau,  
 Jie Liu,  E. I. Proynov,  R. M. Richard,  R. P. Steele,  E. J. Sundstrom,  
 H. L. Woodcock III,  P. M. Zimmerman,  D. Zuev,  B. Alam,  B. Albrecht,  
 E. Alguire,  S. A. Baeppler,  D. Barton,  Z. Benda,  Y. A. Bernard,  
 E. J. Berquist,  K. B. Bravaya,  H. Burton,  K. Carter-Fenk,  D. Casanova,  
 Chun-Min Chang,  Yunqing Chen,  A. Chien,  K. D. Closser,  M. P. Coons,  
 S. Coriani,  S. Dasgupta,  A. L. Dempwolff,  M. Diedenhofen,  Hainam Do,  
 R. G. Edgar,  Po-Tung Fang,  S. Faraji,  S. Fatehi,  Qingguo Feng,  
 J. Fosso-Tande,  J. Gayvert,  Qinghui Ge,  A. Ghysels,  G. Gidofalvi,  
 J. Gomes,  J. Gonthier,  A. Gunina,  D. Hait,  M. W. D. Hanson-Heine,  
 P. H. P. Harbach,  A. W. Hauser,  M. F. Herbst,  J. E. Herr,  
 E. G. Hohenstein,  Z. C. Holden,  Kerwin Hui,  B. C. Huynh,  T.-C. Jagau,  
 Hyunjun Ji,  B. Kaduk,  K. Khistyaev,  Jaehoon Kim,  P. Klunzinger,  K. Koh,  
 D. Kosenkov,  L. Koulias,  T. Kowalczyk,  C. M. Krauter,  A. Kunitsa,  
 Ka Un Lao,  A. Laurent,  K. V. Lawler,  Joonho Lee,  D. Lefrancois,  
 S. Lehtola,  D. S. Levine,  Yi-Pei Li,  You-Sheng Lin,  Fenglai Liu,  
 Kuan-Yu Liu,  E. Livshits,  M. Loipersberger,  A. Luenser,  P. Manohar,  
 E. Mansoor,  S. F. Manzer,  Shan-Ping Mao,  Yuezhi Mao,  N. Mardirossian,  
 A. V. Marenich,  T. Markovich,  L. A. Martinez-Martinez,  S. A. Maurer,  
 N. J. Mayhall,  S. C. McKenzie,  J.-M. Mewes,  P. Morgante,  A. F. Morrison,  
 J. W. Mullinax,  K. Nanda,  T. S. Nguyen-Beck,  R. Olivares-Amaya,  
 J. A. Parkhill,  S. K. Paul,  F. Pavosevic,  Zheng Pei,  T. M. Perrine,  
 F. Plasser,  P. Pokhilko,  S. Prager,  A. Prociuk,  E. Ramos,  B. Rana,  
 D. R. Rehn,  F. Rob,  M. Scheurer,  M. Schneider,  N. Sergueev,  
 S. M. Sharada,  S. Sharma,  D. W. Small,  T. Stauch,  C. J. Stein,  
 T. Stein,  Yu-Chuan Su,  S. P. Veccham,  Zhen Tao,  A. J. W. Thom,  
 A. Tkatchenko,  T. Tsuchimochi,  N. M. Tubman,  L. Vogt,  M. L. Vidal,  
 O. Vydrov,  M. A. Watson,  J. Wenzel,  M. de Wergifosse,  T. A. Wesolowski,  
 A. White,  J. Witte,  A. Yamada,  Jun Yang,  K. Yao,  S. Yeganeh,  
 S. R. Yost,  Zhi-Qiang You,  A. Zech,  Igor Ying Zhang,  Xing Zhang,  
 Yan Zhao,  Ying Zhu,  B. R. Brooks,  G. K. L. Chan,  C. J. Cramer,  
 M. S. Gordon,  W. J. Hehre,  A. Klamt,  M. W. Schmidt,  C. D. Sherrill,  
 D. G. Truhlar,  A. Aspuru-Guzik,  R. Baer,  A. T. Bell,  N. A. Besley,  
 Jeng-Da Chai,  A. E. DePrince, III,  R. A. DiStasio Jr.,  A. Dreuw,  
 B. D. Dunietz,  T. R. Furlani,  Chao-Ping Hsu,  Yousung Jung,  Jing Kong,  
 D. S. Lambrecht,  WanZhen Liang,  C. Ochsenfeld,  V. A. Rassolov,  
 L. V. Slipchenko,  J. E. Subotnik,  T. Van Voorhis,  J. M. Herbert,  
 A. I. Krylov,  P. M. W. Gill,  M. Head-Gordon

 Contributors to earlier versions of Q-Chem not listed above: 
 R. D. Adamson,  B. Austin,  J. Baker,  G. J. O. Beran,  K. Brandhorst,  
 S. T. Brown,  E. F. C. Byrd,  A. K. Chakraborty,  C.-L. Cheng,  
 Siu Hung Chien,  D. M. Chipman,  D. L. Crittenden,  H. Dachsel,  
 R. J. Doerksen,  A. D. Dutoi,  L. Fusti-Molnar,  W. A. Goddard III,  
 A. Golubeva-Zadorozhnaya,  S. R. Gwaltney,  G. Hawkins,  A. Heyden,  
 S. Hirata,  G. Kedziora,  F. J. Keil,  C. Kelley,  Jihan Kim,  R. A. King,  
 R. Z. Khaliullin,  P. P. Korambath,  W. Kurlancheek,  A. M. Lee,  M. S. Lee,  
 S. V. Levchenko,  Ching Yeh Lin,  D. Liotard,  R. C. Lochan,  I. Lotan,  
 P. E. Maslen,  N. Nair,  D. P. O'Neill,  D. Neuhauser,  E. Neuscamman,  
 C. M. Oana,  R. Olson,  B. Peters,  R. Peverati,  P. A. Pieniazek,  
 Y. M. Rhee,  J. Ritchie,  M. A. Rohrdanz,  E. Rosta,  N. J. Russ,  
 H. F. Schaefer III,  N. E. Schultz,  N. Shenvi,  A. C. Simmonett,  A. Sodt,  
 D. Stuck,  K. S. Thanthiriwatte,  V. Vanovschi,  Tao Wang,  A. Warshel,  
 C. F. Williams,  Q. Wu,  X. Xu,  W. Zhang

 Please cite Q-Chem as follows:
 Y. Shao et al., Mol. Phys. 113, 184-215 (2015)
 DOI: 10.1080/00268976.2014.952696

 Q-Chem 5.2.2 for Intel X86 EM64T Linux

 Parts of Q-Chem use Armadillo 9.800.1 (Horizon Scraper).
 http://arma.sourceforge.net/

 Q-Chem begins on Thu Apr  8 15:08:48 2021  

Host: node024
0

     Scratch files written to /home/ymao90/scratch/probe_b3lyp_chloroform20210408150847//
Symmetry turned off for PCM/SM12/SMD calculation

Checking the input file for inconsistencies... 	...done.

--------------------------------------------------------------
User input:
--------------------------------------------------------------
$molecule
0 1
C    0.58000    11.83000   20.41000  
C    0.42000    10.41000   19.83000  
C    1.53000    9.53000    20.44000  
C    1.44000    9.53000    21.98000  
C    1.37000    10.92000   22.65000  
C    0.42000    11.90000   21.94000  
H    1.49000    8.50000    20.05000  
H    -0.52000   10.00000   20.20000  
H    1.40000    12.47000   20.08000  
H    -0.28000   12.43000   20.08000  
H    0.54000    9.00000    22.28000  
H    2.32000    8.99000    22.34000  
H    1.27000    10.83000   23.73000  
H    2.37000    11.32000   22.50000  
H    -0.63000   11.62000   22.11000  
H    0.56000    12.91000   22.33000  
H    2.51000    9.84000    20.07000  
N    0.54000    10.41000   18.38000  
H    1.39000    10.78000   17.99000  
C    -0.47000   10.09000   17.50000  
H    -0.16000   10.30000   16.46000  
O    -1.56000   9.66000    17.84000  
$end

$rem
JOBTYPE  OPT
METHOD  B3LYP
BASIS  6-31+G(D)
SYMMETRY  FALSE
SYM_IGNORE  FALSE
MEM_TOTAL  8000
MEM_STATIC  2000
MAX_SUB_FILE_NUM  16000
BASIS_LIN_DEP_THRESH  6
THRESH  14
SCF_CONVERGENCE  8
GEN_SCFMAN  TRUE
SCF_GUESS  SAD
FD_MAT_VEC_PROD  FALSE
XC_GRID  000099000590
NL_GRID  1
MAX_SCF_CYCLES  200
GEOM_OPT_TOL_GRADIENT  100
GEOM_OPT_TOL_DISPLACEMENT  100
GEOM_OPT_TOL_ENERGY  10
SOLVENT_METHOD       PCM
$end

$PCM
THEORY                     CPCM
METHOD                     SWIG
SOLVER                     INVERSION
HPOINTS                    302
HEAVYPOINTS                302
$END

$SOLVENT
DIELECTRIC                 4.71
$END

--------------------------------------------------------------
 ----------------------------------------------------------------
             Standard Nuclear Orientation (Angstroms)
    I     Atom           X                Y                Z
 ----------------------------------------------------------------
    1      C       0.5800000000    11.8300000000    20.4100000000
    2      C       0.4200000000    10.4100000000    19.8300000000
    3      C       1.5300000000     9.5300000000    20.4400000000
    4      C       1.4400000000     9.5300000000    21.9800000000
    5      C       1.3700000000    10.9200000000    22.6500000000
    6      C       0.4200000000    11.9000000000    21.9400000000
    7      H       1.4900000000     8.5000000000    20.0500000000
    8      H      -0.5200000000    10.0000000000    20.2000000000
    9      H       1.4000000000    12.4700000000    20.0800000000
   10      H      -0.2800000000    12.4300000000    20.0800000000
   11      H       0.5400000000     9.0000000000    22.2800000000
   12      H       2.3200000000     8.9900000000    22.3400000000
   13      H       1.2700000000    10.8300000000    23.7300000000
   14      H       2.3700000000    11.3200000000    22.5000000000
   15      H      -0.6300000000    11.6200000000    22.1100000000
   16      H       0.5600000000    12.9100000000    22.3300000000
   17      H       2.5100000000     9.8400000000    20.0700000000
   18      N       0.5400000000    10.4100000000    18.3800000000
   19      H       1.3900000000    10.7800000000    17.9900000000
   20      C      -0.4700000000    10.0900000000    17.5000000000
   21      H      -0.1600000000    10.3000000000    16.4600000000
   22      O      -1.5600000000     9.6600000000    17.8400000000
 ----------------------------------------------------------------
 Nuclear Repulsion Energy =         465.59151226 hartrees
 There are       35 alpha and       35 beta electrons
 Requested basis set is 6-31+G(d)
 There are 71 shells and 197 basis functions

 Total QAlloc Memory Limit   8000 MB
 Mega-Array Size      1956 MB
 MEM_STATIC part      2000 MB
 Discretize the solute cavity surface with Lebedev spheres
	Using 302 Lebedev grid points for each H atom
	Using 302 Lebedev grid points for other atoms
	Atomic van der Waals radii will be scaled by 1.20
 Remove points where switching function is < 1.0e-08
 Keep 2715 surface tesserae and discard 3929 interior tesserae
 Molecular Surface Area = 182.762 Angst**2
 A cutoff of  1.0D-14 yielded   2410 shell pairs
 There are     18990 function pairs
 Smallest overlap matrix eigenvalue = 2.31E-05

 Scale SEOQF with 1.000000e-01/1.000000e-02/1.000000e-03

 Standard Electronic Orientation quadrupole field applied
 Nucleus-field energy     =     0.0000000281 hartrees
 Guess from superposition of atomic densities
 Warning:  Energy on first SCF cycle will be non-variational
 SAD guess density has 70.000000 electrons

 -----------------------------------------------------------------------
  General SCF calculation program by
  Eric Jon Sundstrom, Paul Horn, Yuezhi Mao, Dmitri Zuev, Alec White,
  David Stuck, Shaama M.S., Shane Yost, Joonho Lee, David Small,
  Daniel Levine, Susi Lehtola, Hugh Burton, Evgeny Epifanovsky,
  Bang C. Huynh
 -----------------------------------------------------------------------
 Exchange:     0.2000 Hartree-Fock + 0.0800 Slater + 0.7200 B88
 Correlation:  0.1900 VWN1RPA + 0.8100 LYP
 Using Euler-Maclaurin-Lebedev (99,590) quadrature formula
 using 16 threads for integral computing
 -------------------------------------------------------
 OpenMP Integral computing Module                
 Release: version 2.0, May 2017, Q-Chem Inc. Pleasanton 
 -------------------------------------------------------
 A restricted SCF calculation will be
 performed using DIIS
 SCF converges when DIIS error is below 1.0e-08
 ---------------------------------------
  Cycle       Energy         DIIS error
 ---------------------------------------
    1    -406.2393373780      5.09e-02  
    2    -404.3857353769      6.45e-03  
    3    -404.1517653014      1.01e-02  
    4    -404.5619448693      2.07e-03  
    5    -404.5779861062      5.52e-04  
    6    -404.5791717201      1.61e-04  
    7    -404.5792722839      5.75e-05  
    8    -404.5792862593      1.02e-05  
    9    -404.5792866904      2.56e-06  
   10    -404.5792867179      5.84e-07  
   11    -404.5792867193      2.04e-07  
   12    -404.5792867195      2.70e-08  
   13    -404.5792867195      6.61e-09  Convergence criterion met
 ---------------------------------------
 SCF time:   CPU 902.55s  wall 68.00s 

************** Final PCM Free Energy Summary **************
 G_electrostatic  =      -0.01315601 hartree =      -8.25552246 kcal/mol
 G_cavitation     =       0.00000000 hartree =       0.00000000 kcal/mol
 G_dispersion     =       0.00000000 hartree =       0.00000000 kcal/mol
 G_repulsion      =       0.00000000 hartree =       0.00000000 kcal/mol
 --------------------------------------------------
 Non-electrostatic Free Energy =       0.00000000 hartree =       0.00000000 kcal/mol
 Total                         =      -0.01315601 hartree =      -8.25552246 kcal/mol
 --------------------------------------------------
 SCF Energy (H0 + V/2)                       =    -404.57928672 
 Solute Internal Energy (H0)                 =    -404.56613071 
 Total Free Energy (H0 + V/2 + non-elec)     =    -404.57928672 hartree
                                             = -253877.33418689 kcal/mol
***********************************************************

 SCF   energy in the final basis set =     -404.5792867195
 Total energy in the final basis set =     -404.5792867195
 
 --------------------------------------------------------------
 
                    Orbital Energies (a.u.)
 --------------------------------------------------------------
 
 Alpha MOs
 -- Occupied --
-19.1378 -14.3693 -10.2964 -10.2296 -10.1826 -10.1822 -10.1821 -10.1795
-10.1763  -1.0483  -0.9306  -0.8232  -0.7445  -0.7419  -0.6404  -0.6127
 -0.5947  -0.5628  -0.5303  -0.4857  -0.4611  -0.4460  -0.4418  -0.4231
 -0.4195  -0.3999  -0.3793  -0.3688  -0.3505  -0.3476  -0.3223  -0.3074
 -0.3057  -0.2738  -0.2568
 -- Virtual --
  0.0052   0.0080   0.0152   0.0244   0.0250   0.0395   0.0477   0.0499
  0.0567   0.0669   0.0690   0.0827   0.0858   0.0945   0.1011   0.1035
  0.1101   0.1155   0.1288   0.1333   0.1394   0.1494   0.1539   0.1639
  0.1704   0.1786   0.1808   0.1845   0.2000   0.2019   0.2086   0.2108
  0.2190   0.2247   0.2344   0.2427   0.2495   0.2539   0.2638   0.2697
  0.2751   0.2806   0.2829   0.2908   0.3032   0.3049   0.3145   0.3265
  0.3330   0.3376   0.3494   0.3726   0.3775   0.3813   0.4149   0.4257
  0.4376   0.4539   0.4870   0.6107   0.6429   0.6589   0.6620   0.6723
  0.6902   0.7033   0.7238   0.7307   0.7475   0.7517   0.7682   0.7779
  0.7943   0.8057   0.8279   0.8372   0.8662   0.8974   0.9487   0.9696
  0.9844   0.9961   1.0231   1.0264   1.0395   1.0597   1.0740   1.1103
  1.1178   1.1257   1.1324   1.1413   1.1436   1.1630   1.1736   1.1894
  1.2416   1.2455   1.2879   1.3183   1.3276   1.3708   1.4070   1.4172
  1.4682   1.4871   1.4953   1.5582   1.5834   1.6180   1.6701   1.7061
  1.7355   1.7601   1.7768   1.7784   1.8267   1.8687   1.8899   1.8993
  1.9231   1.9562   1.9725   2.0032   2.0049   2.0374   2.0697   2.0830
  2.0984   2.1384   2.1856   2.2089   2.2817   2.3019   2.3148   2.3408
  2.3858   2.3954   2.4356   2.4452   2.4598   2.5593   2.5712   2.6129
  2.6775   2.6940   2.7031   2.7501   2.7757   2.8322   2.8728   3.0094
  3.1839   4.0820   4.1865   4.2288   4.2953   4.3435   4.4129   4.5883
  4.6084   4.6572
 --------------------------------------------------------------
 
          Ground-State Mulliken Net Atomic Charges

     Atom                 Charge (a.u.)
  ----------------------------------------
      1 C                    -0.332040
      2 C                    -0.447307
      3 C                    -0.290177
      4 C                    -0.444107
      5 C                    -0.358505
      6 C                    -0.446785
      7 H                     0.210614
      8 H                     0.239471
      9 H                     0.219181
     10 H                     0.212051
     11 H                     0.206513
     12 H                     0.201249
     13 H                     0.201420
     14 H                     0.197533
     15 H                     0.203382
     16 H                     0.205562
     17 H                     0.209860
     18 N                    -0.384991
     19 H                     0.441377
     20 C                     0.340700
     21 H                     0.177983
     22 O                    -0.562984
  ----------------------------------------
  Sum of atomic charges =     0.000000

 -----------------------------------------------------------------
                    Cartesian Multipole Moments
 -----------------------------------------------------------------
    Charge (ESU x 10^10)
                 0.0000
    Dipole Moment (Debye)
         X       4.7070      Y       2.0871      Z       0.7454
       Tot       5.2026
    Quadrupole Moments (Debye-Ang)
        XX     -61.0084     XY      46.8861     YY     -14.4607
        XZ      84.6804     YZ      45.6875     ZZ     -24.4335
    Octopole Moments (Debye-Ang^2)
       XXX     -72.9237    XXY    -633.9629    XYY     439.8097
       YYY   -1141.7555    XXZ   -1220.8636    XYZ     844.3706
       YYZ    -295.2626    XZZ    1495.1009    YZZ     431.6179
       ZZZ   -2410.4167
    Hexadecapole Moments (Debye-Ang^3)
      XXXX    -514.7304   XXXY    -780.5854   XXYY   -6739.8599
      XYYY    3793.1251   YYYY  -29110.0094   XXXZ   -1720.7794
      XXYZ  -12737.2359   XYYZ    7796.8113   YYYZ  -23557.9774
      XXZZ  -24746.4675   XYZZ   14909.0421   YYZZ  -12108.7595
      XZZZ   25475.6619   YZZZ  -12864.6539   ZZZZ -111495.1201
 -----------------------------------------------------------------
 Calculating analytic gradient of the SCF energy
 Gradient of SCF Energy
            1           2           3           4           5           6
    1   0.0294796  -0.0360804  -0.0039732   0.0012656  -0.0244207   0.0068085
    2  -0.0360172  -0.0031963   0.0080611   0.0016532  -0.0022753   0.0217238
    3  -0.0012691  -0.0128984   0.0041230  -0.0015147   0.0184488  -0.0078239
            7           8           9          10          11          12
    1   0.0098817   0.0079390  -0.0123797   0.0022868   0.0032374   0.0038979
    2  -0.0008326  -0.0007662   0.0173397   0.0030693   0.0106047   0.0021934
    3  -0.0045055   0.0137455   0.0041343   0.0089059   0.0002498  -0.0066147
           13          14          15          16          17          18
    1   0.0094930  -0.0077048  -0.0013684   0.0005669  -0.0010592   0.0219261
    2  -0.0003456  -0.0080305  -0.0008283  -0.0010243  -0.0104532   0.0025145
    3  -0.0022298  -0.0030790  -0.0080296   0.0034078  -0.0059685   0.0136778
           19          20          21          22
    1   0.0036152  -0.0377163   0.0077715   0.0165334
    2   0.0012428  -0.0166906   0.0059593   0.0060982
    3  -0.0015390  -0.0113374  -0.0016617   0.0017786
 Max gradient component =       3.772E-02
 RMS gradient           =       1.217E-02
 Computing fast CPCM-SWIG gradient
 Updating gradient with PCM contributions...
 -- total gradient after adding PCM contribution --
---------------------------------------------------
  Atom         X              Y              Z     
---------------------------------------------------
   1       0.031608      -0.028683      -0.003743
   2      -0.035317      -0.003221      -0.014902
   3       0.002533       0.006782       0.000937
   4       0.001031      -0.001805       0.001077
   5      -0.019879      -0.001059       0.020787
   6       0.003791       0.024013      -0.005451
   7       0.009017       0.000209      -0.003955
   8       0.006784      -0.001243       0.012382
   9      -0.015404       0.013948       0.005445
  10       0.002810       0.001930       0.008811
  11       0.004612       0.010906      -0.000160
  12       0.001721       0.002959      -0.006931
  13       0.009295      -0.000151      -0.004158
  14      -0.009780      -0.008665      -0.002383
  15       0.000076      -0.000342      -0.007850
  16      -0.000058      -0.003451       0.002601
  17      -0.004920      -0.011484      -0.003994
  18       0.029674       0.006386       0.010795
  19      -0.006248      -0.003136       0.002774
  20      -0.032346      -0.014615      -0.015796
  21       0.004533       0.004386       0.001117
  22       0.016467       0.006337       0.002596
---------------------------------------------------
 Number of fixed atoms: 0
 Gradient time:  CPU 127.06 s  wall 11.61 s
 Geometry Optimization Parameters
   NAtoms,    NIC,     NZ,  NCons,   NDum,   NFix, NCnnct, MaxDiis
       22     172       0       0       0       0       0       0


** GEOMETRY OPTIMIZATION IN DELOCALIZED INTERNAL COORDINATES **
   Searching for a Minimum

   Optimization Cycle:   1

                       Coordinates (Angstroms)
     ATOM                X               Y               Z
      1  C         0.5800000000   11.8300000000   20.4100000000
      2  C         0.4200000000   10.4100000000   19.8300000000
      3  C         1.5300000000    9.5300000000   20.4400000000
      4  C         1.4400000000    9.5300000000   21.9800000000
      5  C         1.3700000000   10.9200000000   22.6500000000
      6  C         0.4200000000   11.9000000000   21.9400000000
      7  H         1.4900000000    8.5000000000   20.0500000000
      8  H        -0.5200000000   10.0000000000   20.2000000000
      9  H         1.4000000000   12.4700000000   20.0800000000
     10  H        -0.2800000000   12.4300000000   20.0800000000
     11  H         0.5400000000    9.0000000000   22.2800000000
     12  H         2.3200000000    8.9900000000   22.3400000000
     13  H         1.2700000000   10.8300000000   23.7300000000
     14  H         2.3700000000   11.3200000000   22.5000000000
     15  H        -0.6300000000   11.6200000000   22.1100000000
     16  H         0.5600000000   12.9100000000   22.3300000000
     17  H         2.5100000000    9.8400000000   20.0700000000
     18  N         0.5400000000   10.4100000000   18.3800000000
     19  H         1.3900000000   10.7800000000   17.9900000000
     20  C        -0.4700000000   10.0900000000   17.5000000000
     21  H        -0.1600000000   10.3000000000   16.4600000000
     22  O        -1.5600000000    9.6600000000   17.8400000000
   Point Group: c1    Number of degrees of freedom:    60


   Energy is   -404.579286719


 Attempting to generate delocalized internal coordinates
 Initial Hessian constructed with Jon Baker's OPTIMIZE code

 60 Hessian modes will be used to form the next step
  Hessian Eigenvalues:
     0.004850    0.005407    0.006560    0.008376    0.012775    0.018054
     0.018651    0.018677    0.019042    0.033610    0.034591    0.037072
     0.041066    0.046592    0.048162    0.049493    0.050142    0.053390
     0.056519    0.060833    0.066651    0.080982    0.082752    0.082982
     0.085572    0.087172    0.089974    0.096067    0.124538    0.124890
     0.139174    0.159119    0.160000    0.162683    0.172956    0.213045
     0.220010    0.220236    0.268980    0.271008    0.272947    0.282129
     0.284145    0.285211    0.330973    0.334522    0.336922    0.337577
     0.344187    0.345335    0.346174    0.346647    0.347861    0.350043
     0.351115    0.351977    0.376029    0.466943    0.496029    0.953470

 Minimum search - taking simple RFO step
 Searching for Lamda that Minimizes Along All modes
 Value Taken    Lamda =  -0.02450887
 Calculated Step too Large.  Step scaled by  0.537619
 Step Taken.  Stepsize is  0.300000

                             Maximum     Tolerance    Cnvgd?
         Gradient           0.020916      0.000100      NO
         Displacement       0.183162      0.000100      NO
         Energy change     *********      0.000000      NO


 New Cartesian Coordinates Obtained by Inverse Iteration

 Displacement from previous Coordinates is:  0.266575
 ----------------------------------------------------------------
             Standard Nuclear Orientation (Angstroms)
    I     Atom           X                Y                Z
 ----------------------------------------------------------------
    1      C       0.5521999172    11.8427696444    20.4041205644
    2      C       0.4316477825    10.4216117183    19.8305211552
    3      C       1.5297484482     9.5324309142    20.4535512863
    4      C       1.4377968616     9.5176958440    21.9896285881
    5      C       1.3989169847    10.9215497928    22.6315373926
    6      C       0.4158446001    11.8824311404    21.9421751162
    7      H       1.4709721410     8.5052157203    20.0605602103
    8      H      -0.5263032244    10.0121479818    20.1549211174
    9      H       1.4053218980    12.4409981630    20.0669952572
   10      H      -0.3031047863    12.4345407178    20.0389946577
   11      H       0.5317325593     8.9811234657    22.2848644834
   12      H       2.3063737229     8.9679296142    22.3676711319
   13      H       1.2792459127    10.8436112768    23.7142797649
   14      H       2.4022078696    11.3383988692    22.4840593511
   15      H      -0.6237161091    11.5916197462    22.1580930828
   16      H       0.5564528529    12.8965455304    22.3261138478
   17      H       2.5182465506     9.8610279140    20.1086717147
   18      N       0.5407695935    10.4258653489    18.3793237205
   19      H       1.3925036722    10.7969977178    17.9829990936
   20      C      -0.4659777315    10.1061089428    17.5100174673
   21      H      -0.1597302607    10.2833927162    16.4637297104
   22      O      -1.5611492550     9.6659872207    17.8371712863
 ----------------------------------------------------------------
 Nuclear Repulsion Energy =         465.47475101 hartrees
 There are       35 alpha and       35 beta electrons
 Discretize the solute cavity surface with Lebedev spheres
	Using 302 Lebedev grid points for each H atom
	Using 302 Lebedev grid points for other atoms
	Atomic van der Waals radii will be scaled by 1.20
 Remove points where switching function is < 1.0e-08
 Keep 2735 surface tesserae and discard 3909 interior tesserae
 Molecular Surface Area = 182.927 Angst**2
 Applying Cartesian multipole field
    Component          Value
    ---------          -----
     (2,0,0)        1.00000E-11
     (0,2,0)        2.00000E-12
     (0,0,2)       -3.00000E-13
 Nucleus-field energy     =     0.0000000281 hartrees
 Requested basis set is 6-31+G(d)
 There are 71 shells and 197 basis functions
 A cutoff of  1.0D-14 yielded   2411 shell pairs
 There are     18991 function pairs
 Smallest overlap matrix eigenvalue = 2.36E-05
 Guess MOs from SCF MO coefficient file

 -----------------------------------------------------------------------
  General SCF calculation program by
  Eric Jon Sundstrom, Paul Horn, Yuezhi Mao, Dmitri Zuev, Alec White,
  David Stuck, Shaama M.S., Shane Yost, Joonho Lee, David Small,
  Daniel Levine, Susi Lehtola, Hugh Burton, Evgeny Epifanovsky,
  Bang C. Huynh
 -----------------------------------------------------------------------
 Exchange:     0.2000 Hartree-Fock + 0.0800 Slater + 0.7200 B88
 Correlation:  0.1900 VWN1RPA + 0.8100 LYP
 Using Euler-Maclaurin-Lebedev (99,590) quadrature formula
 using 16 threads for integral computing
 -------------------------------------------------------
 OpenMP Integral computing Module                
 Release: version 2.0, May 2017, Q-Chem Inc. Pleasanton 
 -------------------------------------------------------
 A restricted SCF calculation will be
 performed using Roothaan-Hall, DIIS
 SCF converges when DIIS error is below 1.0e-08
 ---------------------------------------
  Cycle       Energy         DIIS error
 ---------------------------------------
    1    -404.5752142361      6.19e-04  Roothaan Step
 ---------------------------------------
  Cycle       Energy         DIIS error
 ---------------------------------------
    1    -404.5834315148      9.74e-04  
    2    -404.5723768557      2.14e-03  
    3    -404.5898093928      1.59e-04  
    4    -404.5899098581      8.42e-05  
    5    -404.5899369026      2.69e-05  
    6    -404.5899397654      7.02e-06  
    7    -404.5899399599      2.13e-06  
    8    -404.5899399815      4.09e-07  
    9    -404.5899399822      1.82e-07  
   10    -404.5899399823      3.55e-08  
   11    -404.5899399823      9.55e-09  Convergence criterion met
 ---------------------------------------
 SCF time:   CPU 823.21s  wall 60.00s 

************** Final PCM Free Energy Summary **************
 G_electrostatic  =      -0.01339399 hartree =      -8.40485528 kcal/mol
 G_cavitation     =       0.00000000 hartree =       0.00000000 kcal/mol
 G_dispersion     =       0.00000000 hartree =       0.00000000 kcal/mol
 G_repulsion      =       0.00000000 hartree =       0.00000000 kcal/mol
 --------------------------------------------------
 Non-electrostatic Free Energy =       0.00000000 hartree =       0.00000000 kcal/mol
 Total                         =      -0.01339399 hartree =      -8.40485528 kcal/mol
 --------------------------------------------------
 SCF Energy (H0 + V/2)                       =    -404.58993998 
 Solute Internal Energy (H0)                 =    -404.57654599 
 Total Free Energy (H0 + V/2 + non-elec)     =    -404.58993998 hartree
                                             = -253884.01921024 kcal/mol
***********************************************************

 SCF   energy in the final basis set =     -404.5899399823
 Total energy in the final basis set =     -404.5899399823
 
 --------------------------------------------------------------
 
                    Orbital Energies (a.u.)
 --------------------------------------------------------------
 
 Alpha MOs
 -- Occupied --
-19.1364 -14.3706 -10.2955 -10.2281 -10.1838 -10.1834 -10.1825 -10.1809
-10.1785  -1.0453  -0.9321  -0.8232  -0.7434  -0.7426  -0.6398  -0.6132
 -0.5942  -0.5630  -0.5288  -0.4853  -0.4606  -0.4451  -0.4404  -0.4215
 -0.4196  -0.3986  -0.3789  -0.3722  -0.3501  -0.3466  -0.3218  -0.3109
 -0.3084  -0.2723  -0.2585
 -- Virtual --
  0.0056   0.0086   0.0149   0.0244   0.0247   0.0395   0.0477   0.0494
  0.0568   0.0670   0.0690   0.0828   0.0860   0.0947   0.1006   0.1034
  0.1100   0.1156   0.1271   0.1331   0.1396   0.1497   0.1538   0.1625
  0.1702   0.1785   0.1808   0.1847   0.1999   0.2010   0.2096   0.2102
  0.2205   0.2250   0.2338   0.2442   0.2489   0.2540   0.2629   0.2704
  0.2765   0.2810   0.2830   0.2895   0.3005   0.3057   0.3135   0.3259
  0.3320   0.3344   0.3518   0.3726   0.3790   0.3821   0.4151   0.4221
  0.4374   0.4526   0.4861   0.6090   0.6412   0.6582   0.6624   0.6705
  0.6875   0.7011   0.7243   0.7302   0.7471   0.7512   0.7696   0.7784
  0.7960   0.8037   0.8249   0.8366   0.8621   0.9015   0.9498   0.9707
  0.9824   0.9940   1.0209   1.0264   1.0367   1.0579   1.0763   1.1064
  1.1176   1.1243   1.1282   1.1420   1.1550   1.1662   1.1755   1.1835
  1.2407   1.2466   1.2852   1.3218   1.3275   1.3688   1.4095   1.4113
  1.4649   1.4861   1.4946   1.5601   1.5816   1.6191   1.6814   1.7165
  1.7347   1.7599   1.7734   1.7825   1.8289   1.8676   1.8959   1.9008
  1.9208   1.9459   1.9715   1.9968   2.0073   2.0372   2.0665   2.0829
  2.1068   2.1218   2.1917   2.2074   2.2788   2.3021   2.3111   2.3415
  2.3936   2.3970   2.4281   2.4303   2.4532   2.5581   2.5734   2.6163
  2.6824   2.6884   2.7010   2.7517   2.7716   2.8347   2.8684   3.0053
  3.1849   4.0847   4.1874   4.2285   4.2934   4.3391   4.4144   4.5923
  4.6044   4.6614
 --------------------------------------------------------------
 
          Ground-State Mulliken Net Atomic Charges

     Atom                 Charge (a.u.)
  ----------------------------------------
      1 C                    -0.316931
      2 C                    -0.433334
      3 C                    -0.296479
      4 C                    -0.444203
      5 C                    -0.365497
      6 C                    -0.448722
      7 H                     0.210646
      8 H                     0.236016
      9 H                     0.215200
     10 H                     0.210988
     11 H                     0.206575
     12 H                     0.202013
     13 H                     0.200450
     14 H                     0.197983
     15 H                     0.204843
     16 H                     0.204347
     17 H                     0.208731
     18 N                    -0.382490
     19 H                     0.440509
     20 C                     0.343098
     21 H                     0.176158
     22 O                    -0.569899
  ----------------------------------------
  Sum of atomic charges =     0.000000

 -----------------------------------------------------------------
                    Cartesian Multipole Moments
 -----------------------------------------------------------------
    Charge (ESU x 10^10)
                -0.0000
    Dipole Moment (Debye)
         X       4.8036      Y       2.0784      Z       0.8635
       Tot       5.3047
    Quadrupole Moments (Debye-Ang)
        XX     -61.0342     XY      47.8978     YY     -14.6904
        XZ      86.5314     YZ      46.5308     ZZ     -19.8939
    Octopole Moments (Debye-Ang^2)
       XXX     -72.7083    XXY    -633.9424    XYY     450.2692
       YYY   -1147.5547    XXZ   -1220.9743    XYZ     863.6549
       YYZ    -291.5415    XZZ    1530.8829    YZZ     466.6159
       ZZZ   -2278.6468
    Hexadecapole Moments (Debye-Ang^3)
      XXXX    -517.1740   XXXY    -776.6766   XXYY   -6736.9464
      XYYY    3899.2083   YYYY  -29241.6380   XXXZ   -1717.6155
      XXYZ  -12731.6398   XYYZ    7994.7630   YYYZ  -23610.0796
      XXZZ  -24740.8072   XYZZ   15279.2528   YYZZ  -11893.2296
      XZZZ   26170.7370   YZZZ  -11832.3875   ZZZZ -108073.7131
 -----------------------------------------------------------------
 Calculating analytic gradient of the SCF energy
 Gradient of SCF Energy
            1           2           3           4           5           6
    1   0.0202149  -0.0232415  -0.0064692   0.0014156  -0.0194850   0.0051226
    2  -0.0279448  -0.0007188   0.0066498   0.0004264  -0.0015233   0.0123461
    3  -0.0010057  -0.0108877   0.0068745  -0.0023684   0.0110311  -0.0038844
            7           8           9          10          11          12
    1   0.0066191   0.0057588  -0.0067768  -0.0002539   0.0006124   0.0038074
    2  -0.0019008   0.0004649   0.0136750   0.0034645   0.0045546   0.0014275
    3  -0.0025590   0.0098623   0.0004598   0.0039331   0.0000426  -0.0035801
           13          14          15          16          17          18
    1   0.0065381  -0.0015933  -0.0022434   0.0011820   0.0020593   0.0107779
    2  -0.0010073  -0.0029866  -0.0006384  -0.0001113  -0.0060764  -0.0003255
    3  -0.0003496  -0.0020693  -0.0043709   0.0022047  -0.0048386   0.0107539
           19          20          21          22
    1   0.0070757  -0.0290446   0.0065268   0.0113971
    2   0.0028502  -0.0088988   0.0033658   0.0029071
    3  -0.0023655  -0.0051497  -0.0019123   0.0001794
 Max gradient component =       2.904E-02
 RMS gradient           =       8.510E-03
 Computing fast CPCM-SWIG gradient
 Updating gradient with PCM contributions...
 -- total gradient after adding PCM contribution --
---------------------------------------------------
  Atom         X              Y              Z     
---------------------------------------------------
   1       0.022947      -0.021254      -0.003861
   2      -0.022660      -0.000804      -0.013012
   3       0.000107       0.005507       0.003839
   4       0.001197      -0.003310       0.000325
   5      -0.014980      -0.000058       0.013580
   6       0.002020       0.014803      -0.001427
   7       0.005926      -0.000718      -0.002077
   8       0.004451      -0.000092       0.008583
   9      -0.010197       0.010718       0.001993
  10       0.000324       0.002336       0.004090
  11       0.002025       0.005054      -0.000368
  12       0.001615       0.002283      -0.004058
  13       0.006472      -0.000819      -0.002305
  14      -0.003888      -0.003833      -0.001403
  15      -0.000781      -0.000114      -0.004429
  16       0.000527      -0.002465       0.001460
  17      -0.001889      -0.007386      -0.003064
  18       0.018681       0.003642       0.008003
  19      -0.002893      -0.001605       0.001921
  20      -0.023644      -0.006892      -0.009389
  21       0.003286       0.001904       0.000733
  22       0.011353       0.003105       0.000868
---------------------------------------------------
 Number of fixed atoms: 0
 Gradient time:  CPU 128.48 s  wall 11.80 s
 Geometry Optimization Parameters
   NAtoms,    NIC,     NZ,  NCons,   NDum,   NFix, NCnnct, MaxDiis
       22     172       0       0       0       0       0       0

 Cartesian Hessian Update
 Hessian updated using BFGS update


** GEOMETRY OPTIMIZATION IN DELOCALIZED INTERNAL COORDINATES **
   Searching for a Minimum

   Optimization Cycle:   2

                       Coordinates (Angstroms)
     ATOM                X               Y               Z
      1  C         0.5521999172   11.8427696444   20.4041205644
      2  C         0.4316477825   10.4216117183   19.8305211552
      3  C         1.5297484482    9.5324309142   20.4535512863
      4  C         1.4377968616    9.5176958440   21.9896285881
      5  C         1.3989169847   10.9215497928   22.6315373926
      6  C         0.4158446001   11.8824311404   21.9421751162
      7  H         1.4709721410    8.5052157203   20.0605602103
      8  H        -0.5263032244   10.0121479818   20.1549211174
      9  H         1.4053218980   12.4409981630   20.0669952572
     10  H        -0.3031047863   12.4345407178   20.0389946577
     11  H         0.5317325593    8.9811234657   22.2848644834
     12  H         2.3063737229    8.9679296142   22.3676711319
     13  H         1.2792459127   10.8436112768   23.7142797649
     14  H         2.4022078696   11.3383988692   22.4840593511
     15  H        -0.6237161091   11.5916197462   22.1580930828
     16  H         0.5564528529   12.8965455304   22.3261138478
     17  H         2.5182465506    9.8610279140   20.1086717147
     18  N         0.5407695935   10.4258653489   18.3793237205
     19  H         1.3925036722   10.7969977178   17.9829990936
     20  C        -0.4659777315   10.1061089428   17.5100174673
     21  H        -0.1597302607   10.2833927162   16.4637297104
     22  O        -1.5611492550    9.6659872207   17.8371712863
   Point Group: c1    Number of degrees of freedom:    60


   Energy is   -404.589939982

 Hessian updated using BFGS update

 60 Hessian modes will be used to form the next step
  Hessian Eigenvalues:
     0.004847    0.005415    0.006557    0.008377    0.012772    0.017378
     0.018564    0.018773    0.019901    0.033171    0.035891    0.037091
     0.041487    0.046152    0.047352    0.049687    0.051188    0.053461
     0.057141    0.060688    0.066921    0.080927    0.082154    0.083338
     0.084305    0.087382    0.090016    0.093066    0.123583    0.125514
     0.139277    0.158227    0.159407    0.162705    0.178974    0.211935
     0.220118    0.220278    0.269244    0.272593    0.275344    0.281728
     0.284856    0.286969    0.330968    0.334408    0.336962    0.338655
     0.344123    0.345287    0.345906    0.346562    0.347723    0.349718
     0.351691    0.356251    0.376869    0.466286    0.486716    0.944511

 Minimum search - taking simple RFO step
 Searching for Lamda that Minimizes Along All modes
 Value Taken    Lamda =  -0.01315200
 Calculated Step too Large.  Step scaled by  0.583670
 Step Taken.  Stepsize is  0.300000

                             Maximum     Tolerance    Cnvgd?
         Gradient           0.014003      0.000100      NO
         Displacement       0.165464      0.000100      NO
         Energy change     -0.010653      0.000000      NO


 New Cartesian Coordinates Obtained by Inverse Iteration

 Displacement from previous Coordinates is:  0.249630
 ----------------------------------------------------------------
             Standard Nuclear Orientation (Angstroms)
    I     Atom           X                Y                Z
 ----------------------------------------------------------------
    1      C       0.5209468075    11.8497319296    20.4051364597
    2      C       0.4394248343    10.4251188321    19.8358336632
    3      C       1.5300050812     9.5345145048    20.4606004468
    4      C       1.4354678237     9.5141642865    21.9940806935
    5      C       1.4265549192    10.9259340342    22.6094942399
    6      C       0.4119505560    11.8675457054    21.9429486287
    7      H       1.4542190747     8.5134338871    20.0595925861
    8      H      -0.5316768191    10.0065276534    20.1127849082
    9      H       1.4107965594    12.4002178396    20.0720654996
   10      H      -0.3269498151    12.4338646620    20.0145116045
   11      H       0.5217196862     8.9838406092    22.2918539043
   12      H       2.2886898008     8.9496102458    22.3889509637
   13      H       1.2876223920    10.8662274231    23.6945275040
   14      H       2.4308495083    11.3494352438    22.4585501457
   15      H      -0.6141115583    11.5638626815    22.1999965675
   16      H       0.5487400441    12.8872520718    22.3198647024
   17      H       2.5212782450     9.8861881922    20.1380557659
   18      N       0.5472379312    10.4294876280    18.3818369655
   19      H       1.3983803934    10.8037784879    17.9796033161
   20      C      -0.4470995563    10.0988321376    17.5198260343
   21      H      -0.1600592445    10.2862413162    16.4704466938
   22      O      -1.5639866638     9.6941906283    17.8394387066
 ----------------------------------------------------------------
 Nuclear Repulsion Energy =         466.03126749 hartrees
 There are       35 alpha and       35 beta electrons
 Discretize the solute cavity surface with Lebedev spheres
	Using 302 Lebedev grid points for each H atom
	Using 302 Lebedev grid points for other atoms
	Atomic van der Waals radii will be scaled by 1.20
 Remove points where switching function is < 1.0e-08
 Keep 2747 surface tesserae and discard 3897 interior tesserae
 Molecular Surface Area = 182.728 Angst**2
 Applying Cartesian multipole field
    Component          Value
    ---------          -----
     (2,0,0)        1.00000E-11
     (0,2,0)        2.00000E-12
     (0,0,2)       -3.00000E-13
 Nucleus-field energy     =     0.0000000281 hartrees
 Requested basis set is 6-31+G(d)
 There are 71 shells and 197 basis functions
 A cutoff of  1.0D-14 yielded   2411 shell pairs
 There are     18991 function pairs
 Smallest overlap matrix eigenvalue = 2.39E-05
 Guess MOs from SCF MO coefficient file

 -----------------------------------------------------------------------
  General SCF calculation program by
  Eric Jon Sundstrom, Paul Horn, Yuezhi Mao, Dmitri Zuev, Alec White,
  David Stuck, Shaama M.S., Shane Yost, Joonho Lee, David Small,
  Daniel Levine, Susi Lehtola, Hugh Burton, Evgeny Epifanovsky,
  Bang C. Huynh
 -----------------------------------------------------------------------
 Exchange:     0.2000 Hartree-Fock + 0.0800 Slater + 0.7200 B88
 Correlation:  0.1900 VWN1RPA + 0.8100 LYP
 Using Euler-Maclaurin-Lebedev (99,590) quadrature formula
 using 16 threads for integral computing
 -------------------------------------------------------
 OpenMP Integral computing Module                
 Release: version 2.0, May 2017, Q-Chem Inc. Pleasanton 
 -------------------------------------------------------
 A restricted SCF calculation will be
 performed using Roothaan-Hall, DIIS
 SCF converges when DIIS error is below 1.0e-08
 ---------------------------------------
  Cycle       Energy         DIIS error
 ---------------------------------------
    1    -404.5800355872      6.69e-04  Roothaan Step
 ---------------------------------------
  Cycle       Energy         DIIS error
 ---------------------------------------
    1    -404.5887669630      1.00e-03  
    2    -404.5770004571      2.20e-03  
    3    -404.5954824463      1.65e-04  
    4    -404.5955887998      8.80e-05  
    5    -404.5956184169      2.72e-05  
    6    -404.5956213849      7.04e-06  
    7    -404.5956215761      2.29e-06  
    8    -404.5956216009      4.36e-07  
    9    -404.5956216017      1.89e-07  
   10    -404.5956216019      3.62e-08  
   11    -404.5956216019      9.40e-09  Convergence criterion met
 ---------------------------------------
 SCF time:   CPU 811.38s  wall 54.00s 

************** Final PCM Free Energy Summary **************
 G_electrostatic  =      -0.01372883 hartree =      -8.61496874 kcal/mol
 G_cavitation     =       0.00000000 hartree =       0.00000000 kcal/mol
 G_dispersion     =       0.00000000 hartree =       0.00000000 kcal/mol
 G_repulsion      =       0.00000000 hartree =       0.00000000 kcal/mol
 --------------------------------------------------
 Non-electrostatic Free Energy =       0.00000000 hartree =       0.00000000 kcal/mol
 Total                         =      -0.01372883 hartree =      -8.61496874 kcal/mol
 --------------------------------------------------
 SCF Energy (H0 + V/2)                       =    -404.59562160 
 Solute Internal Energy (H0)                 =    -404.58189278 
 Total Free Energy (H0 + V/2 + non-elec)     =    -404.59562160 hartree
                                             = -253887.58448032 kcal/mol
***********************************************************

 SCF   energy in the final basis set =     -404.5956216019
 Total energy in the final basis set =     -404.5956216019
 
 --------------------------------------------------------------
 
                    Orbital Energies (a.u.)
 --------------------------------------------------------------
 
 Alpha MOs
 -- Occupied --
-19.1343 -14.3714 -10.2942 -10.2270 -10.1844 -10.1840 -10.1823 -10.1816
-10.1796  -1.0421  -0.9335  -0.8246  -0.7438  -0.7436  -0.6394  -0.6137
 -0.5938  -0.5634  -0.5278  -0.4851  -0.4610  -0.4450  -0.4399  -0.4210
 -0.4186  -0.3978  -0.3788  -0.3747  -0.3493  -0.3464  -0.3219  -0.3129
 -0.3105  -0.2705  -0.2596
 -- Virtual --
  0.0064   0.0087   0.0147   0.0244   0.0245   0.0395   0.0478   0.0489
  0.0571   0.0672   0.0690   0.0828   0.0862   0.0945   0.1001   0.1035
  0.1100   0.1160   0.1258   0.1331   0.1397   0.1500   0.1540   0.1617
  0.1700   0.1789   0.1808   0.1853   0.1988   0.2012   0.2097   0.2114
  0.2215   0.2248   0.2334   0.2453   0.2480   0.2537   0.2630   0.2704
  0.2792   0.2811   0.2836   0.2902   0.2973   0.3063   0.3129   0.3259
  0.3304   0.3326   0.3551   0.3720   0.3814   0.3844   0.4154   0.4199
  0.4384   0.4528   0.4858   0.6082   0.6396   0.6574   0.6628   0.6687
  0.6859   0.6997   0.7257   0.7308   0.7433   0.7539   0.7716   0.7794
  0.7975   0.8032   0.8225   0.8380   0.8606   0.9044   0.9511   0.9724
  0.9803   0.9920   1.0195   1.0264   1.0329   1.0562   1.0800   1.1028
  1.1182   1.1223   1.1266   1.1424   1.1625   1.1700   1.1792   1.1830
  1.2386   1.2488   1.2840   1.3230   1.3319   1.3708   1.4020   1.4123
  1.4708   1.4861   1.4889   1.5620   1.5823   1.6197   1.6889   1.7248
  1.7388   1.7582   1.7691   1.7912   1.8341   1.8710   1.9003   1.9080
  1.9175   1.9390   1.9703   2.0019   2.0081   2.0408   2.0621   2.0849
  2.1119   2.1175   2.1985   2.2094   2.2787   2.2992   2.3187   2.3403
  2.3983   2.4066   2.4189   2.4230   2.4496   2.5587   2.5785   2.6203
  2.6821   2.6871   2.7027   2.7542   2.7744   2.8363   2.8667   3.0019
  3.1872   4.0888   4.1905   4.2303   4.2940   4.3364   4.4150   4.5972
  4.6025   4.6654
 --------------------------------------------------------------
 
          Ground-State Mulliken Net Atomic Charges

     Atom                 Charge (a.u.)
  ----------------------------------------
      1 C                    -0.301606
      2 C                    -0.427679
      3 C                    -0.292521
      4 C                    -0.446488
      5 C                    -0.372223
      6 C                    -0.451654
      7 H                     0.211138
      8 H                     0.233778
      9 H                     0.211714
     10 H                     0.211245
     11 H                     0.206783
     12 H                     0.202410
     13 H                     0.199733
     14 H                     0.199219
     15 H                     0.206290
     16 H                     0.203547
     17 H                     0.208336
     18 N                    -0.381116
     19 H                     0.439728
     20 C                     0.342409
     21 H                     0.175118
     22 O                    -0.578162
  ----------------------------------------
  Sum of atomic charges =     0.000000

 -----------------------------------------------------------------
                    Cartesian Multipole Moments
 -----------------------------------------------------------------
    Charge (ESU x 10^10)
                -0.0000
    Dipole Moment (Debye)
         X       4.9253      Y       2.0189      Z       0.9749
       Tot       5.4116
    Quadrupole Moments (Debye-Ang)
        XX     -61.1158     XY      49.2502     YY     -15.8676
        XZ      88.8021     YZ      46.5111     ZZ     -15.6207
    Octopole Moments (Debye-Ang^2)
       XXX     -72.4690    XXY    -634.5802    XYY     464.8365
       YYY   -1166.1179    XXZ   -1222.1650    XYZ     888.7786
       YYZ    -303.0502    XZZ    1573.3039    YZZ     487.3795
       ZZZ   -2155.0658
    Hexadecapole Moments (Debye-Ang^3)
      XXXX    -518.9452   XXXY    -771.9149   XXYY   -6741.2314
      XYYY    4051.6732   YYYY  -29515.8139   XXXZ   -1712.9551
      XXYZ  -12738.8676   XYYZ    8264.2471   YYYZ  -23859.4538
      XXZZ  -24756.0448   XYZZ   15746.5768   YYZZ  -11907.8154
      XZZZ   26962.7981   YZZZ  -11028.4709   ZZZZ -104877.1419
 -----------------------------------------------------------------
 Calculating analytic gradient of the SCF energy
 Gradient of SCF Energy
            1           2           3           4           5           6
    1   0.0089484  -0.0108226  -0.0078895   0.0009996  -0.0135628   0.0043747
    2  -0.0181800   0.0005830   0.0045022   0.0022390  -0.0020790   0.0043817
    3   0.0012855  -0.0060650   0.0061042  -0.0033037   0.0034793  -0.0027353
            7           8           9          10          11          12
    1   0.0033094   0.0034820  -0.0012926  -0.0014114  -0.0005456   0.0033592
    2  -0.0018193   0.0007916   0.0088084   0.0025048   0.0010997   0.0005696
    3  -0.0016541   0.0059974  -0.0009141   0.0016124   0.0004418  -0.0013243
           13          14          15          16          17          18
    1   0.0030066   0.0016307  -0.0021064   0.0014970   0.0038087  -0.0004004
    2  -0.0006812  -0.0006782  -0.0002919   0.0011874  -0.0021192  -0.0019637
    3   0.0011893  -0.0014198  -0.0022087   0.0012354  -0.0033867   0.0073957
           19          20          21          22
    1   0.0088236  -0.0141546   0.0038411   0.0051046
    2   0.0045418  -0.0124296   0.0050199   0.0040131
    3  -0.0034743  -0.0000126  -0.0019486  -0.0002941
 Max gradient component =       1.818E-02
 RMS gradient           =       5.211E-03
 Computing fast CPCM-SWIG gradient
 Updating gradient with PCM contributions...
 -- total gradient after adding PCM contribution --
---------------------------------------------------
  Atom         X              Y              Z     
---------------------------------------------------
   1       0.012306      -0.012196      -0.001797
   2      -0.010439       0.000505      -0.008359
   3      -0.001112       0.003512       0.003150
   4       0.000718      -0.001816      -0.000426
   5      -0.009048      -0.000351       0.006186
   6       0.001147       0.006987      -0.000166
   7       0.002795      -0.000462      -0.001144
   8       0.001975       0.000201       0.004783
   9      -0.005141       0.006364       0.000662
  10      -0.000786       0.001393       0.001907
  11       0.000914       0.001718      -0.000006
  12       0.001180       0.001517      -0.001936
  13       0.003113      -0.000542      -0.000797
  14      -0.000908      -0.001672      -0.000726
  15      -0.000648       0.000269      -0.002466
  16       0.000829      -0.001134       0.000549
  17      -0.000259      -0.003748      -0.001767
  18       0.007567       0.002117       0.004703
  19      -0.001215      -0.000036       0.000821
  20      -0.008732      -0.010485      -0.004052
  21       0.000607       0.003556       0.000581
  22       0.005138       0.004302       0.000302
---------------------------------------------------
 Number of fixed atoms: 0
 Gradient time:  CPU 125.07 s  wall 11.67 s
 Geometry Optimization Parameters
   NAtoms,    NIC,     NZ,  NCons,   NDum,   NFix, NCnnct, MaxDiis
       22     172       0       0       0       0       0       0

 Cartesian Hessian Update
 Hessian updated using BFGS update


** GEOMETRY OPTIMIZATION IN DELOCALIZED INTERNAL COORDINATES **
   Searching for a Minimum

   Optimization Cycle:   3

                       Coordinates (Angstroms)
     ATOM                X               Y               Z
      1  C         0.5209468075   11.8497319296   20.4051364597
      2  C         0.4394248343   10.4251188321   19.8358336632
      3  C         1.5300050812    9.5345145048   20.4606004468
      4  C         1.4354678237    9.5141642865   21.9940806935
      5  C         1.4265549192   10.9259340342   22.6094942399
      6  C         0.4119505560   11.8675457054   21.9429486287
      7  H         1.4542190747    8.5134338871   20.0595925861
      8  H        -0.5316768191   10.0065276534   20.1127849082
      9  H         1.4107965594   12.4002178396   20.0720654996
     10  H        -0.3269498151   12.4338646620   20.0145116045
     11  H         0.5217196862    8.9838406092   22.2918539043
     12  H         2.2886898008    8.9496102458   22.3889509637
     13  H         1.2876223920   10.8662274231   23.6945275040
     14  H         2.4308495083   11.3494352438   22.4585501457
     15  H        -0.6141115583   11.5638626815   22.1999965675
     16  H         0.5487400441   12.8872520718   22.3198647024
     17  H         2.5212782450    9.8861881922   20.1380557659
     18  N         0.5472379312   10.4294876280   18.3818369655
     19  H         1.3983803934   10.8037784879   17.9796033161
     20  C        -0.4470995563   10.0988321376   17.5198260343
     21  H        -0.1600592445   10.2862413162   16.4704466938
     22  O        -1.5639866638    9.6941906283   17.8394387066
   Point Group: c1    Number of degrees of freedom:    60


   Energy is   -404.595621602

 Hessian updated using BFGS update

 60 Hessian modes will be used to form the next step
  Hessian Eigenvalues:
     0.004842    0.005405    0.006546    0.008377    0.012672    0.016693
     0.018529    0.018736    0.023114    0.034583    0.037040    0.037231
     0.043549    0.046557    0.048117    0.049732    0.051236    0.053386
     0.056977    0.060484    0.066946    0.080773    0.081185    0.083206
     0.083991    0.087338    0.090068    0.092010    0.123440    0.125709
     0.139240    0.157643    0.159371    0.162700    0.178090    0.211878
     0.219867    0.220254    0.269136    0.272591    0.275505    0.282025
     0.284856    0.287203    0.330961    0.334325    0.336976    0.338448
     0.344083    0.345363    0.345848    0.346526    0.347724    0.349707
     0.351663    0.356857    0.377646    0.466403    0.486088    0.939394

 Minimum search - taking simple RFO step
 Searching for Lamda that Minimizes Along All modes
 Value Taken    Lamda =  -0.00707246
 Calculated Step too Large.  Step scaled by  0.581009
 Step Taken.  Stepsize is  0.300000

                             Maximum     Tolerance    Cnvgd?
         Gradient           0.007584      0.000100      NO
         Displacement       0.132751      0.000100      NO
         Energy change     -0.005682      0.000000      NO


 New Cartesian Coordinates Obtained by Inverse Iteration

 Displacement from previous Coordinates is:  0.306932
 ----------------------------------------------------------------
             Standard Nuclear Orientation (Angstroms)
    I     Atom           X                Y                Z
 ----------------------------------------------------------------
    1      C       0.4985248380    11.8655086438    20.4176544781
    2      C       0.4353438156    10.4416188695    19.8414469101
    3      C       1.5192361676     9.5416359823    20.4563741026
    4      C       1.4271500339     9.5136186224    21.9893409572
    5      C       1.4539114525    10.9270289473    22.5923192776
    6      C       0.4140741069    11.8592723615    21.9539510755
    7      H       1.4253306762     8.5283112121    20.0442991989
    8      H      -0.5452139482    10.0169576748    20.0796312928
    9      H       1.4211020265    12.3693645456    20.0935302627
   10      H      -0.3364730919    12.4534652110    20.0125691954
   11      H       0.5022785506     9.0001553617    22.2898194382
   12      H       2.2619204858     8.9253520478    22.3915590300
   13      H       1.3071548405    10.8775495400    23.6790229781
   14      H       2.4578060402    11.3510835500    22.4334665252
   15      H      -0.5986135850    11.5428929773    22.2446705091
   16      H       0.5473521717    12.8805327842    22.3328835767
   17      H       2.5112992760     9.9082418836    20.1492635109
   18      N       0.5415982179    10.4589039640    18.3832290899
   19      H       1.3960066210    10.8273391754    17.9784577928
   20      C      -0.4425238665    10.1226256573    17.5238957605
   21      H      -0.1304008568    10.2170564482    16.4695373838
   22      O      -1.5368639725     9.6414845401    17.8330776540
 ----------------------------------------------------------------
 Nuclear Repulsion Energy =         466.39915460 hartrees
 There are       35 alpha and       35 beta electrons
 Discretize the solute cavity surface with Lebedev spheres
	Using 302 Lebedev grid points for each H atom
	Using 302 Lebedev grid points for other atoms
	Atomic van der Waals radii will be scaled by 1.20
 Remove points where switching function is < 1.0e-08
 Keep 2745 surface tesserae and discard 3899 interior tesserae
 Molecular Surface Area = 182.632 Angst**2
 Applying Cartesian multipole field
    Component          Value
    ---------          -----
     (2,0,0)        1.00000E-11
     (0,2,0)        2.00000E-12
     (0,0,2)       -3.00000E-13
 Nucleus-field energy     =     0.0000000281 hartrees
 Requested basis set is 6-31+G(d)
 There are 71 shells and 197 basis functions
 A cutoff of  1.0D-14 yielded   2412 shell pairs
 There are     18992 function pairs
 Smallest overlap matrix eigenvalue = 2.43E-05
 Guess MOs from SCF MO coefficient file

 -----------------------------------------------------------------------
  General SCF calculation program by
  Eric Jon Sundstrom, Paul Horn, Yuezhi Mao, Dmitri Zuev, Alec White,
  David Stuck, Shaama M.S., Shane Yost, Joonho Lee, David Small,
  Daniel Levine, Susi Lehtola, Hugh Burton, Evgeny Epifanovsky,
  Bang C. Huynh
 -----------------------------------------------------------------------
 Exchange:     0.2000 Hartree-Fock + 0.0800 Slater + 0.7200 B88
 Correlation:  0.1900 VWN1RPA + 0.8100 LYP
 Using Euler-Maclaurin-Lebedev (99,590) quadrature formula
 using 16 threads for integral computing
 -------------------------------------------------------
 OpenMP Integral computing Module                
 Release: version 2.0, May 2017, Q-Chem Inc. Pleasanton 
 -------------------------------------------------------
 A restricted SCF calculation will be
 performed using Roothaan-Hall, DIIS
 SCF converges when DIIS error is below 1.0e-08
 ---------------------------------------
  Cycle       Energy         DIIS error
 ---------------------------------------
    1    -404.5794707082      8.27e-04  Roothaan Step
 ---------------------------------------
  Cycle       Energy         DIIS error
 ---------------------------------------
    1    -404.5902943078      1.03e-03  
    2    -404.5780495027      2.25e-03  
    3    -404.5973106435      1.68e-04  
    4    -404.5974211908      9.07e-05  
    5    -404.5974526740      2.79e-05  
    6    -404.5974558072      7.15e-06  
    7    -404.5974560021      2.41e-06  
    8    -404.5974560297      4.54e-07  
    9    -404.5974560305      1.96e-07  
   10    -404.5974560307      3.74e-08  
   11    -404.5974560307      9.10e-09  Convergence criterion met
 ---------------------------------------
 SCF time:   CPU 809.76s  wall 57.00s 

************** Final PCM Free Energy Summary **************
 G_electrostatic  =      -0.01403860 hartree =      -8.80935657 kcal/mol
 G_cavitation     =       0.00000000 hartree =       0.00000000 kcal/mol
 G_dispersion     =       0.00000000 hartree =       0.00000000 kcal/mol
 G_repulsion      =       0.00000000 hartree =       0.00000000 kcal/mol
 --------------------------------------------------
 Non-electrostatic Free Energy =       0.00000000 hartree =       0.00000000 kcal/mol
 Total                         =      -0.01403860 hartree =      -8.80935657 kcal/mol
 --------------------------------------------------
 SCF Energy (H0 + V/2)                       =    -404.59745603 
 Solute Internal Energy (H0)                 =    -404.58341743 
 Total Free Energy (H0 + V/2 + non-elec)     =    -404.59745603 hartree
                                             = -253888.73560178 kcal/mol
***********************************************************

 SCF   energy in the final basis set =     -404.5974560307
 Total energy in the final basis set =     -404.5974560307
 
 --------------------------------------------------------------
 
                    Orbital Energies (a.u.)
 --------------------------------------------------------------
 
 Alpha MOs
 -- Occupied --
-19.1327 -14.3721 -10.2932 -10.2265 -10.1847 -10.1846 -10.1821 -10.1821
-10.1802  -1.0394  -0.9340  -0.8259  -0.7446  -0.7441  -0.6390  -0.6141
 -0.5936  -0.5640  -0.5272  -0.4848  -0.4616  -0.4449  -0.4397  -0.4203
 -0.4182  -0.3971  -0.3796  -0.3756  -0.3489  -0.3465  -0.3225  -0.3139
 -0.3115  -0.2686  -0.2605
 -- Virtual --
  0.0056   0.0095   0.0145   0.0242   0.0246   0.0395   0.0479   0.0485
  0.0572   0.0675   0.0690   0.0827   0.0863   0.0941   0.0997   0.1035
  0.1101   0.1163   0.1246   0.1331   0.1398   0.1500   0.1543   0.1611
  0.1698   0.1797   0.1801   0.1862   0.1992   0.2004   0.2096   0.2125
  0.2214   0.2245   0.2326   0.2448   0.2477   0.2542   0.2627   0.2701
  0.2804   0.2826   0.2841   0.2909   0.2942   0.3060   0.3121   0.3259
  0.3290   0.3315   0.3574   0.3710   0.3832   0.3853   0.4167   0.4184
  0.4389   0.4544   0.4849   0.6078   0.6383   0.6562   0.6647   0.6671
  0.6845   0.6980   0.7268   0.7310   0.7476   0.7492   0.7731   0.7797
  0.7990   0.8033   0.8205   0.8401   0.8604   0.9077   0.9527   0.9734
  0.9787   0.9907   1.0190   1.0259   1.0304   1.0554   1.0843   1.1012
  1.1183   1.1210   1.1258   1.1432   1.1634   1.1697   1.1830   1.1862
  1.2364   1.2515   1.2832   1.3218   1.3384   1.3649   1.3956   1.4129
  1.4661   1.4881   1.4995   1.5630   1.5808   1.6172   1.6982   1.7291
  1.7431   1.7533   1.7672   1.7990   1.8435   1.8695   1.9039   1.9092
  1.9132   1.9375   1.9708   2.0072   2.0099   2.0433   2.0578   2.0857
  2.1047   2.1256   2.2036   2.2127   2.2771   2.3055   2.3171   2.3400
  2.3969   2.4120   2.4157   2.4214   2.4499   2.5590   2.5812   2.6212
  2.6784   2.6877   2.7034   2.7559   2.7778   2.8357   2.8664   2.9970
  3.1853   4.0912   4.1933   4.2299   4.2945   4.3340   4.4147   4.6015
  4.6017   4.6687
 --------------------------------------------------------------
 
          Ground-State Mulliken Net Atomic Charges

     Atom                 Charge (a.u.)
  ----------------------------------------
      1 C                    -0.283697
      2 C                    -0.432262
      3 C                    -0.288898
      4 C                    -0.448646
      5 C                    -0.377589
      6 C                    -0.453915
      7 H                     0.212037
      8 H                     0.232498
      9 H                     0.209340
     10 H                     0.211352
     11 H                     0.207277
     12 H                     0.202667
     13 H                     0.199407
     14 H                     0.200570
     15 H                     0.207276
     16 H                     0.202823
     17 H                     0.208531
     18 N                    -0.380182
     19 H                     0.439205
     20 C                     0.342155
     21 H                     0.174443
     22 O                    -0.584393
  ----------------------------------------
  Sum of atomic charges =     0.000000

 -----------------------------------------------------------------
                    Cartesian Multipole Moments
 -----------------------------------------------------------------
    Charge (ESU x 10^10)
                -0.0000
    Dipole Moment (Debye)
         X       4.9634      Y       2.1310      Z       1.0811
       Tot       5.5086
    Quadrupole Moments (Debye-Ang)
        XX     -60.8888     XY      49.3861     YY     -13.8145
        XZ      89.5117     YZ      49.5734     ZZ     -11.5644
    Octopole Moments (Debye-Ang^2)
       XXX     -72.7875    XXY    -631.8181    XYY     463.7128
       YYY   -1139.0986    XXZ   -1217.8217    XYZ     891.5167
       YYZ    -255.8682    XZZ    1586.7157    YZZ     563.1969
       ZZZ   -2038.1286
    Hexadecapole Moments (Debye-Ang^3)
      XXXX    -514.1146   XXXY    -776.7319   XXYY   -6708.4860
      XYYY    4011.7102   YYYY  -29223.1724   XXXZ   -1717.6525
      XXYZ  -12686.6289   XYYZ    8247.3162   YYYZ  -23277.4826
      XXZZ  -24671.8709   XYZZ   15802.1483   YYZZ  -10860.3266
      XZZZ   27218.8831   YZZZ   -9248.7003   ZZZZ -101860.8555
 -----------------------------------------------------------------
 Calculating analytic gradient of the SCF energy
 Gradient of SCF Energy
            1           2           3           4           5           6
    1  -0.0005769  -0.0015023  -0.0080575   0.0004663  -0.0081740   0.0041579
    2  -0.0094295  -0.0000022   0.0023640   0.0040511  -0.0024413  -0.0014710
    3   0.0022918  -0.0009028   0.0048593  -0.0036701  -0.0018147  -0.0026607
            7           8           9          10          11          12
    1   0.0009807   0.0018898   0.0026769  -0.0015546  -0.0010201   0.0027954
    2  -0.0012944   0.0010178   0.0042052   0.0013187  -0.0006861  -0.0002293
    3  -0.0011490   0.0029324  -0.0012541   0.0004317   0.0007680   0.0002385
           13          14          15          16          17          18
    1   0.0002368   0.0029488  -0.0017674   0.0014695   0.0044511  -0.0063734
    2  -0.0001495   0.0004977  -0.0000721   0.0021131   0.0006737  -0.0076790
    3   0.0019853  -0.0008737  -0.0005547   0.0006126  -0.0020494   0.0038835
           19          20          21          22
    1   0.0101739  -0.0118974   0.0050410   0.0036355
    2   0.0039478   0.0098324  -0.0024627  -0.0041043
    3  -0.0043243   0.0042716  -0.0023012  -0.0007200
 Max gradient component =       1.190E-02
 RMS gradient           =       3.907E-03
 Computing fast CPCM-SWIG gradient
 Updating gradient with PCM contributions...
 -- total gradient after adding PCM contribution --
---------------------------------------------------
  Atom         X              Y              Z     
---------------------------------------------------
   1       0.003353      -0.003819      -0.000897
   2      -0.001331      -0.000114      -0.003283
   3      -0.001289       0.001592       0.001877
   4       0.000125      -0.000201      -0.000691
   5      -0.003610      -0.000541       0.000990
   6       0.000707       0.001251       0.000118
   7       0.000561       0.000089      -0.000640
   8       0.000277       0.000309       0.001762
   9      -0.001495       0.002232       0.000296
  10      -0.000736       0.000141       0.000889
  11       0.000466      -0.000042       0.000275
  12       0.000659       0.000812      -0.000464
  13       0.000482      -0.000053      -0.000036
  14       0.000208      -0.000614      -0.000134
  15      -0.000265       0.000537      -0.000973
  16       0.000809      -0.000204      -0.000055
  17       0.000266      -0.001218      -0.000543
  18       0.001738      -0.003798       0.001204
  19      -0.000012      -0.000485      -0.000046
  20      -0.006481       0.011898       0.000429
  21       0.001733      -0.003740       0.000126
  22       0.003833      -0.004032      -0.000202
---------------------------------------------------
 Number of fixed atoms: 0
 Gradient time:  CPU 126.16 s  wall 11.96 s
 Geometry Optimization Parameters
   NAtoms,    NIC,     NZ,  NCons,   NDum,   NFix, NCnnct, MaxDiis
       22     172       0       0       0       0       0       0

 Cartesian Hessian Update
 Hessian updated using BFGS update


** GEOMETRY OPTIMIZATION IN DELOCALIZED INTERNAL COORDINATES **
   Searching for a Minimum

   Optimization Cycle:   4

                       Coordinates (Angstroms)
     ATOM                X               Y               Z
      1  C         0.4985248380   11.8655086438   20.4176544781
      2  C         0.4353438156   10.4416188695   19.8414469101
      3  C         1.5192361676    9.5416359823   20.4563741026
      4  C         1.4271500339    9.5136186224   21.9893409572
      5  C         1.4539114525   10.9270289473   22.5923192776
      6  C         0.4140741069   11.8592723615   21.9539510755
      7  H         1.4253306762    8.5283112121   20.0442991989
      8  H        -0.5452139482   10.0169576748   20.0796312928
      9  H         1.4211020265   12.3693645456   20.0935302627
     10  H        -0.3364730919   12.4534652110   20.0125691954
     11  H         0.5022785506    9.0001553617   22.2898194382
     12  H         2.2619204858    8.9253520478   22.3915590300
     13  H         1.3071548405   10.8775495400   23.6790229781
     14  H         2.4578060402   11.3510835500   22.4334665252
     15  H        -0.5986135850   11.5428929773   22.2446705091
     16  H         0.5473521717   12.8805327842   22.3328835767
     17  H         2.5112992760    9.9082418836   20.1492635109
     18  N         0.5415982179   10.4589039640   18.3832290899
     19  H         1.3960066210   10.8273391754   17.9784577928
     20  C        -0.4425238665   10.1226256573   17.5238957605
     21  H        -0.1304008568   10.2170564482   16.4695373838
     22  O        -1.5368639725    9.6414845401   17.8330776540
   Point Group: c1    Number of degrees of freedom:    60


   Energy is   -404.597456031

 Hessian updated using BFGS update

 60 Hessian modes will be used to form the next step
  Hessian Eigenvalues:
     0.004830    0.005383    0.006545    0.008377    0.012705    0.017709
     0.018545    0.018765    0.032639    0.035886    0.037094    0.041014
     0.045211    0.047345    0.049627    0.050920    0.053320    0.056678
     0.059999    0.066737    0.071813    0.080434    0.081344    0.083096
     0.083937    0.087318    0.090100    0.091303    0.123538    0.125723
     0.139395    0.157482    0.159344    0.162720    0.178317    0.211719
     0.219527    0.220248    0.269069    0.272584    0.275523    0.282257
     0.284857    0.287488    0.330956    0.334308    0.336970    0.338384
     0.344056    0.345307    0.345829    0.346499    0.347750    0.349694
     0.351641    0.356578    0.377464    0.466489    0.488003    0.936717

 Minimum search - taking simple RFO step
 Searching for Lamda that Minimizes Along All modes
 Value Taken    Lamda =  -0.00233822
 Calculated Step too Large.  Step scaled by  0.946848
 Step Taken.  Stepsize is  0.300000

                             Maximum     Tolerance    Cnvgd?
         Gradient           0.007563      0.000100      NO
         Displacement       0.158216      0.000100      NO
         Energy change     -0.001834      0.000000      NO


 New Cartesian Coordinates Obtained by Inverse Iteration

 Displacement from previous Coordinates is:  0.286480
 ----------------------------------------------------------------
             Standard Nuclear Orientation (Angstroms)
    I     Atom           X                Y                Z
 ----------------------------------------------------------------
    1      C       0.4802872102    11.8604194697    20.4211336253
    2      C       0.4338308330    10.4335065314    19.8454105148
    3      C       1.5200286049     9.5365562273    20.4627270062
    4      C       1.4277180640     9.5206313428    21.9969381239
    5      C       1.4812651692    10.9420018127    22.5773899801
    6      C       0.4039627678    11.8442310173    21.9577936785
    7      H       1.4236910948     8.5218428767    20.0569327497
    8      H      -0.5494541513     9.9989708336    20.0553247215
    9      H       1.4266615170    12.3282929495    20.1081239304
   10      H      -0.3388924759    12.4521520589    19.9949946041
   11      H       0.4889996605     9.0317340440    22.2989056926
   12      H       2.2421681055     8.9123717683    22.4121727486
   13      H       1.3460085832    10.9066358643    23.6669020828
   14      H       2.4762524685    11.3771506753    22.3950149923
   15      H      -0.5906058307    11.4940742772    22.2719024335
   16      H       0.5080425308    12.8692200222    22.3378764477
   17      H       2.5093888880     9.9160883905    20.1621451013
   18      N       0.5468018470    10.4563483263    18.3835001672
   19      H       1.4054156748    10.8205050407    17.9823158872
   20      C      -0.4261352294    10.1071993339    17.5194860932
   21      H      -0.1302467536    10.2427519949    16.4651042272
   22      O      -1.5551885780     9.6973151425    17.8179051918
 ----------------------------------------------------------------
 Nuclear Repulsion Energy =         466.36900755 hartrees
 There are       35 alpha and       35 beta electrons
 Discretize the solute cavity surface with Lebedev spheres
	Using 302 Lebedev grid points for each H atom
	Using 302 Lebedev grid points for other atoms
	Atomic van der Waals radii will be scaled by 1.20
 Remove points where switching function is < 1.0e-08
 Keep 2735 surface tesserae and discard 3909 interior tesserae
 Molecular Surface Area = 182.598 Angst**2
 Applying Cartesian multipole field
    Component          Value
    ---------          -----
     (2,0,0)        1.00000E-11
     (0,2,0)        2.00000E-12
     (0,0,2)       -3.00000E-13
 Nucleus-field energy     =     0.0000000282 hartrees
 Requested basis set is 6-31+G(d)
 There are 71 shells and 197 basis functions
 A cutoff of  1.0D-14 yielded   2411 shell pairs
 There are     18991 function pairs
 Smallest overlap matrix eigenvalue = 2.47E-05
 Guess MOs from SCF MO coefficient file

 -----------------------------------------------------------------------
  General SCF calculation program by
  Eric Jon Sundstrom, Paul Horn, Yuezhi Mao, Dmitri Zuev, Alec White,
  David Stuck, Shaama M.S., Shane Yost, Joonho Lee, David Small,
  Daniel Levine, Susi Lehtola, Hugh Burton, Evgeny Epifanovsky,
  Bang C. Huynh
 -----------------------------------------------------------------------
 Exchange:     0.2000 Hartree-Fock + 0.0800 Slater + 0.7200 B88
 Correlation:  0.1900 VWN1RPA + 0.8100 LYP
 Using Euler-Maclaurin-Lebedev (99,590) quadrature formula
 using 16 threads for integral computing
 -------------------------------------------------------
 OpenMP Integral computing Module                
 Release: version 2.0, May 2017, Q-Chem Inc. Pleasanton 
 -------------------------------------------------------
 A restricted SCF calculation will be
 performed using Roothaan-Hall, DIIS
 SCF converges when DIIS error is below 1.0e-08
 ---------------------------------------
  Cycle       Energy         DIIS error
 ---------------------------------------
    1    -404.5804056071      8.04e-04  Roothaan Step
 ---------------------------------------
  Cycle       Energy         DIIS error
 ---------------------------------------
    1    -404.5910265403      1.03e-03  
    2    -404.5787402286      2.25e-03  
    3    -404.5981412908      1.71e-04  
    4    -404.5982564221      9.16e-05  
    5    -404.5982885408      2.81e-05  
    6    -404.5982917092      7.36e-06  
    7    -404.5982919131      2.51e-06  
    8    -404.5982919432      4.77e-07  
    9    -404.5982919442      1.99e-07  
   10    -404.5982919444      3.72e-08  
   11    -404.5982919444      9.06e-09  Convergence criterion met
 ---------------------------------------
 SCF time:   CPU 813.23s  wall 54.00s 

************** Final PCM Free Energy Summary **************
 G_electrostatic  =      -0.01419320 hartree =      -8.90637008 kcal/mol
 G_cavitation     =       0.00000000 hartree =       0.00000000 kcal/mol
 G_dispersion     =       0.00000000 hartree =       0.00000000 kcal/mol
 G_repulsion      =       0.00000000 hartree =       0.00000000 kcal/mol
 --------------------------------------------------
 Non-electrostatic Free Energy =       0.00000000 hartree =       0.00000000 kcal/mol
 Total                         =      -0.01419320 hartree =      -8.90637008 kcal/mol
 --------------------------------------------------
 SCF Energy (H0 + V/2)                       =    -404.59829194 
 Solute Internal Energy (H0)                 =    -404.58409874 
 Total Free Energy (H0 + V/2 + non-elec)     =    -404.59829194 hartree
                                             = -253889.26014552 kcal/mol
***********************************************************

 SCF   energy in the final basis set =     -404.5982919444
 Total energy in the final basis set =     -404.5982919444
 
 --------------------------------------------------------------
 
                    Orbital Energies (a.u.)
 --------------------------------------------------------------
 
 Alpha MOs
 -- Occupied --
-19.1322 -14.3724 -10.2932 -10.2266 -10.1852 -10.1851 -10.1824 -10.1822
-10.1806  -1.0377  -0.9337  -0.8265  -0.7447  -0.7437  -0.6383  -0.6139
 -0.5935  -0.5649  -0.5271  -0.4846  -0.4619  -0.4444  -0.4394  -0.4195
 -0.4179  -0.3970  -0.3807  -0.3749  -0.3492  -0.3462  -0.3239  -0.3143
 -0.3115  -0.2681  -0.2608
 -- Virtual --
  0.0064   0.0098   0.0145   0.0240   0.0244   0.0395   0.0478   0.0483
  0.0573   0.0680   0.0687   0.0824   0.0864   0.0935   0.0991   0.1034
  0.1103   0.1161   0.1237   0.1330   0.1396   0.1502   0.1545   0.1606
  0.1695   0.1793   0.1811   0.1872   0.1979   0.2010   0.2096   0.2130
  0.2202   0.2246   0.2319   0.2440   0.2468   0.2538   0.2629   0.2685
  0.2801   0.2812   0.2869   0.2886   0.2931   0.3055   0.3097   0.3253
  0.3278   0.3303   0.3590   0.3700   0.3848   0.3857   0.4148   0.4190
  0.4380   0.4573   0.4856   0.6079   0.6377   0.6547   0.6651   0.6660
  0.6832   0.6968   0.7286   0.7315   0.7441   0.7525   0.7748   0.7792
  0.8002   0.8036   0.8184   0.8473   0.8605   0.9103   0.9526   0.9737
  0.9774   0.9907   1.0195   1.0261   1.0292   1.0545   1.0879   1.0997
  1.1164   1.1214   1.1254   1.1440   1.1612   1.1693   1.1829   1.1907
  1.2373   1.2485   1.2836   1.3304   1.3412   1.3705   1.3888   1.4146
  1.4776   1.4878   1.4917   1.5672   1.5753   1.6154   1.6944   1.7300
  1.7350   1.7544   1.7671   1.8052   1.8511   1.8715   1.9009   1.9062
  1.9105   1.9392   1.9768   2.0081   2.0167   2.0435   2.0540   2.0854
  2.0927   2.1292   2.2018   2.2148   2.2769   2.3072   2.3156   2.3431
  2.3955   2.4089   2.4185   2.4236   2.4475   2.5597   2.5847   2.6215
  2.6719   2.6826   2.7039   2.7603   2.7784   2.8326   2.8636   2.9951
  3.1864   4.0918   4.1940   4.2302   4.2936   4.3320   4.4154   4.6013
  4.6066   4.6712
 --------------------------------------------------------------
 
          Ground-State Mulliken Net Atomic Charges

     Atom                 Charge (a.u.)
  ----------------------------------------
      1 C                    -0.271605
      2 C                    -0.442343
      3 C                    -0.279186
      4 C                    -0.446814
      5 C                    -0.383076
      6 C                    -0.454552
      7 H                     0.211878
      8 H                     0.231392
      9 H                     0.208429
     10 H                     0.211843
     11 H                     0.207679
     12 H                     0.202268
     13 H                     0.199176
     14 H                     0.201636
     15 H                     0.208068
     16 H                     0.202231
     17 H                     0.208510
     18 N                    -0.383203
     19 H                     0.438833
     20 C                     0.342516
     21 H                     0.174714
     22 O                    -0.588395
  ----------------------------------------
  Sum of atomic charges =     0.000000

 -----------------------------------------------------------------
                    Cartesian Multipole Moments
 -----------------------------------------------------------------
    Charge (ESU x 10^10)
                 0.0000
    Dipole Moment (Debye)
         X       5.0595      Y       1.9797      Z       1.1621
       Tot       5.5559
[...]

 Mode:                40                     41                     42
 Frequency:      1404.85                1496.06                1498.88
 Force Cnst:      1.7108                 1.4346                 1.4431
 Red. Mass:       1.4713                 1.0878                 1.0902
 IR Active:          YES                    YES                    YES
 IR Intens:        0.800                  0.136                  4.814
 Raman Active:       YES                    YES                    YES
               X      Y      Z        X      Y      Z        X      Y      Z
 C         -0.010  0.056  0.094    0.011  0.038 -0.032    0.001  0.019  0.003
 C         -0.021 -0.012 -0.099   -0.007  0.015 -0.001    0.001 -0.000 -0.010
 C          0.036 -0.043  0.098   -0.034  0.017  0.030    0.016 -0.012  0.003
 C         -0.011  0.040  0.022   -0.008 -0.020  0.022   -0.006 -0.020  0.005
 C         -0.008 -0.004 -0.010    0.005 -0.014 -0.001   -0.053 -0.024 -0.047
 C          0.023 -0.034  0.024    0.021 -0.008 -0.022   -0.020  0.010  0.005
 H         -0.090  0.146 -0.370    0.378  0.036 -0.155   -0.122 -0.009  0.033
 H          0.077  0.057  0.472    0.030 -0.068  0.000    0.007  0.005  0.027
 H         -0.027 -0.145 -0.288    0.236 -0.280  0.214    0.061 -0.107  0.009
 H          0.051 -0.166 -0.357   -0.300 -0.268  0.166   -0.080 -0.076  0.030
 H          0.014 -0.040 -0.032   -0.147  0.159 -0.152   -0.107  0.154 -0.047
 H          0.001 -0.123 -0.249    0.183  0.166 -0.104    0.130  0.107 -0.095
 H         -0.064 -0.025 -0.022    0.008  0.003  0.001    0.567  0.253  0.046
 H         -0.023 -0.011 -0.062   -0.026  0.062  0.008    0.073  0.039  0.614
 H         -0.022  0.039 -0.038   -0.020  0.220  0.150    0.044 -0.193 -0.049
 H         -0.090  0.078 -0.247   -0.249 -0.022  0.101    0.178  0.024 -0.099
 H         -0.124  0.071 -0.302    0.046 -0.344 -0.197   -0.040  0.128  0.011
 N          0.004  0.002 -0.033   -0.000 -0.000 -0.000   -0.000 -0.000 -0.002
 H          0.061  0.025  0.108    0.001 -0.001  0.001    0.006  0.002  0.013
 C          0.002  0.001  0.026    0.000 -0.000  0.000    0.001  0.000  0.002
 H         -0.005 -0.002  0.037   -0.000  0.000  0.000   -0.001 -0.000  0.002
 O          0.003  0.001 -0.005   -0.000 -0.000  0.000   -0.000 -0.000 -0.000
 TransDip  -0.000 -0.003  0.028    0.005 -0.011  0.003    0.061  0.026  0.024

 Mode:                43                     44                     45
 Frequency:      1501.71                1503.01                1515.46
 Force Cnst:      1.4589                 1.4500                 1.4903
 Red. Mass:       1.0980                 1.0894                 1.1014
 IR Active:          YES                    YES                    YES
 IR Intens:        7.175                 11.751                  0.745
 Raman Active:       YES                    YES                    YES
               X      Y      Z        X      Y      Z        X      Y      Z
 C          0.000  0.034 -0.020   -0.006 -0.035  0.016   -0.001 -0.035  0.015
 C          0.002 -0.005 -0.001    0.000 -0.000  0.014   -0.004 -0.001  0.012
 C         -0.019  0.018  0.015   -0.036  0.025  0.020   -0.027  0.024  0.015
 C          0.004  0.046 -0.034   -0.004 -0.030  0.017    0.000  0.036 -0.019
 C          0.001 -0.002 -0.001    0.006  0.002  0.010   -0.024 -0.011 -0.033
 C         -0.031  0.024  0.029   -0.031  0.023  0.022    0.027 -0.024 -0.018
 H          0.200  0.036 -0.094    0.377  0.032 -0.132    0.290  0.038 -0.117
 H         -0.006  0.016  0.002   -0.008 -0.003 -0.015   -0.009 -0.005 -0.013
 H          0.168 -0.224  0.129   -0.182  0.234 -0.139   -0.169  0.231 -0.118
 H         -0.216 -0.171  0.121    0.227  0.213 -0.106    0.217  0.180 -0.115
 H          0.252 -0.312  0.215   -0.166  0.202 -0.144    0.173 -0.226  0.133
 H         -0.318 -0.256  0.185    0.204  0.188 -0.094   -0.224 -0.181  0.114
 H         -0.011  0.030 -0.001   -0.054 -0.021  0.005    0.289  0.128  0.009
 H          0.006 -0.012  0.003   -0.010 -0.005 -0.060    0.041  0.023  0.322
 H          0.055 -0.340 -0.175    0.051 -0.329 -0.170   -0.052  0.284  0.128
 H          0.341  0.054 -0.160    0.343  0.034 -0.123   -0.287 -0.042  0.113
 H          0.042 -0.208 -0.091    0.064 -0.362 -0.162    0.060 -0.291 -0.115
 N         -0.000  0.001  0.000   -0.000 -0.000 -0.003    0.006  0.002  0.010
 H          0.001 -0.001  0.001   -0.003 -0.001 -0.008   -0.024 -0.009 -0.065
 C          0.000  0.000 -0.000   -0.001 -0.000  0.000   -0.006 -0.002 -0.007
 H          0.000 -0.001 -0.000    0.000  0.000  0.001    0.003  0.001 -0.008
 O         -0.000 -0.000  0.000    0.001  0.000 -0.000    0.002  0.001  0.000
 TransDip   0.027 -0.081  0.008    0.078  0.025 -0.073   -0.013 -0.003 -0.024

 Mode:                46                     47                     48
 Frequency:      1551.68                1688.61                2231.88
 Force Cnst:      2.4937                14.5729                 7.0409
 Red. Mass:       1.7579                 8.6744                 2.3990
 IR Active:          YES                    YES                    YES
 IR Intens:      242.759                780.539                101.348
 Raman Active:       YES                    YES                    YES
               X      Y      Z        X      Y      Z        X      Y      Z
 C         -0.003 -0.004  0.009   -0.005 -0.007  0.018   -0.000 -0.000 -0.000
 C          0.058  0.023  0.059    0.015  0.006 -0.032    0.001  0.000  0.003
 C         -0.006  0.001  0.010   -0.009  0.001  0.018   -0.000  0.000 -0.000
 C         -0.001  0.000 -0.009    0.005 -0.004 -0.005   -0.000  0.000 -0.000
 C         -0.002 -0.001 -0.000   -0.001 -0.000  0.001   -0.000 -0.000 -0.000
 C         -0.001 -0.001 -0.009    0.000  0.007 -0.005    0.000 -0.000 -0.000
 H          0.032  0.004  0.001    0.013  0.016 -0.019    0.001 -0.000  0.000
 H         -0.009 -0.009 -0.348    0.052  0.021  0.060    0.000 -0.000  0.008
 H         -0.010 -0.021 -0.054   -0.017 -0.018 -0.028   -0.000  0.000 -0.000
 H          0.026  0.026  0.004    0.023  0.000 -0.018    0.001  0.001  0.000
 H          0.022 -0.015  0.036    0.007  0.003  0.003   -0.000 -0.000 -0.000
 H         -0.028 -0.011  0.026   -0.012  0.007  0.038    0.000 -0.000 -0.000
 H          0.025  0.012  0.003    0.010  0.005  0.000   -0.000 -0.000  0.000
 H          0.002  0.001  0.020   -0.001 -0.001  0.003    0.000  0.000 -0.000
 H          0.003  0.026  0.034    0.007  0.003  0.004   -0.000 -0.000 -0.000
 H         -0.027 -0.012  0.024   -0.004 -0.013  0.039   -0.000  0.000 -0.000
 H         -0.024  0.007 -0.057   -0.025  0.000 -0.026   -0.000 -0.000  0.000
 N         -0.100 -0.039 -0.171   -0.107 -0.040 -0.012    0.004  0.001  0.014
 H          0.288  0.112  0.830   -0.249 -0.090 -0.359   -0.015 -0.006 -0.060
 C          0.044  0.017  0.091    0.629  0.233 -0.021    0.061  0.022 -0.184
 H         -0.031 -0.011  0.130   -0.074 -0.031 -0.396   -0.257 -0.089  0.940
 O          0.006  0.002 -0.013   -0.360 -0.133  0.098   -0.016 -0.006  0.010
 TransDip   0.300  0.114  0.382    0.807  0.303  0.238    0.150  0.054 -0.280

 Mode:                49                     50                     51
 Frequency:      3012.04                3013.38                3016.39
 Force Cnst:      5.7082                 5.7148                 5.7345
 Red. Mass:       1.0679                 1.0682                 1.0697
 IR Active:          YES                    YES                    YES
 IR Intens:       29.869                 31.943                 37.053
 Raman Active:       YES                    YES                    YES
               X      Y      Z        X      Y      Z        X      Y      Z
 C          0.026  0.026 -0.018    0.009  0.013 -0.008   -0.034 -0.033  0.022
 C          0.001 -0.000 -0.000   -0.002 -0.001  0.000    0.006  0.003 -0.000
 C         -0.050 -0.002  0.024    0.006 -0.002 -0.003   -0.038 -0.002  0.017
 C          0.016  0.009 -0.006    0.018  0.008 -0.004    0.016  0.006 -0.004
 C          0.005  0.002  0.001   -0.060 -0.027 -0.011   -0.010 -0.004  0.004
 C         -0.017 -0.005  0.006    0.014  0.006 -0.003    0.024  0.008 -0.008
 H         -0.037 -0.227 -0.083    0.007  0.057  0.019   -0.024 -0.155 -0.056
 H         -0.014 -0.006  0.003    0.030  0.013 -0.007   -0.084 -0.037  0.018
 H         -0.452 -0.219  0.143   -0.190 -0.092  0.058    0.582  0.285 -0.184
 H          0.139 -0.088  0.064    0.082 -0.055  0.036   -0.163  0.105 -0.074
 H         -0.205 -0.103  0.066   -0.210 -0.107  0.068   -0.175 -0.089  0.056
 H          0.012 -0.002  0.005   -0.009  0.009 -0.011   -0.016  0.016 -0.009
 H          0.003  0.005 -0.028   -0.047 -0.017  0.288    0.003  0.000 -0.029
 H         -0.063 -0.025  0.014    0.772  0.340 -0.169    0.129  0.057 -0.025
 H          0.214  0.081 -0.065   -0.171 -0.064  0.052   -0.296 -0.112  0.089
 H         -0.007 -0.018 -0.007   -0.001 -0.018 -0.012    0.007  0.010  0.003
 H          0.640  0.252 -0.195   -0.080 -0.032  0.022    0.483  0.188 -0.146
 N         -0.000  0.000 -0.000   -0.000 -0.000 -0.000   -0.000 -0.000 -0.000
 H         -0.001  0.002 -0.001   -0.000  0.000  0.001   -0.000 -0.000 -0.004
 C          0.000  0.000 -0.000    0.000  0.000  0.000    0.001  0.000 -0.000
 H          0.000 -0.000 -0.000    0.000 -0.000 -0.000   -0.000 -0.000 -0.001
 O         -0.000  0.000  0.000   -0.000 -0.000 -0.000   -0.000 -0.000  0.000
 TransDip  -0.086  0.149  0.031   -0.080 -0.017 -0.161   -0.140 -0.090  0.101

 Mode:                52                     53                     54
 Frequency:      3019.87                3021.42                3062.93
 Force Cnst:      5.7101                 5.7062                 6.0451
 Red. Mass:       1.0627                 1.0609                 1.0936
 IR Active:          YES                    YES                    YES
 IR Intens:       14.322                112.113                111.137
 Raman Active:       YES                    YES                    YES
               X      Y      Z        X      Y      Z        X      Y      Z
 C          0.005  0.015 -0.010   -0.003 -0.013  0.008   -0.016  0.004 -0.002
 C         -0.001  0.000  0.000    0.003  0.001 -0.000    0.006  0.003 -0.001
 C         -0.010  0.007  0.008   -0.010  0.007  0.007   -0.008 -0.017 -0.003
 C         -0.023 -0.035  0.023   -0.016 -0.033  0.021   -0.013  0.013 -0.009
 C          0.000  0.001 -0.000   -0.014 -0.006 -0.023    0.027  0.011 -0.073
 C          0.040 -0.007 -0.022   -0.035  0.011  0.021    0.000 -0.021 -0.009
 H         -0.017 -0.141 -0.051   -0.016 -0.132 -0.048    0.016  0.168  0.064
 H          0.006 -0.000 -0.001   -0.036 -0.016  0.009   -0.073 -0.032  0.017
 H         -0.190 -0.090  0.059    0.146  0.069 -0.045    0.075  0.039 -0.025
 H          0.130 -0.090  0.061   -0.115  0.081 -0.054    0.115 -0.085  0.058
 H          0.520  0.254 -0.163    0.447  0.219 -0.138   -0.027 -0.011  0.006
 H         -0.236  0.162 -0.108   -0.251  0.176 -0.117    0.185 -0.138  0.091
 H          0.001 -0.004  0.005   -0.040 -0.014  0.321   -0.089 -0.029  0.833
 H         -0.003 -0.000  0.000    0.203  0.089 -0.050   -0.238 -0.105  0.039
 H         -0.510 -0.200  0.153    0.460  0.180 -0.136   -0.017 -0.009  0.003
 H          0.037  0.285  0.102   -0.037 -0.309 -0.112    0.023  0.260  0.097
 H          0.138  0.057 -0.041    0.128  0.052 -0.039    0.083  0.029 -0.026
 N          0.000 -0.000  0.000    0.000  0.000  0.000   -0.000 -0.000 -0.000
 H         -0.000  0.001  0.000    0.000  0.000 -0.002    0.001  0.000 -0.001
 C         -0.000 -0.000  0.000   -0.000 -0.000 -0.000    0.000  0.000  0.000
 H          0.000  0.000  0.000   -0.000  0.000  0.000   -0.000 -0.000 -0.000
 O          0.000  0.000 -0.000    0.000  0.000  0.000   -0.000 -0.000  0.000
 TransDip   0.055 -0.108 -0.004   -0.279 -0.124  0.147   -0.028 -0.029 -0.335

 Mode:                55                     56                     57
 Frequency:      3064.26                3068.03                3069.70
 Force Cnst:      6.0710                 6.0910                 6.0829
 Red. Mass:       1.0974                 1.0983                 1.0956
 IR Active:          YES                    YES                    YES
 IR Intens:      107.333                 76.124                 73.134
 Raman Active:       YES                    YES                    YES
               X      Y      Z        X      Y      Z        X      Y      Z
 C          0.006 -0.009  0.006    0.009 -0.011  0.007   -0.035  0.014 -0.010
 C         -0.000  0.001 -0.000   -0.001 -0.001  0.001    0.023  0.010 -0.006
 C          0.002 -0.010 -0.006   -0.001  0.018  0.008   -0.023 -0.060 -0.015
 C          0.058 -0.020  0.014   -0.054  0.017 -0.011   -0.020 -0.004  0.003
 C         -0.001 -0.001  0.002   -0.023 -0.010  0.017   -0.014 -0.006  0.025
 C         -0.025 -0.056 -0.013   -0.024 -0.051 -0.010   -0.011 -0.006  0.003
 H          0.015  0.139  0.055   -0.023 -0.227 -0.089    0.066  0.642  0.253
 H         -0.001  0.001  0.000    0.024  0.011 -0.005   -0.285 -0.125  0.066
 H          0.039  0.017 -0.012    0.037  0.016 -0.012    0.109  0.060 -0.040
 H         -0.113  0.082 -0.058   -0.151  0.110 -0.077    0.306 -0.224  0.158
 H         -0.219 -0.118  0.076    0.229  0.124 -0.078    0.175  0.091 -0.057
 H         -0.470  0.353 -0.236    0.422 -0.318  0.210    0.058 -0.045  0.030
 H          0.003  0.000 -0.026    0.017  0.005 -0.161    0.029  0.009 -0.269
 H          0.011  0.003 -0.002    0.247  0.109 -0.048    0.139  0.062 -0.024
 H          0.246  0.085 -0.078    0.250  0.086 -0.078    0.127  0.046 -0.038
 H          0.052  0.588  0.224    0.045  0.523  0.197    0.002  0.030  0.011
 H         -0.037 -0.016  0.012    0.021  0.011 -0.007    0.218  0.075 -0.073
 N          0.000 -0.000  0.000   -0.000 -0.000 -0.000   -0.000  0.000  0.000
 H          0.000 -0.000 -0.000   -0.000 -0.000 -0.001    0.004  0.002 -0.002
 C          0.000 -0.000  0.000    0.000  0.000 -0.000    0.000  0.000  0.000
 H         -0.000  0.000  0.000   -0.000 -0.000 -0.000    0.000  0.000 -0.000
 O         -0.000  0.000  0.000   -0.000 -0.000 -0.000   -0.000 -0.000  0.000
 TransDip   0.129 -0.305  0.013   -0.259 -0.103  0.014   -0.228 -0.152 -0.010

 Mode:                58                     59                     60
 Frequency:      3071.34                3097.79                3583.05
 Force Cnst:      6.1051                 6.1512                 8.1561
 Red. Mass:       1.0985                 1.0879                 1.0783
 IR Active:          YES                    YES                    YES
 IR Intens:       49.038                 48.579                 49.022
 Raman Active:       YES                    YES                    YES
               X      Y      Z        X      Y      Z        X      Y      Z
 C         -0.068  0.024 -0.017   -0.022  0.003 -0.003    0.000  0.000 -0.000
 C          0.005  0.003 -0.002   -0.071 -0.031  0.016   -0.001 -0.000 -0.001
 C          0.019  0.043  0.010   -0.012 -0.019 -0.002    0.000  0.000 -0.000
 C          0.012  0.000  0.000   -0.005 -0.001  0.001    0.000  0.000 -0.000
 C         -0.002 -0.002  0.004   -0.001 -0.001  0.002    0.000  0.000 -0.000
 C         -0.013 -0.010  0.002   -0.004 -0.002  0.001    0.000  0.000 -0.000
 H         -0.046 -0.452 -0.178    0.016  0.174  0.066   -0.000 -0.000  0.000
 H         -0.071 -0.029  0.016    0.837  0.368 -0.184    0.009  0.004 -0.005
 H          0.246  0.131 -0.087    0.127  0.070 -0.040   -0.000  0.001  0.001
 H          0.564 -0.413  0.291    0.142 -0.106  0.072   -0.000  0.000 -0.000
 H         -0.082 -0.042  0.028    0.046  0.024 -0.017   -0.000 -0.000 -0.000
 H         -0.056  0.042 -0.028    0.009 -0.006  0.003   -0.000  0.000  0.000
 H          0.004  0.003 -0.044    0.002  0.001 -0.018   -0.000 -0.000  0.000
 H          0.021  0.008 -0.003    0.014  0.006 -0.002   -0.000 -0.000  0.000
 H          0.139  0.051 -0.044    0.048  0.018 -0.017   -0.000 -0.000 -0.000
 H          0.005  0.067  0.025    0.002  0.010  0.003   -0.000 -0.000 -0.000
 H         -0.183 -0.064  0.059    0.134  0.045 -0.039    0.000 -0.001  0.001
 N          0.000 -0.000  0.000    0.001  0.000  0.001   -0.064 -0.024  0.028
 H          0.001  0.000 -0.000   -0.010 -0.004 -0.001    0.859  0.323 -0.389
 C          0.000  0.000  0.000   -0.002 -0.001 -0.000    0.001  0.000  0.002
 H          0.000  0.000 -0.000    0.000 -0.000  0.001   -0.000 -0.000 -0.003
 O          0.000 -0.000  0.000    0.001  0.000 -0.001    0.001  0.000 -0.000
 TransDip  -0.136  0.178 -0.010   -0.192 -0.088  0.071    0.209  0.078 -0.019

 STANDARD THERMODYNAMIC QUANTITIES AT   298.18 K  AND     1.00 ATM

   This Molecule has  1 Imaginary Frequencies
   Zero point vibrational energy:      121.867 kcal/mol

   Atom    1 Element C  Has Mass   12.00000
   Atom    2 Element C  Has Mass   12.00000
   Atom    3 Element C  Has Mass   12.00000
   Atom    4 Element C  Has Mass   12.00000
   Atom    5 Element C  Has Mass   12.00000
   Atom    6 Element C  Has Mass   12.00000
   Atom    7 Element H  Has Mass    1.00783
   Atom    8 Element H  Has Mass    1.00783
   Atom    9 Element H  Has Mass    1.00783
   Atom   10 Element H  Has Mass    1.00783
   Atom   11 Element H  Has Mass    1.00783
   Atom   12 Element H  Has Mass    1.00783
   Atom   13 Element H  Has Mass    1.00783
   Atom   14 Element H  Has Mass    1.00783
   Atom   15 Element H  Has Mass    1.00783
   Atom   16 Element H  Has Mass    1.00783
   Atom   17 Element H  Has Mass    1.00783
   Atom   18 Element N  Has Mass   14.00307
   Atom   19 Element H  Has Mass    1.00783
   Atom   20 Element C  Has Mass   12.00000
   Atom   21 Element H  Has Mass    2.01410
   Atom   22 Element O  Has Mass   15.99491
   Molecular Mass:   128.106042 amu
   Principal axes and moments of inertia in amu*Bohr^2:
                             1           2           3
    Eigenvalues --      538.45637  2027.42615  2227.89304
          X               0.39087    -0.42821     0.81477
          Y               0.16083     0.90335     0.39761
          Z               0.90629     0.02438    -0.42196
   Rotational Symmetry Number is   1
   The Molecule is an Asymmetric Top
   Translational Enthalpy:        0.889 kcal/mol
   Rotational Enthalpy:           0.889 kcal/mol
   Vibrational Enthalpy:        125.155 kcal/mol
   gas constant (RT):             0.593 kcal/mol
   Translational Entropy:        40.457  cal/mol.K
   Rotational Entropy:           29.277  cal/mol.K
   Vibrational Entropy:          18.141  cal/mol.K

   Total Enthalpy:              127.525 kcal/mol
   Total Entropy:                87.874  cal/mol.K
Archival summary:
1\1\node024\FREQ\ProcedureUnspecified\6-31+G*\11713\ymao90\ThuApr815:36:152021ThuApr815:36:152021\0\\#,FREQ,ProcedureUnspecified,6-31+G*,\\0,1\N\H,1,1.01485\C,1,1.34855,2,116.882\H,3,1.10333,1,112.587,2,0.598327,0\O,3,1.23617,1,125.922,2,-179.497,0\C,1,1.46619,2,117.719,3,-179.226,0\H,6,1.0947,1,105.806,2,-177.012,0\C,6,1.53891,1,110.645,2,-59.0285,0\H,8,1.09736,6,109.425,1,-58.8077,0\H,8,1.10109,6,108.818,1,57.8394,0\C,8,1.53787,6,111.383,1,178.572,0\H,11,1.0977,8,109.65,6,-177.622,0\H,11,1.10033,8,109.129,6,65.9341,0\C,11,1.53688,8,111.65,6,-54.9176,0\H,14,1.09794,11,110.129,8,177.192,0\H,14,1.10075,11,109.252,8,-65.9065,0\C,14,1.53686,11,111.237,8,54.7793,0\H,17,1.09771,14,110.42,11,-177.08,0\H,17,1.10036,14,109.241,11,65.9718,0\C,17,1.53782,14,111.603,11,-54.8148,0\H,20,1.09731,17,110.643,14,176.899,0\H,20,1.10094,17,109.491,14,-65.34,0\\\@

 Total job time:  884.56s(wall), 12262.65s(cpu) 
 Thu Apr  8 15:36:16 2021

        *************************************************************
        *                                                           *
        *  Thank you very much for using Q-Chem.  Have a nice day.  *
        *                                                           *
        *************************************************************


