                  Welcome to Q-Chem
     A Quantum Leap Into The Future Of Chemistry


 Q-Chem 5.2 (devel), Q-Chem, Inc., Pleasanton, CA (2019)

 Yihan Shao,  Zhengting Gan,  E. Epifanovsky,  A. T. B. Gilbert,  M. Wormit,  
 J. Kussmann,  A. W. Lange,  A. Behn,  Jia Deng,  Xintian Feng,  D. Ghosh,  
 M. Goldey,  P. R. Horn,  L. D. Jacobson,  I. Kaliman,  T. Kus,  A. Landau,  
 Jie Liu,  E. I. Proynov,  R. M. Richard,  R. P. Steele,  E. J. Sundstrom,  
 H. L. Woodcock III,  P. M. Zimmerman,  D. Zuev,  B. Alam,  B. Albrecht,  
 E. Alguire,  S. A. Baeppler,  D. Barton,  Z. Benda,  Y. A. Bernard,  
 E. J. Berquist,  K. B. Bravaya,  H. Burton,  K. Carter-Fenk,  D. Casanova,  
 Chun-Min Chang,  Yunqing Chen,  A. Chien,  K. D. Closser,  M. P. Coons,  
 S. Coriani,  S. Dasgupta,  A. L. Dempwolff,  M. Diedenhofen,  Hainam Do,  
 R. G. Edgar,  Po-Tung Fang,  S. Faraji,  S. Fatehi,  Qingguo Feng,  
 J. Fosso-Tande,  J. Gayvert,  Qinghui Ge,  A. Ghysels,  G. Gidofalvi,  
 J. Gomes,  J. Gonthier,  A. Gunina,  D. Hait,  M. W. D. Hanson-Heine,  
 P. H. P. Harbach,  A. W. Hauser,  M. F. Herbst,  J. E. Herr,  
 E. G. Hohenstein,  Z. C. Holden,  Kerwin Hui,  B. C. Huynh,  T.-C. Jagau,  
 Hyunjun Ji,  B. Kaduk,  K. Khistyaev,  Jaehoon Kim,  P. Klunzinger,  K. Koh,  
 D. Kosenkov,  L. Koulias,  T. Kowalczyk,  C. M. Krauter,  A. Kunitsa,  
 Ka Un Lao,  A. Laurent,  K. V. Lawler,  Joonho Lee,  D. Lefrancois,  
 S. Lehtola,  D. S. Levine,  Yi-Pei Li,  You-Sheng Lin,  Fenglai Liu,  
 Kuan-Yu Liu,  E. Livshits,  M. Loipersberger,  A. Luenser,  P. Manohar,  
 E. Mansoor,  S. F. Manzer,  Shan-Ping Mao,  Yuezhi Mao,  N. Mardirossian,  
 A. V. Marenich,  T. Markovich,  L. A. Martinez-Martinez,  S. A. Maurer,  
 N. J. Mayhall,  S. C. McKenzie,  J.-M. Mewes,  P. Morgante,  A. F. Morrison,  
 J. W. Mullinax,  K. Nanda,  T. S. Nguyen-Beck,  R. Olivares-Amaya,  
 J. A. Parkhill,  S. K. Paul,  F. Pavosevic,  Zheng Pei,  T. M. Perrine,  
 F. Plasser,  P. Pokhilko,  S. Prager,  A. Prociuk,  E. Ramos,  B. Rana,  
 D. R. Rehn,  F. Rob,  M. Scheurer,  M. Schneider,  N. Sergueev,  
 S. M. Sharada,  S. Sharma,  D. W. Small,  T. Stauch,  C. J. Stein,  
 T. Stein,  Yu-Chuan Su,  S. P. Veccham,  Zhen Tao,  A. J. W. Thom,  
 A. Tkatchenko,  T. Tsuchimochi,  N. M. Tubman,  L. Vogt,  M. L. Vidal,  
 O. Vydrov,  M. A. Watson,  J. Wenzel,  M. de Wergifosse,  T. A. Wesolowski,  
 A. White,  J. Witte,  A. Yamada,  Jun Yang,  K. Yao,  S. Yeganeh,  
 S. R. Yost,  Zhi-Qiang You,  A. Zech,  Igor Ying Zhang,  Xing Zhang,  
 Yan Zhao,  Ying Zhu,  B. R. Brooks,  G. K. L. Chan,  C. J. Cramer,  
 M. S. Gordon,  W. J. Hehre,  A. Klamt,  M. W. Schmidt,  C. D. Sherrill,  
 D. G. Truhlar,  A. Aspuru-Guzik,  R. Baer,  A. T. Bell,  N. A. Besley,  
 Jeng-Da Chai,  A. E. DePrince, III,  R. A. DiStasio Jr.,  A. Dreuw,  
 B. D. Dunietz,  T. R. Furlani,  Chao-Ping Hsu,  Yousung Jung,  Jing Kong,  
 D. S. Lambrecht,  WanZhen Liang,  C. Ochsenfeld,  V. A. Rassolov,  
 L. V. Slipchenko,  J. E. Subotnik,  T. Van Voorhis,  J. M. Herbert,  
 A. I. Krylov,  P. M. W. Gill,  M. Head-Gordon

 Contributors to earlier versions of Q-Chem not listed above: 
 R. D. Adamson,  B. Austin,  J. Baker,  G. J. O. Beran,  K. Brandhorst,  
 S. T. Brown,  E. F. C. Byrd,  A. K. Chakraborty,  C.-L. Cheng,  
 Siu Hung Chien,  D. M. Chipman,  D. L. Crittenden,  H. Dachsel,  
 R. J. Doerksen,  A. D. Dutoi,  L. Fusti-Molnar,  W. A. Goddard III,  
 A. Golubeva-Zadorozhnaya,  S. R. Gwaltney,  G. Hawkins,  A. Heyden,  
 S. Hirata,  G. Kedziora,  F. J. Keil,  C. Kelley,  Jihan Kim,  R. A. King,  
 R. Z. Khaliullin,  P. P. Korambath,  W. Kurlancheek,  A. M. Lee,  M. S. Lee,  
 S. V. Levchenko,  Ching Yeh Lin,  D. Liotard,  R. C. Lochan,  I. Lotan,  
 P. E. Maslen,  N. Nair,  D. P. O'Neill,  D. Neuhauser,  E. Neuscamman,  
 C. M. Oana,  R. Olson,  B. Peters,  R. Peverati,  P. A. Pieniazek,  
 Y. M. Rhee,  J. Ritchie,  M. A. Rohrdanz,  E. Rosta,  N. J. Russ,  
 H. F. Schaefer III,  N. E. Schultz,  N. Shenvi,  A. C. Simmonett,  A. Sodt,  
 D. Stuck,  K. S. Thanthiriwatte,  V. Vanovschi,  Tao Wang,  A. Warshel,  
 C. F. Williams,  Q. Wu,  X. Xu,  W. Zhang

 Please cite Q-Chem as follows:
 Y. Shao et al., Mol. Phys. 113, 184-215 (2015)
 DOI: 10.1080/00268976.2014.952696

 Q-Chem 5.2.2 for Intel X86 EM64T Linux

 Parts of Q-Chem use Armadillo 9.800.1 (Horizon Scraper).
 http://arma.sourceforge.net/

 Q-Chem begins on Thu Apr  8 15:08:48 2021  

Host: node023
0

     Scratch files written to /home/ymao90/scratch/probe_b3lyp_DCM20210408150847//
Symmetry turned off for PCM/SM12/SMD calculation

Checking the input file for inconsistencies... 	...done.

--------------------------------------------------------------
User input:
--------------------------------------------------------------
$molecule
0 1
C    0.58000    11.83000   20.41000  
C    0.42000    10.41000   19.83000  
C    1.53000    9.53000    20.44000  
C    1.44000    9.53000    21.98000  
C    1.37000    10.92000   22.65000  
C    0.42000    11.90000   21.94000  
H    1.49000    8.50000    20.05000  
H    -0.52000   10.00000   20.20000  
H    1.40000    12.47000   20.08000  
H    -0.28000   12.43000   20.08000  
H    0.54000    9.00000    22.28000  
H    2.32000    8.99000    22.34000  
H    1.27000    10.83000   23.73000  
H    2.37000    11.32000   22.50000  
H    -0.63000   11.62000   22.11000  
H    0.56000    12.91000   22.33000  
H    2.51000    9.84000    20.07000  
N    0.54000    10.41000   18.38000  
H    1.39000    10.78000   17.99000  
C    -0.47000   10.09000   17.50000  
H    -0.16000   10.30000   16.46000  
O    -1.56000   9.66000    17.84000  
$end

$rem
JOBTYPE  OPT
METHOD  B3LYP
BASIS  6-31+G(D)
SYMMETRY  FALSE
SYM_IGNORE  FALSE
MEM_TOTAL  8000
MEM_STATIC  2000
MAX_SUB_FILE_NUM  16000
BASIS_LIN_DEP_THRESH  6
THRESH  14
SCF_CONVERGENCE  8
GEN_SCFMAN  TRUE
SCF_GUESS  SAD
FD_MAT_VEC_PROD  FALSE
XC_GRID  000099000590
NL_GRID  1
MAX_SCF_CYCLES  200
GEOM_OPT_TOL_GRADIENT  100
GEOM_OPT_TOL_DISPLACEMENT  100
GEOM_OPT_TOL_ENERGY  10
SOLVENT_METHOD       PCM
$end

$PCM
THEORY                     CPCM
METHOD                     SWIG
SOLVER                     INVERSION
HPOINTS                    302
HEAVYPOINTS                302
$END

$SOLVENT
DIELECTRIC                 8.82
$END

--------------------------------------------------------------
 ----------------------------------------------------------------
             Standard Nuclear Orientation (Angstroms)
    I     Atom           X                Y                Z
 ----------------------------------------------------------------
    1      C       0.5800000000    11.8300000000    20.4100000000
    2      C       0.4200000000    10.4100000000    19.8300000000
    3      C       1.5300000000     9.5300000000    20.4400000000
    4      C       1.4400000000     9.5300000000    21.9800000000
    5      C       1.3700000000    10.9200000000    22.6500000000
    6      C       0.4200000000    11.9000000000    21.9400000000
    7      H       1.4900000000     8.5000000000    20.0500000000
    8      H      -0.5200000000    10.0000000000    20.2000000000
    9      H       1.4000000000    12.4700000000    20.0800000000
   10      H      -0.2800000000    12.4300000000    20.0800000000
   11      H       0.5400000000     9.0000000000    22.2800000000
   12      H       2.3200000000     8.9900000000    22.3400000000
   13      H       1.2700000000    10.8300000000    23.7300000000
   14      H       2.3700000000    11.3200000000    22.5000000000
   15      H      -0.6300000000    11.6200000000    22.1100000000
   16      H       0.5600000000    12.9100000000    22.3300000000
   17      H       2.5100000000     9.8400000000    20.0700000000
   18      N       0.5400000000    10.4100000000    18.3800000000
   19      H       1.3900000000    10.7800000000    17.9900000000
   20      C      -0.4700000000    10.0900000000    17.5000000000
   21      H      -0.1600000000    10.3000000000    16.4600000000
   22      O      -1.5600000000     9.6600000000    17.8400000000
 ----------------------------------------------------------------
 Nuclear Repulsion Energy =         465.59151226 hartrees
 There are       35 alpha and       35 beta electrons
 Requested basis set is 6-31+G(d)
 There are 71 shells and 197 basis functions

 Total QAlloc Memory Limit   8000 MB
 Mega-Array Size      1956 MB
 MEM_STATIC part      2000 MB
 Discretize the solute cavity surface with Lebedev spheres
	Using 302 Lebedev grid points for each H atom
	Using 302 Lebedev grid points for other atoms
	Atomic van der Waals radii will be scaled by 1.20
 Remove points where switching function is < 1.0e-08
 Keep 2715 surface tesserae and discard 3929 interior tesserae
 Molecular Surface Area = 182.762 Angst**2
 A cutoff of  1.0D-14 yielded   2410 shell pairs
 There are     18990 function pairs
 Smallest overlap matrix eigenvalue = 2.31E-05

 Scale SEOQF with 1.000000e-01/1.000000e-02/1.000000e-03

 Standard Electronic Orientation quadrupole field applied
 Nucleus-field energy     =     0.0000000281 hartrees
 Guess from superposition of atomic densities
 Warning:  Energy on first SCF cycle will be non-variational
 SAD guess density has 70.000000 electrons

 -----------------------------------------------------------------------
  General SCF calculation program by
  Eric Jon Sundstrom, Paul Horn, Yuezhi Mao, Dmitri Zuev, Alec White,
  David Stuck, Shaama M.S., Shane Yost, Joonho Lee, David Small,
  Daniel Levine, Susi Lehtola, Hugh Burton, Evgeny Epifanovsky,
  Bang C. Huynh
 -----------------------------------------------------------------------
 Exchange:     0.2000 Hartree-Fock + 0.0800 Slater + 0.7200 B88
 Correlation:  0.1900 VWN1RPA + 0.8100 LYP
 Using Euler-Maclaurin-Lebedev (99,590) quadrature formula
 using 16 threads for integral computing
 -------------------------------------------------------
 OpenMP Integral computing Module                
 Release: version 2.0, May 2017, Q-Chem Inc. Pleasanton 
 -------------------------------------------------------
 A restricted SCF calculation will be
 performed using DIIS
 SCF converges when DIIS error is below 1.0e-08
 ---------------------------------------
  Cycle       Energy         DIIS error
 ---------------------------------------
    1    -406.2393373780      5.09e-02  
    2    -404.3886977750      6.43e-03  
    3    -404.1656416834      9.96e-03  
    4    -404.5647524374      2.00e-03  
    5    -404.5797332040      5.41e-04  
    6    -404.5808724874      1.57e-04  
    7    -404.5809684864      5.61e-05  
    8    -404.5809817736      9.92e-06  
    9    -404.5809821828      2.42e-06  
   10    -404.5809822074      5.59e-07  
   11    -404.5809822087      1.93e-07  
   12    -404.5809822089      2.44e-08  
   13    -404.5809822089      6.13e-09  Convergence criterion met
 ---------------------------------------
 SCF time:   CPU 1003.23s  wall 71.00s 

************** Final PCM Free Energy Summary **************
 G_electrostatic  =      -0.01559274 hartree =      -9.78459216 kcal/mol
 G_cavitation     =       0.00000000 hartree =       0.00000000 kcal/mol
 G_dispersion     =       0.00000000 hartree =       0.00000000 kcal/mol
 G_repulsion      =       0.00000000 hartree =       0.00000000 kcal/mol
 --------------------------------------------------
 Non-electrostatic Free Energy =       0.00000000 hartree =       0.00000000 kcal/mol
 Total                         =      -0.01559274 hartree =      -9.78459216 kcal/mol
 --------------------------------------------------
 SCF Energy (H0 + V/2)                       =    -404.58098221 
 Solute Internal Energy (H0)                 =    -404.56538947 
 Total Free Energy (H0 + V/2 + non-elec)     =    -404.58098221 hartree
                                             = -253878.39812255 kcal/mol
***********************************************************

 SCF   energy in the final basis set =     -404.5809822089
 Total energy in the final basis set =     -404.5809822089
 
 --------------------------------------------------------------
 
                    Orbital Energies (a.u.)
 --------------------------------------------------------------
 
 Alpha MOs
 -- Occupied --
-19.1392 -14.3687 -10.2968 -10.2286 -10.1812 -10.1809 -10.1808 -10.1782
-10.1749  -1.0496  -0.9300  -0.8220  -0.7432  -0.7407  -0.6395  -0.6114
 -0.5937  -0.5617  -0.5294  -0.4854  -0.4604  -0.4448  -0.4412  -0.4233
 -0.4195  -0.3988  -0.3789  -0.3676  -0.3492  -0.3461  -0.3211  -0.3062
 -0.3045  -0.2752  -0.2566
 -- Virtual --
  0.0053   0.0086   0.0168   0.0249   0.0253   0.0406   0.0485   0.0498
  0.0578   0.0678   0.0698   0.0834   0.0862   0.0956   0.1018   0.1045
  0.1113   0.1161   0.1299   0.1339   0.1402   0.1504   0.1551   0.1643
  0.1707   0.1796   0.1814   0.1854   0.2006   0.2029   0.2093   0.2111
  0.2195   0.2258   0.2339   0.2435   0.2503   0.2550   0.2648   0.2704
  0.2757   0.2796   0.2836   0.2911   0.3031   0.3052   0.3154   0.3270
  0.3340   0.3388   0.3500   0.3738   0.3785   0.3815   0.4156   0.4269
  0.4385   0.4551   0.4865   0.6118   0.6440   0.6601   0.6631   0.6735
  0.6912   0.7042   0.7249   0.7316   0.7480   0.7523   0.7690   0.7783
  0.7947   0.8069   0.8290   0.8384   0.8676   0.8983   0.9497   0.9709
  0.9857   0.9974   1.0244   1.0273   1.0403   1.0609   1.0753   1.1127
  1.1190   1.1271   1.1339   1.1414   1.1447   1.1640   1.1751   1.1907
  1.2405   1.2446   1.2862   1.3170   1.3284   1.3710   1.4081   1.4183
  1.4684   1.4877   1.4958   1.5583   1.5845   1.6176   1.6706   1.7073
  1.7367   1.7599   1.7771   1.7791   1.8260   1.8690   1.8909   1.9002
  1.9231   1.9573   1.9736   2.0044   2.0058   2.0385   2.0710   2.0839
  2.0987   2.1396   2.1865   2.2099   2.2823   2.3027   2.3154   2.3420
  2.3871   2.3964   2.4364   2.4463   2.4607   2.5598   2.5721   2.6127
  2.6784   2.6952   2.7040   2.7512   2.7766   2.8333   2.8734   3.0083
  3.1832   4.0828   4.1862   4.2285   4.2967   4.3445   4.4126   4.5897
  4.6097   4.6583
 --------------------------------------------------------------
 
          Ground-State Mulliken Net Atomic Charges

     Atom                 Charge (a.u.)
  ----------------------------------------
      1 C                    -0.334105
      2 C                    -0.437820
      3 C                    -0.293255
      4 C                    -0.446953
      5 C                    -0.358022
      6 C                    -0.449475
      7 H                     0.210060
      8 H                     0.237745
      9 H                     0.221555
     10 H                     0.211341
     11 H                     0.206416
     12 H                     0.201858
     13 H                     0.201662
     14 H                     0.198140
     15 H                     0.203250
     16 H                     0.206370
     17 H                     0.212430
     18 N                    -0.387215
     19 H                     0.447913
     20 C                     0.341552
     21 H                     0.183032
     22 O                    -0.576481
  ----------------------------------------
  Sum of atomic charges =     0.000000

 -----------------------------------------------------------------
                    Cartesian Multipole Moments
 -----------------------------------------------------------------
    Charge (ESU x 10^10)
                 0.0000
    Dipole Moment (Debye)
         X       4.8821      Y       2.1635      Z       0.7299
       Tot       5.3896
    Quadrupole Moments (Debye-Ang)
        XX     -61.0458     XY      48.6756     YY     -12.8958
        XZ      87.9188     YZ      46.9527     ZZ     -24.9781
    Octopole Moments (Debye-Ang^2)
       XXX     -72.0552    XXY    -634.1328    XYY     458.3238
       YYY   -1117.4520    XXZ   -1221.3172    XYZ     877.5883
       YYZ    -267.6834    XZZ    1555.3073    YZZ     452.7410
       ZZZ   -2425.0892
    Hexadecapole Moments (Debye-Ang^3)
      XXXX    -514.8377   XXXY    -771.8233   XXYY   -6739.4072
      XYYY    3987.0991   YYYY  -28770.7613   XXXZ   -1704.5628
      XXYZ  -12737.9421   XYYZ    8141.7692   YYYZ  -23120.1751
      XXZZ  -24750.2269   XYZZ   15528.9187   YYZZ  -11617.3452
      XZZZ   26600.8153   YZZZ  -12510.8383   ZZZZ -111855.3649
 -----------------------------------------------------------------
 Calculating analytic gradient of the SCF energy
 Gradient of SCF Energy
            1           2           3           4           5           6
    1   0.0288105  -0.0361860  -0.0052708   0.0012360  -0.0251531   0.0071815
    2  -0.0372277  -0.0031994   0.0080607   0.0021462  -0.0024863   0.0213550
    3  -0.0007839  -0.0126394   0.0047009  -0.0018889   0.0181438  -0.0081712
            7           8           9          10          11          12
    1   0.0100314   0.0082409  -0.0117763   0.0023169   0.0031779   0.0041878
    2  -0.0008900  -0.0006342   0.0180007   0.0032067   0.0105720   0.0020679
    3  -0.0045976   0.0137051   0.0038992   0.0088847   0.0002722  -0.0065381
           13          14          15          16          17          18
    1   0.0095499  -0.0073383  -0.0014629   0.0006367  -0.0002552   0.0216748
    2  -0.0003491  -0.0079059  -0.0008242  -0.0006748  -0.0102518   0.0021697
    3  -0.0020126  -0.0031698  -0.0080589   0.0035563  -0.0063063   0.0148301
           19          20          21          22
    1   0.0051351  -0.0418168   0.0084161   0.0186641
    2   0.0019347  -0.0182643   0.0062921   0.0069019
    3  -0.0020944  -0.0104304  -0.0023626   0.0010619
 Max gradient component =       4.182E-02
 RMS gradient           =       1.254E-02
 Computing fast CPCM-SWIG gradient
 Updating gradient with PCM contributions...
 -- total gradient after adding PCM contribution --
---------------------------------------------------
  Atom         X              Y              Z     
---------------------------------------------------
   1       0.031473      -0.028781      -0.003679
   2      -0.035305      -0.003207      -0.014994
   3       0.002368       0.006740       0.000973
   4       0.001072      -0.001768       0.001068
   5      -0.019897      -0.001068       0.020784
   6       0.003841       0.024019      -0.005457
   7       0.009006       0.000263      -0.003959
   8       0.006772      -0.001247       0.012218
   9      -0.015350       0.014043       0.005456
  10       0.002856       0.001899       0.008784
  11       0.004669       0.010883      -0.000178
  12       0.001682       0.002937      -0.006893
  13       0.009307      -0.000137      -0.004182
  14      -0.009762      -0.008652      -0.002353
  15       0.000104      -0.000298      -0.007853
  16      -0.000094      -0.003460       0.002639
  17      -0.004798      -0.011485      -0.003978
  18       0.030787       0.006710       0.011380
  19      -0.006391      -0.003185       0.002943
  20      -0.035644      -0.015870      -0.015570
  21       0.004611       0.004446       0.000871
  22       0.018694       0.007219       0.001980
---------------------------------------------------
 Number of fixed atoms: 0
 Gradient time:  CPU 158.89 s  wall 13.75 s
 Geometry Optimization Parameters
   NAtoms,    NIC,     NZ,  NCons,   NDum,   NFix, NCnnct, MaxDiis
       22     172       0       0       0       0       0       0


** GEOMETRY OPTIMIZATION IN DELOCALIZED INTERNAL COORDINATES **
   Searching for a Minimum

   Optimization Cycle:   1

                       Coordinates (Angstroms)
     ATOM                X               Y               Z
      1  C         0.5800000000   11.8300000000   20.4100000000
      2  C         0.4200000000   10.4100000000   19.8300000000
      3  C         1.5300000000    9.5300000000   20.4400000000
      4  C         1.4400000000    9.5300000000   21.9800000000
      5  C         1.3700000000   10.9200000000   22.6500000000
      6  C         0.4200000000   11.9000000000   21.9400000000
      7  H         1.4900000000    8.5000000000   20.0500000000
      8  H        -0.5200000000   10.0000000000   20.2000000000
      9  H         1.4000000000   12.4700000000   20.0800000000
     10  H        -0.2800000000   12.4300000000   20.0800000000
     11  H         0.5400000000    9.0000000000   22.2800000000
     12  H         2.3200000000    8.9900000000   22.3400000000
     13  H         1.2700000000   10.8300000000   23.7300000000
     14  H         2.3700000000   11.3200000000   22.5000000000
     15  H        -0.6300000000   11.6200000000   22.1100000000
     16  H         0.5600000000   12.9100000000   22.3300000000
     17  H         2.5100000000    9.8400000000   20.0700000000
     18  N         0.5400000000   10.4100000000   18.3800000000
     19  H         1.3900000000   10.7800000000   17.9900000000
     20  C        -0.4700000000   10.0900000000   17.5000000000
     21  H        -0.1600000000   10.3000000000   16.4600000000
     22  O        -1.5600000000    9.6600000000   17.8400000000
   Point Group: c1    Number of degrees of freedom:    60


   Energy is   -404.580982209


 Attempting to generate delocalized internal coordinates
 Initial Hessian constructed with Jon Baker's OPTIMIZE code

 60 Hessian modes will be used to form the next step
  Hessian Eigenvalues:
     0.004850    0.005407    0.006560    0.008376    0.012775    0.018054
     0.018651    0.018677    0.019042    0.033610    0.034591    0.037072
     0.041066    0.046592    0.048162    0.049493    0.050142    0.053390
     0.056519    0.060833    0.066651    0.080982    0.082752    0.082982
     0.085572    0.087172    0.089974    0.096067    0.124538    0.124890
     0.139174    0.159119    0.160000    0.162683    0.172956    0.213045
     0.220010    0.220236    0.268980    0.271008    0.272947    0.282129
     0.284145    0.285211    0.330973    0.334522    0.336922    0.337577
     0.344187    0.345335    0.346174    0.346647    0.347861    0.350043
     0.351115    0.351977    0.376029    0.466943    0.496029    0.953470

 Minimum search - taking simple RFO step
 Searching for Lamda that Minimizes Along All modes
 Value Taken    Lamda =  -0.02460017
 Calculated Step too Large.  Step scaled by  0.538907
 Step Taken.  Stepsize is  0.300000

                             Maximum     Tolerance    Cnvgd?
         Gradient           0.022309      0.000100      NO
         Displacement       0.183062      0.000100      NO
         Energy change     *********      0.000000      NO


 New Cartesian Coordinates Obtained by Inverse Iteration

 Displacement from previous Coordinates is:  0.266737
 ----------------------------------------------------------------
             Standard Nuclear Orientation (Angstroms)
    I     Atom           X                Y                Z
 ----------------------------------------------------------------
    1      C       0.5518399325    11.8426866173    20.4041574272
    2      C       0.4311090082    10.4214698306    19.8308697381
    3      C       1.5294048696     9.5323386357    20.4535752952
    4      C       1.4378548661     9.5176862409    21.9896589719
    5      C       1.3991780568    10.9216139131    22.6313880052
    6      C       0.4158993834    11.8824365549    21.9422329045
    7      H       1.4705673858     8.5050373085    20.0607150257
    8      H      -0.5267145582    10.0120660743    20.1558393445
    9      H       1.4048887450    12.4406400612    20.0665656317
   10      H      -0.3036070608    12.4344791846    20.0392720298
   11      H       0.5318391117     8.9811464195    22.2852726519
   12      H       2.3066523562     8.9680428748    22.3674024817
   13      H       1.2798383507    10.8438079105    23.7142049960
   14      H       2.4024225629    11.3384291473    22.4834545346
   15      H      -0.6236120474    11.5916217918    22.1585480375
   16      H       0.5567513092    12.8966235296    22.3258997794
   17      H       2.5176318505     9.8610601182    20.1082565449
   18      N       0.5403308934    10.4258136455    18.3795939434
   19      H       1.3922805221    10.7969400351    17.9833998311
   20      C      -0.4651948178    10.1064116678    17.5098164666
   21      H      -0.1580124998    10.2837962796    16.4640453248
   22      O      -1.5613482201     9.6658521593    17.8358310343
 ----------------------------------------------------------------
 Nuclear Repulsion Energy =         465.46618431 hartrees
 There are       35 alpha and       35 beta electrons
 Discretize the solute cavity surface with Lebedev spheres
	Using 302 Lebedev grid points for each H atom
	Using 302 Lebedev grid points for other atoms
	Atomic van der Waals radii will be scaled by 1.20
 Remove points where switching function is < 1.0e-08
 Keep 2737 surface tesserae and discard 3907 interior tesserae
 Molecular Surface Area = 182.930 Angst**2
 Applying Cartesian multipole field
    Component          Value
    ---------          -----
     (2,0,0)        1.00000E-11
     (0,2,0)        2.00000E-12
     (0,0,2)       -3.00000E-13
 Nucleus-field energy     =     0.0000000281 hartrees
 Requested basis set is 6-31+G(d)
 There are 71 shells and 197 basis functions
 A cutoff of  1.0D-14 yielded   2411 shell pairs
 There are     18991 function pairs
 Smallest overlap matrix eigenvalue = 2.36E-05
 Guess MOs from SCF MO coefficient file

 -----------------------------------------------------------------------
  General SCF calculation program by
  Eric Jon Sundstrom, Paul Horn, Yuezhi Mao, Dmitri Zuev, Alec White,
  David Stuck, Shaama M.S., Shane Yost, Joonho Lee, David Small,
  Daniel Levine, Susi Lehtola, Hugh Burton, Evgeny Epifanovsky,
  Bang C. Huynh
 -----------------------------------------------------------------------
 Exchange:     0.2000 Hartree-Fock + 0.0800 Slater + 0.7200 B88
 Correlation:  0.1900 VWN1RPA + 0.8100 LYP
 Using Euler-Maclaurin-Lebedev (99,590) quadrature formula
 using 16 threads for integral computing
 -------------------------------------------------------
 OpenMP Integral computing Module                
 Release: version 2.0, May 2017, Q-Chem Inc. Pleasanton 
 -------------------------------------------------------
 A restricted SCF calculation will be
 performed using Roothaan-Hall, DIIS
 SCF converges when DIIS error is below 1.0e-08
 ---------------------------------------
  Cycle       Energy         DIIS error
 ---------------------------------------
    1    -404.5744762550      6.72e-04  Roothaan Step
 ---------------------------------------
  Cycle       Energy         DIIS error
 ---------------------------------------
    1    -404.5831398119      1.11e-03  
    2    -404.5694077064      2.42e-03  
    3    -404.5915318337      1.84e-04  
    4    -404.5916577614      1.03e-04  
    5    -404.5916981418      3.14e-05  
    6    -404.5917021181      8.16e-06  
    7    -404.5917023820      2.53e-06  
    8    -404.5917024126      4.80e-07  
    9    -404.5917024135      2.13e-07  
   10    -404.5917024137      4.00e-08  
   11    -404.5917024138      1.13e-08  
   12    -404.5917024138      2.72e-09  Convergence criterion met
 ---------------------------------------
 SCF time:   CPU 1042.17s  wall 72.00s 

************** Final PCM Free Energy Summary **************
 G_electrostatic  =      -0.01594412 hartree =     -10.00508737 kcal/mol
 G_cavitation     =       0.00000000 hartree =       0.00000000 kcal/mol
 G_dispersion     =       0.00000000 hartree =       0.00000000 kcal/mol
 G_repulsion      =       0.00000000 hartree =       0.00000000 kcal/mol
 --------------------------------------------------
 Non-electrostatic Free Energy =       0.00000000 hartree =       0.00000000 kcal/mol
 Total                         =      -0.01594412 hartree =     -10.00508737 kcal/mol
 --------------------------------------------------
 SCF Energy (H0 + V/2)                       =    -404.59170241 
 Solute Internal Energy (H0)                 =    -404.57575829 
 Total Free Energy (H0 + V/2 + non-elec)     =    -404.59170241 hartree
                                             = -253885.12515265 kcal/mol
***********************************************************

 SCF   energy in the final basis set =     -404.5917024138
 Total energy in the final basis set =     -404.5917024138
 
 --------------------------------------------------------------
 
                    Orbital Energies (a.u.)
 --------------------------------------------------------------
 
 Alpha MOs
 -- Occupied --
-19.1377 -14.3701 -10.2959 -10.2272 -10.1824 -10.1820 -10.1812 -10.1796
-10.1771  -1.0462  -0.9317  -0.8219  -0.7421  -0.7415  -0.6390  -0.6119
 -0.5933  -0.5619  -0.5279  -0.4850  -0.4599  -0.4439  -0.4397  -0.4216
 -0.4195  -0.3974  -0.3784  -0.3711  -0.3488  -0.3451  -0.3205  -0.3096
 -0.3073  -0.2736  -0.2584
 -- Virtual --
  0.0059   0.0089   0.0166   0.0246   0.0253   0.0405   0.0484   0.0493
  0.0580   0.0679   0.0699   0.0835   0.0864   0.0959   0.1013   0.1044
  0.1112   0.1163   0.1282   0.1337   0.1404   0.1507   0.1550   0.1629
  0.1706   0.1795   0.1813   0.1857   0.2006   0.2019   0.2103   0.2107
  0.2210   0.2261   0.2333   0.2449   0.2498   0.2551   0.2638   0.2712
  0.2766   0.2804   0.2836   0.2900   0.3015   0.3050   0.3144   0.3263
  0.3331   0.3355   0.3523   0.3739   0.3798   0.3826   0.4160   0.4233
  0.4382   0.4538   0.4853   0.6101   0.6423   0.6594   0.6635   0.6717
  0.6885   0.7020   0.7254   0.7311   0.7477   0.7519   0.7704   0.7787
  0.7964   0.8049   0.8259   0.8377   0.8636   0.9025   0.9508   0.9720
  0.9837   0.9953   1.0223   1.0273   1.0373   1.0591   1.0775   1.1087
  1.1189   1.1257   1.1296   1.1419   1.1562   1.1672   1.1770   1.1848
  1.2410   1.2447   1.2837   1.3201   1.3283   1.3692   1.4105   1.4124
  1.4651   1.4868   1.4950   1.5601   1.5829   1.6191   1.6815   1.7177
  1.7359   1.7598   1.7736   1.7835   1.8282   1.8680   1.8970   1.9018
  1.9210   1.9469   1.9726   1.9980   2.0081   2.0380   2.0678   2.0835
  2.1073   2.1230   2.1926   2.2081   2.2795   2.3028   2.3119   2.3426
  2.3946   2.3983   2.4287   2.4317   2.4539   2.5585   2.5742   2.6160
  2.6834   2.6894   2.7019   2.7529   2.7726   2.8358   2.8688   3.0036
  3.1843   4.0856   4.1872   4.2279   4.2948   4.3401   4.4141   4.5938
  4.6057   4.6625
 --------------------------------------------------------------
 
          Ground-State Mulliken Net Atomic Charges

     Atom                 Charge (a.u.)
  ----------------------------------------
      1 C                    -0.319005
      2 C                    -0.423966
      3 C                    -0.299456
      4 C                    -0.447023
      5 C                    -0.365017
      6 C                    -0.451578
      7 H                     0.210121
      8 H                     0.234062
      9 H                     0.217725
     10 H                     0.210317
     11 H                     0.206501
     12 H                     0.202627
     13 H                     0.200651
     14 H                     0.198716
     15 H                     0.204735
     16 H                     0.205062
     17 H                     0.211349
     18 N                    -0.383851
     19 H                     0.447200
     20 C                     0.344243
     21 H                     0.181152
     22 O                    -0.584566
  ----------------------------------------
  Sum of atomic charges =     0.000000

 -----------------------------------------------------------------
                    Cartesian Multipole Moments
 -----------------------------------------------------------------
    Charge (ESU x 10^10)
                 0.0000
    Dipole Moment (Debye)
         X       4.9956      Y       2.1597      Z       0.8585
       Tot       5.5097
    Quadrupole Moments (Debye-Ang)
        XX     -61.0782     XY      49.8586     YY     -13.0251
        XZ      90.0748     YZ      47.9864     ZZ     -20.0482
    Octopole Moments (Debye-Ang^2)
       XXX     -71.7608    XXY    -634.1634    XYY     470.5426
       YYY   -1121.7070    XXZ   -1221.4978    XYZ     899.9708
       YYZ    -261.1564    XZZ    1596.6391    YZZ     493.1234
       ZZZ   -2282.3427
    Hexadecapole Moments (Debye-Ang^3)
      XXXX    -517.2485   XXXY    -767.0952   XXYY   -6736.8385
      XYYY    4111.4790   YYYY  -28881.1831   XXXZ   -1699.9390
      XXYZ  -12732.7689   XYYZ    8371.6239   YYYZ  -23134.6484
      XXZZ  -24744.8826   XYZZ   15955.6616   YYZZ  -11332.2021
      XZZZ   27397.8796   YZZZ  -11343.4126   ZZZZ -108157.6145
 -----------------------------------------------------------------
 Calculating analytic gradient of the SCF energy
 Gradient of SCF Energy
            1           2           3           4           5           6
    1   0.0194675  -0.0232944  -0.0077705   0.0013833  -0.0202466   0.0055012
    2  -0.0290738  -0.0006850   0.0066598   0.0009581  -0.0017909   0.0119452
    3  -0.0004769  -0.0105725   0.0074350  -0.0027705   0.0106744  -0.0042520
            7           8           9          10          11          12
    1   0.0067579   0.0060830  -0.0061080  -0.0002554   0.0005045   0.0041275
    2  -0.0020114   0.0006069   0.0142470   0.0036236   0.0044951   0.0012922
    3  -0.0026477   0.0098863   0.0001736   0.0038850   0.0000820  -0.0034910
           13          14          15          16          17          18
    1   0.0065770  -0.0011769  -0.0023645   0.0012730   0.0028464   0.0101787
    2  -0.0010155  -0.0028265  -0.0006597   0.0002410  -0.0058306  -0.0008023
    3  -0.0001036  -0.0021664  -0.0043656   0.0023270  -0.0051578   0.0117436
           19          20          21          22
    1   0.0087007  -0.0320747   0.0072013   0.0126889
    2   0.0035950  -0.0100188   0.0036604   0.0033902
    3  -0.0030294  -0.0044581  -0.0024679  -0.0002475
 Max gradient component =       3.207E-02
 RMS gradient           =       8.852E-03
 Computing fast CPCM-SWIG gradient
 Updating gradient with PCM contributions...
 -- total gradient after adding PCM contribution --
---------------------------------------------------
  Atom         X              Y              Z     
---------------------------------------------------
   1       0.022846      -0.021343      -0.003820
   2      -0.022637      -0.000777      -0.013081
   3      -0.000019       0.005496       0.003873
   4       0.001241      -0.003280       0.000312
   5      -0.015011      -0.000080       0.013561
   6       0.002061       0.014806      -0.001437
   7       0.005926      -0.000690      -0.002086
   8       0.004435      -0.000096       0.008483
   9      -0.010157       0.010785       0.001998
  10       0.000348       0.002325       0.004071
  11       0.002045       0.005031      -0.000373
  12       0.001595       0.002266      -0.004031
  13       0.006483      -0.000810      -0.002311
  14      -0.003863      -0.003819      -0.001379
  15      -0.000774      -0.000090      -0.004426
  16       0.000504      -0.002467       0.001480
  17      -0.001813      -0.007393      -0.003053
  18       0.019486       0.003852       0.008449
  19      -0.002975      -0.001623       0.001985
  20      -0.025856      -0.007699      -0.009341
  21       0.003381       0.001941       0.000607
  22       0.012754       0.003665       0.000521
---------------------------------------------------
 Number of fixed atoms: 0
 Gradient time:  CPU 160.58 s  wall 14.63 s
 Geometry Optimization Parameters
   NAtoms,    NIC,     NZ,  NCons,   NDum,   NFix, NCnnct, MaxDiis
       22     172       0       0       0       0       0       0

 Cartesian Hessian Update
 Hessian updated using BFGS update


** GEOMETRY OPTIMIZATION IN DELOCALIZED INTERNAL COORDINATES **
   Searching for a Minimum

   Optimization Cycle:   2

                       Coordinates (Angstroms)
     ATOM                X               Y               Z
      1  C         0.5518399325   11.8426866173   20.4041574272
      2  C         0.4311090082   10.4214698306   19.8308697381
      3  C         1.5294048696    9.5323386357   20.4535752952
      4  C         1.4378548661    9.5176862409   21.9896589719
      5  C         1.3991780568   10.9216139131   22.6313880052
      6  C         0.4158993834   11.8824365549   21.9422329045
      7  H         1.4705673858    8.5050373085   20.0607150257
      8  H        -0.5267145582   10.0120660743   20.1558393445
      9  H         1.4048887450   12.4406400612   20.0665656317
     10  H        -0.3036070608   12.4344791846   20.0392720298
     11  H         0.5318391117    8.9811464195   22.2852726519
     12  H         2.3066523562    8.9680428748   22.3674024817
     13  H         1.2798383507   10.8438079105   23.7142049960
     14  H         2.4024225629   11.3384291473   22.4834545346
     15  H        -0.6236120474   11.5916217918   22.1585480375
     16  H         0.5567513092   12.8966235296   22.3258997794
     17  H         2.5176318505    9.8610601182   20.1082565449
     18  N         0.5403308934   10.4258136455   18.3795939434
     19  H         1.3922805221   10.7969400351   17.9833998311
     20  C        -0.4651948178   10.1064116678   17.5098164666
     21  H        -0.1580124998   10.2837962796   16.4640453248
     22  O        -1.5613482201    9.6658521593   17.8358310343
   Point Group: c1    Number of degrees of freedom:    60


   Energy is   -404.591702414

 Hessian updated using BFGS update

 60 Hessian modes will be used to form the next step
  Hessian Eigenvalues:
     0.004847    0.005415    0.006557    0.008377    0.012772    0.017375
     0.018564    0.018772    0.019908    0.033181    0.035894    0.037092
     0.041513    0.046152    0.047346    0.049689    0.051187    0.053459
     0.057143    0.060697    0.066923    0.080926    0.082145    0.083336
     0.084310    0.087377    0.090015    0.093081    0.123588    0.125509
     0.139276    0.158145    0.159366    0.162703    0.178971    0.211961
     0.220151    0.220234    0.269244    0.272589    0.275335    0.281720
     0.284852    0.286930    0.330959    0.334413    0.336964    0.338670
     0.344127    0.345305    0.345902    0.346571    0.347715    0.349715
     0.351689    0.356282    0.376854    0.466142    0.485433    0.941969

 Minimum search - taking simple RFO step
 Searching for Lamda that Minimizes Along All modes
 Value Taken    Lamda =  -0.01325701
 Calculated Step too Large.  Step scaled by  0.583919
 Step Taken.  Stepsize is  0.300000

                             Maximum     Tolerance    Cnvgd?
         Gradient           0.014969      0.000100      NO
         Displacement       0.165180      0.000100      NO
         Energy change     -0.010720      0.000000      NO


 New Cartesian Coordinates Obtained by Inverse Iteration

 Displacement from previous Coordinates is:  0.250053
 ----------------------------------------------------------------
             Standard Nuclear Orientation (Angstroms)
    I     Atom           X                Y                Z
 ----------------------------------------------------------------
    1      C       0.5202385008    11.8495297950    20.4052305714
    2      C       0.4382496836    10.4247527420    19.8365706051
    3      C       1.5292873603     9.5342976967    20.4606588206
    4      C       1.4356112158     9.5141614992    21.9941667810
    5      C       1.4270741922    10.9260883838    22.6092075784
    6      C       0.4121103149    11.8676092846    21.9430828138
    7      H       1.4533183306     8.5130482247    20.0599572292
    8      H      -0.5326018866    10.0062475766    20.1146781398
    9      H       1.4098895308    12.3994457318    20.0711235551
   10      H      -0.3279671435    12.4336443272    20.0150668974
   11      H       0.5220388264     8.9838409675    22.2927139509
   12      H       2.2893158780     8.9498939744    22.3884212289
   13      H       1.2887908833    10.8666806682    23.6943821377
   14      H       2.4312553076    11.3495052659    22.4573273855
   15      H      -0.6138259747    11.5640059176    22.2009262198
   16      H       0.5494443926    12.8874474196    22.3194615033
   17      H       2.5200176777     9.8862516326    20.1371942056
   18      N       0.5462507441    10.4293102806    18.3823981815
   19      H       1.3979193426    10.8036623659    17.9807734936
   20      C      -0.4453271985    10.0993325023    17.5193131901
   21      H      -0.1568429700    10.2873608772    16.4708656763
   22      O      -1.5642470081     9.6938828666    17.8364798349
 ----------------------------------------------------------------
 Nuclear Repulsion Energy =         466.01447994 hartrees
 There are       35 alpha and       35 beta electrons
 Discretize the solute cavity surface with Lebedev spheres
	Using 302 Lebedev grid points for each H atom
	Using 302 Lebedev grid points for other atoms
	Atomic van der Waals radii will be scaled by 1.20
 Remove points where switching function is < 1.0e-08
 Keep 2748 surface tesserae and discard 3896 interior tesserae
 Molecular Surface Area = 182.736 Angst**2
 Applying Cartesian multipole field
    Component          Value
    ---------          -----
     (2,0,0)        1.00000E-11
     (0,2,0)        2.00000E-12
     (0,0,2)       -3.00000E-13
 Nucleus-field energy     =     0.0000000281 hartrees
 Requested basis set is 6-31+G(d)
 There are 71 shells and 197 basis functions
 A cutoff of  1.0D-14 yielded   2411 shell pairs
 There are     18991 function pairs
 Smallest overlap matrix eigenvalue = 2.39E-05
 Guess MOs from SCF MO coefficient file

 -----------------------------------------------------------------------
  General SCF calculation program by
  Eric Jon Sundstrom, Paul Horn, Yuezhi Mao, Dmitri Zuev, Alec White,
  David Stuck, Shaama M.S., Shane Yost, Joonho Lee, David Small,
  Daniel Levine, Susi Lehtola, Hugh Burton, Evgeny Epifanovsky,
  Bang C. Huynh
 -----------------------------------------------------------------------
 Exchange:     0.2000 Hartree-Fock + 0.0800 Slater + 0.7200 B88
 Correlation:  0.1900 VWN1RPA + 0.8100 LYP
 Using Euler-Maclaurin-Lebedev (99,590) quadrature formula
 using 16 threads for integral computing
 -------------------------------------------------------
 OpenMP Integral computing Module                
 Release: version 2.0, May 2017, Q-Chem Inc. Pleasanton 
 -------------------------------------------------------
 A restricted SCF calculation will be
 performed using Roothaan-Hall, DIIS
 SCF converges when DIIS error is below 1.0e-08
 ---------------------------------------
  Cycle       Energy         DIIS error
 ---------------------------------------
    1    -404.5792201726      7.21e-04  Roothaan Step
 ---------------------------------------
  Cycle       Energy         DIIS error
 ---------------------------------------
    1    -404.5883585562      1.15e-03  
    2    -404.5736159886      2.50e-03  
    3    -404.5972461088      1.91e-04  
    4    -404.5973810910      1.06e-04  
    5    -404.5974246195      3.19e-05  
    6    -404.5974287635      8.19e-06  
    7    -404.5974290232      2.72e-06  
    8    -404.5974290584      5.06e-07  
    9    -404.5974290595      2.21e-07  
   10    -404.5974290597      4.09e-08  
   11    -404.5974290597      1.11e-08  
   12    -404.5974290597      2.75e-09  Convergence criterion met
 ---------------------------------------
 SCF time:   CPU 1027.95s  wall 68.00s 

************** Final PCM Free Energy Summary **************
 G_electrostatic  =      -0.01641701 hartree =     -10.30182795 kcal/mol
 G_cavitation     =       0.00000000 hartree =       0.00000000 kcal/mol
 G_dispersion     =       0.00000000 hartree =       0.00000000 kcal/mol
 G_repulsion      =       0.00000000 hartree =       0.00000000 kcal/mol
 --------------------------------------------------
 Non-electrostatic Free Energy =       0.00000000 hartree =       0.00000000 kcal/mol
 Total                         =      -0.01641701 hartree =     -10.30182795 kcal/mol
 --------------------------------------------------
 SCF Energy (H0 + V/2)                       =    -404.59742906 
 Solute Internal Energy (H0)                 =    -404.58101205 
 Total Free Energy (H0 + V/2 + non-elec)     =    -404.59742906 hartree
                                             = -253888.71867722 kcal/mol
***********************************************************

 SCF   energy in the final basis set =     -404.5974290597
 Total energy in the final basis set =     -404.5974290597
 
 --------------------------------------------------------------
 
                    Orbital Energies (a.u.)
 --------------------------------------------------------------
 
 Alpha MOs
 -- Occupied --
-19.1355 -14.3711 -10.2945 -10.2262 -10.1830 -10.1826 -10.1810 -10.1802
-10.1782  -1.0426  -0.9332  -0.8234  -0.7428  -0.7423  -0.6386  -0.6124
 -0.5929  -0.5623  -0.5270  -0.4848  -0.4602  -0.4438  -0.4390  -0.4209
 -0.4187  -0.3967  -0.3781  -0.3738  -0.3481  -0.3450  -0.3206  -0.3115
 -0.3094  -0.2718  -0.2597
 -- Virtual --
  0.0073   0.0084   0.0164   0.0244   0.0253   0.0406   0.0485   0.0488
  0.0582   0.0681   0.0698   0.0836   0.0866   0.0957   0.1008   0.1045
  0.1112   0.1166   0.1269   0.1337   0.1405   0.1509   0.1552   0.1622
  0.1704   0.1798   0.1814   0.1865   0.1995   0.2021   0.2101   0.2121
  0.2220   0.2260   0.2329   0.2457   0.2489   0.2549   0.2640   0.2712
  0.2781   0.2816   0.2842   0.2908   0.2986   0.3053   0.3138   0.3264
  0.3316   0.3336   0.3555   0.3733   0.3822   0.3850   0.4165   0.4211
  0.4391   0.4540   0.4848   0.6092   0.6407   0.6586   0.6638   0.6699
  0.6869   0.7005   0.7268   0.7318   0.7440   0.7546   0.7723   0.7795
  0.7978   0.8045   0.8235   0.8391   0.8622   0.9056   0.9521   0.9736
  0.9816   0.9934   1.0208   1.0274   1.0334   1.0576   1.0813   1.1050
  1.1195   1.1237   1.1280   1.1422   1.1637   1.1714   1.1805   1.1842
  1.2392   1.2470   1.2824   1.3218   1.3320   1.3714   1.4030   1.4135
  1.4711   1.4865   1.4895   1.5620   1.5835   1.6199   1.6886   1.7260
  1.7399   1.7588   1.7689   1.7918   1.8337   1.8714   1.9015   1.9090
  1.9182   1.9395   1.9714   2.0031   2.0089   2.0414   2.0635   2.0853
  2.1130   2.1181   2.1994   2.2099   2.2794   2.3000   2.3195   2.3413
  2.3989   2.4079   2.4200   2.4240   2.4501   2.5590   2.5793   2.6200
  2.6834   2.6880   2.7035   2.7554   2.7755   2.8374   2.8669   2.9995
  3.1868   4.0899   4.1904   4.2296   4.2954   4.3374   4.4146   4.5987
  4.6039   4.6665
 --------------------------------------------------------------
 
          Ground-State Mulliken Net Atomic Charges

     Atom                 Charge (a.u.)
  ----------------------------------------
      1 C                    -0.303988
      2 C                    -0.418230
      3 C                    -0.295198
      4 C                    -0.449579
      5 C                    -0.371599
      6 C                    -0.454720
      7 H                     0.210700
      8 H                     0.231601
      9 H                     0.214406
     10 H                     0.210612
     11 H                     0.206742
     12 H                     0.203013
     13 H                     0.199896
     14 H                     0.200095
     15 H                     0.206204
     16 H                     0.204199
     17 H                     0.211046
     18 N                    -0.381533
     19 H                     0.446566
     20 C                     0.343803
     21 H                     0.180107
     22 O                    -0.594143
  ----------------------------------------
  Sum of atomic charges =     0.000000

 -----------------------------------------------------------------
                    Cartesian Multipole Moments
 -----------------------------------------------------------------
    Charge (ESU x 10^10)
                -0.0000
    Dipole Moment (Debye)
         X       5.1363      Y       2.1033      Z       0.9820
       Tot       5.6364
    Quadrupole Moments (Debye-Ang)
        XX     -61.1670     XY      51.4054     YY     -14.1375
        XZ      92.6879     YZ      48.1422     ZZ     -15.3241
    Octopole Moments (Debye-Ang^2)
       XXX     -71.4368    XXY    -634.8613    XYY     487.1220
       YYY   -1139.2391    XXZ   -1222.7640    XYZ     928.6131
       YYZ    -270.2895    XZZ    1645.2884    YZZ     519.3668
       ZZZ   -2146.0767
    Hexadecapole Moments (Debye-Ang^3)
      XXXX    -518.9601   XXXY    -761.4491   XXYY   -6741.5880
      XYYY    4285.0002   YYYY  -29140.7274   XXXZ   -1693.7306
      XXYZ  -12740.5255   XYYZ    8677.6657   YYYZ  -23353.1926
      XXZZ  -24760.4574   XYZZ   16487.1997   YYZZ  -11280.6460
      XZZZ   28304.1501   YZZZ  -10395.2795   ZZZZ -104641.7776
 -----------------------------------------------------------------
 Calculating analytic gradient of the SCF energy
 Gradient of SCF Energy
            1           2           3           4           5           6
    1   0.0081279  -0.0108216  -0.0092137   0.0009680  -0.0143586   0.0047600
    2  -0.0192002   0.0006490   0.0045170   0.0028097  -0.0023960   0.0039499
    3   0.0018550  -0.0056909   0.0066573  -0.0037402   0.0030897  -0.0031242
            7           8           9          10          11          12
    1   0.0034280   0.0038388  -0.0005590  -0.0014333  -0.0006836   0.0036980
    2  -0.0019856   0.0009400   0.0092747   0.0026689   0.0010240   0.0004259
    3  -0.0017499   0.0060858  -0.0012279   0.0015483   0.0004944  -0.0012274
           13          14          15          16          17          18
    1   0.0030230   0.0020918  -0.0022396   0.0016071   0.0045955  -0.0014955
    2  -0.0006843  -0.0004930  -0.0003350   0.0015460  -0.0018139  -0.0026180
    3   0.0014576  -0.0015350  -0.0021744   0.0013389  -0.0036967   0.0081143
           19          20          21          22
    1   0.0105223  -0.0159766   0.0044819   0.0056394
    2   0.0053429  -0.0131225   0.0053229   0.0041776
    3  -0.0042089   0.0006288  -0.0023976  -0.0004970
 Max gradient component =       1.920E-02
 RMS gradient           =       5.580E-03
 Computing fast CPCM-SWIG gradient
 Updating gradient with PCM contributions...
 -- total gradient after adding PCM contribution --
---------------------------------------------------
  Atom         X              Y              Z     
---------------------------------------------------
   1       0.012255      -0.012260      -0.001763
   2      -0.010412       0.000546      -0.008407
   3      -0.001195       0.003526       0.003183
   4       0.000755      -0.001804      -0.000438
   5      -0.009089      -0.000375       0.006165
   6       0.001174       0.006990      -0.000178
   7       0.002798      -0.000453      -0.001152
   8       0.001960       0.000200       0.004743
   9      -0.005123       0.006403       0.000657
  10      -0.000775       0.001388       0.001890
  11       0.000915       0.001699      -0.000005
  12       0.001170       0.001509      -0.001921
  13       0.003123      -0.000534      -0.000793
  14      -0.000886      -0.001660      -0.000711
  15      -0.000650       0.000278      -0.002460
  16       0.000819      -0.001132       0.000559
  17      -0.000219      -0.003756      -0.001762
  18       0.007901       0.002175       0.004893
  19      -0.001264      -0.000028       0.000817
  20      -0.009725      -0.010867      -0.004017
  21       0.000658       0.003596       0.000539
  22       0.005811       0.004560       0.000162
---------------------------------------------------
 Number of fixed atoms: 0
 Gradient time:  CPU 161.72 s  wall 15.01 s
 Geometry Optimization Parameters
   NAtoms,    NIC,     NZ,  NCons,   NDum,   NFix, NCnnct, MaxDiis
       22     172       0       0       0       0       0       0

 Cartesian Hessian Update
 Hessian updated using BFGS update


** GEOMETRY OPTIMIZATION IN DELOCALIZED INTERNAL COORDINATES **
   Searching for a Minimum

   Optimization Cycle:   3

                       Coordinates (Angstroms)
     ATOM                X               Y               Z
      1  C         0.5202385008   11.8495297950   20.4052305714
      2  C         0.4382496836   10.4247527420   19.8365706051
      3  C         1.5292873603    9.5342976967   20.4606588206
      4  C         1.4356112158    9.5141614992   21.9941667810
      5  C         1.4270741922   10.9260883838   22.6092075784
      6  C         0.4121103149   11.8676092846   21.9430828138
      7  H         1.4533183306    8.5130482247   20.0599572292
      8  H        -0.5326018866   10.0062475766   20.1146781398
      9  H         1.4098895308   12.3994457318   20.0711235551
     10  H        -0.3279671435   12.4336443272   20.0150668974
     11  H         0.5220388264    8.9838409675   22.2927139509
     12  H         2.2893158780    8.9498939744   22.3884212289
     13  H         1.2887908833   10.8666806682   23.6943821377
     14  H         2.4312553076   11.3495052659   22.4573273855
     15  H        -0.6138259747   11.5640059176   22.2009262198
     16  H         0.5494443926   12.8874474196   22.3194615033
     17  H         2.5200176777    9.8862516326   20.1371942056
     18  N         0.5462507441   10.4293102806   18.3823981815
     19  H         1.3979193426   10.8036623659   17.9807734936
     20  C        -0.4453271985   10.0993325023   17.5193131901
     21  H        -0.1568429700   10.2873608772   16.4708656763
     22  O        -1.5642470081    9.6938828666   17.8364798349
   Point Group: c1    Number of degrees of freedom:    60


   Energy is   -404.597429060

 Hessian updated using BFGS update

 60 Hessian modes will be used to form the next step
  Hessian Eigenvalues:
     0.004842    0.005405    0.006546    0.008377    0.012667    0.016718
     0.018530    0.018734    0.023145    0.034584    0.037044    0.037232
     0.043537    0.046559    0.048111    0.049736    0.051239    0.053385
     0.056984    0.060499    0.066948    0.080782    0.081183    0.083207
     0.084000    0.087335    0.090067    0.092043    0.123447    0.125703
     0.139236    0.157521    0.159323    0.162699    0.178119    0.211915
     0.219853    0.220232    0.269139    0.272587    0.275495    0.282031
     0.284852    0.287167    0.330948    0.334332    0.336977    0.338466
     0.344089    0.345389    0.345841    0.346536    0.347720    0.349703
     0.351660    0.356903    0.377589    0.466259    0.484777    0.935652

 Minimum search - taking simple RFO step
 Searching for Lamda that Minimizes Along All modes
 Value Taken    Lamda =  -0.00712563
 Calculated Step too Large.  Step scaled by  0.580473
 Step Taken.  Stepsize is  0.300000

                             Maximum     Tolerance    Cnvgd?
         Gradient           0.007625      0.000100      NO
         Displacement       0.132269      0.000100      NO
         Energy change     -0.005727      0.000000      NO


 New Cartesian Coordinates Obtained by Inverse Iteration

 Displacement from previous Coordinates is:  0.308338
 ----------------------------------------------------------------
             Standard Nuclear Orientation (Angstroms)
    I     Atom           X                Y                Z
 ----------------------------------------------------------------
    1      C       0.4975544951    11.8652919800    20.4178941677
    2      C       0.4335490634    10.4411441024    19.8425052984
    3      C       1.5181548768     9.5413616026    20.4563685773
    4      C       1.4273482956     9.5136571319    21.9893931689
    5      C       1.4546522085    10.9272413558    22.5919476235
    6      C       0.4143744435    11.8594459793    21.9542419675
    7      H       1.4239356034     8.5278189820    20.0447282575
    8      H      -0.5466547655    10.0165479167    20.0823221824
    9      H       1.4198032865    12.3683952438    20.0923172214
   10      H      -0.3378938627    12.4532762984    20.0135767622
   11      H       0.5027764083     9.0001964539    22.2909720266
   12      H       2.2628338046     8.9257753541    22.3906778870
   13      H       1.3088165417    10.8780772818    23.6788250093
   14      H       2.4583634631    11.3511215266    22.4317665699
   15      H      -0.5981281444    11.5432759574    22.2460130895
   16      H       0.5484901569    12.8808532437    22.3324828010
   17      H       2.5094489603     9.9083644418    20.1479008573
   18      N       0.5400845397    10.4587755126    18.3840490115
   19      H       1.3954363404    10.8271574745    17.9805351451
   20      C      -0.4400176061    10.1232519758    17.5230185386
   21      H      -0.1259294780    10.2183873196    16.4698599395
   22      O      -1.5369986311     9.6405828653    17.8286038978
 ----------------------------------------------------------------
 Nuclear Repulsion Energy =         466.37056853 hartrees
 There are       35 alpha and       35 beta electrons
 Discretize the solute cavity surface with Lebedev spheres
	Using 302 Lebedev grid points for each H atom
	Using 302 Lebedev grid points for other atoms
	Atomic van der Waals radii will be scaled by 1.20
 Remove points where switching function is < 1.0e-08
 Keep 2746 surface tesserae and discard 3898 interior tesserae
 Molecular Surface Area = 182.643 Angst**2
 Applying Cartesian multipole field
    Component          Value
    ---------          -----
     (2,0,0)        1.00000E-11
     (0,2,0)        2.00000E-12
     (0,0,2)       -3.00000E-13
 Nucleus-field energy     =     0.0000000281 hartrees
 Requested basis set is 6-31+G(d)
 There are 71 shells and 197 basis functions
 A cutoff of  1.0D-14 yielded   2412 shell pairs
 There are     18992 function pairs
 Smallest overlap matrix eigenvalue = 2.42E-05
 Guess MOs from SCF MO coefficient file

 -----------------------------------------------------------------------
  General SCF calculation program by
  Eric Jon Sundstrom, Paul Horn, Yuezhi Mao, Dmitri Zuev, Alec White,
  David Stuck, Shaama M.S., Shane Yost, Joonho Lee, David Small,
  Daniel Levine, Susi Lehtola, Hugh Burton, Evgeny Epifanovsky,
  Bang C. Huynh
 -----------------------------------------------------------------------
 Exchange:     0.2000 Hartree-Fock + 0.0800 Slater + 0.7200 B88
 Correlation:  0.1900 VWN1RPA + 0.8100 LYP
 Using Euler-Maclaurin-Lebedev (99,590) quadrature formula
 using 16 threads for integral computing
 -------------------------------------------------------
 OpenMP Integral computing Module                
 Release: version 2.0, May 2017, Q-Chem Inc. Pleasanton 
 -------------------------------------------------------
 A restricted SCF calculation will be
 performed using Roothaan-Hall, DIIS
 SCF converges when DIIS error is below 1.0e-08
 ---------------------------------------
  Cycle       Energy         DIIS error
 ---------------------------------------
    1    -404.5785256328      8.72e-04  Roothaan Step
 ---------------------------------------
  Cycle       Energy         DIIS error
 ---------------------------------------
    1    -404.5897693221      1.17e-03  
    2    -404.5743235588      2.55e-03  
    3    -404.5990873456      1.95e-04  
    4    -404.5992292813      1.09e-04  
    5    -404.5992752443      3.27e-05  
    6    -404.5992796211      8.31e-06  
    7    -404.5992798852      2.85e-06  
    8    -404.5992799242      5.25e-07  
    9    -404.5992799254      2.27e-07  
   10    -404.5992799256      4.23e-08  
   11    -404.5992799256      1.07e-08  
   12    -404.5992799256      2.89e-09  Convergence criterion met
 ---------------------------------------
 SCF time:   CPU 1035.47s  wall 69.00s 

************** Final PCM Free Energy Summary **************
 G_electrostatic  =      -0.01684216 hartree =     -10.56861634 kcal/mol
 G_cavitation     =       0.00000000 hartree =       0.00000000 kcal/mol
 G_dispersion     =       0.00000000 hartree =       0.00000000 kcal/mol
 G_repulsion      =       0.00000000 hartree =       0.00000000 kcal/mol
 --------------------------------------------------
 Non-electrostatic Free Energy =       0.00000000 hartree =       0.00000000 kcal/mol
 Total                         =      -0.01684216 hartree =     -10.56861634 kcal/mol
 --------------------------------------------------
 SCF Energy (H0 + V/2)                       =    -404.59927993 
 Solute Internal Energy (H0)                 =    -404.58243776 
 Total Free Energy (H0 + V/2 + non-elec)     =    -404.59927993 hartree
                                             = -253889.88011310 kcal/mol
***********************************************************

 SCF   energy in the final basis set =     -404.5992799256
 Total energy in the final basis set =     -404.5992799256
 
 --------------------------------------------------------------
 
                    Orbital Energies (a.u.)
 --------------------------------------------------------------
 
 Alpha MOs
 -- Occupied --
-19.1338 -14.3718 -10.2935 -10.2257 -10.1833 -10.1832 -10.1807 -10.1807
-10.1787  -1.0397  -0.9339  -0.8248  -0.7437  -0.7427  -0.6382  -0.6128
 -0.5928  -0.5628  -0.5266  -0.4844  -0.4609  -0.4438  -0.4388  -0.4200
 -0.4184  -0.3960  -0.3785  -0.3749  -0.3477  -0.3451  -0.3212  -0.3125
 -0.3104  -0.2699  -0.2606
 -- Virtual --
  0.0062   0.0095   0.0162   0.0242   0.0254   0.0406   0.0484   0.0486
  0.0584   0.0684   0.0698   0.0835   0.0867   0.0953   0.1005   0.1045
  0.1113   0.1169   0.1257   0.1337   0.1406   0.1510   0.1555   0.1615
  0.1701   0.1800   0.1812   0.1873   0.2000   0.2012   0.2100   0.2131
  0.2220   0.2257   0.2322   0.2451   0.2487   0.2554   0.2636   0.2711
  0.2789   0.2829   0.2853   0.2916   0.2956   0.3049   0.3131   0.3263
  0.3302   0.3326   0.3577   0.3724   0.3837   0.3862   0.4179   0.4196
  0.4396   0.4556   0.4837   0.6089   0.6394   0.6573   0.6658   0.6683
  0.6854   0.6989   0.7279   0.7320   0.7482   0.7502   0.7740   0.7795
  0.7994   0.8046   0.8215   0.8413   0.8620   0.9090   0.9536   0.9747
  0.9800   0.9921   1.0204   1.0269   1.0308   1.0569   1.0856   1.1035
  1.1197   1.1225   1.1273   1.1429   1.1647   1.1713   1.1843   1.1871
  1.2371   1.2500   1.2815   1.3208   1.3384   1.3655   1.3966   1.4141
  1.4664   1.4891   1.4997   1.5629   1.5821   1.6176   1.6975   1.7304
  1.7440   1.7542   1.7671   1.7993   1.8433   1.8698   1.9052   1.9104
  1.9140   1.9377   1.9717   2.0080   2.0113   2.0438   2.0593   2.0859
  2.1059   2.1262   2.2046   2.2129   2.2777   2.3064   2.3180   2.3408
  2.3969   2.4134   2.4172   2.4226   2.4503   2.5591   2.5819   2.6208
  2.6797   2.6886   2.7043   2.7571   2.7791   2.8368   2.8662   2.9941
  3.1851   4.0923   4.1931   4.2290   4.2960   4.3350   4.4142   4.6030
  4.6031   4.6698
 --------------------------------------------------------------
 
          Ground-State Mulliken Net Atomic Charges

     Atom                 Charge (a.u.)
  ----------------------------------------
      1 C                    -0.286123
      2 C                    -0.422512
      3 C                    -0.291781
      4 C                    -0.451930
      5 C                    -0.376812
      6 C                    -0.457228
      7 H                     0.211582
      8 H                     0.230135
      9 H                     0.212125
     10 H                     0.210909
     11 H                     0.207252
     12 H                     0.203256
     13 H                     0.199549
     14 H                     0.201558
     15 H                     0.207239
     16 H                     0.203419
     17 H                     0.211368
     18 N                    -0.379984
     19 H                     0.446160
     20 C                     0.343748
     21 H                     0.179433
     22 O                    -0.601365
  ----------------------------------------
  Sum of atomic charges =     0.000000

 -----------------------------------------------------------------
                    Cartesian Multipole Moments
 -----------------------------------------------------------------
    Charge (ESU x 10^10)
                -0.0000
    Dipole Moment (Debye)
         X       5.1853      Y       2.2255      Z       1.0988
       Tot       5.7487
    Quadrupole Moments (Debye-Ang)
        XX     -60.9362     XY      51.6443     YY     -11.8851
        XZ      93.5919     YZ      51.4954     ZZ     -10.8736
    Octopole Moments (Debye-Ang^2)
       XXX     -71.7167    XXY    -632.0311    XYY     486.9828
       YYY   -1109.2274    XXZ   -1218.3093    XYZ     933.1889
       YYZ    -218.3646    XZZ    1662.1718    YZZ     602.5329
       ZZZ   -2018.1033
    Hexadecapole Moments (Debye-Ang^3)
      XXXX    -513.9954   XXXY    -765.8985   XXYY   -6707.8488
      XYYY    4254.5895   YYYY  -28807.7188   XXXZ   -1697.7192
      XXYZ  -12686.6296   XYYZ    8678.4062   YYYZ  -22705.0055
      XXZZ  -24673.4696   XYZZ   16575.8176   YYZZ  -10125.4132
      XZZZ   28622.7720   YZZZ   -8441.9700   ZZZZ -101349.1622
 -----------------------------------------------------------------
 Calculating analytic gradient of the SCF energy
 Gradient of SCF Energy
            1           2           3           4           5           6
    1  -0.0014340  -0.0014631  -0.0093688   0.0004206  -0.0089924   0.0045695
    2  -0.0103980   0.0000637   0.0023357   0.0046427  -0.0027816  -0.0019138
    3   0.0028669  -0.0004925   0.0054137  -0.0041214  -0.0022076  -0.0030831
            7           8           9          10          11          12
    1   0.0010862   0.0022794   0.0034501  -0.0016216  -0.0011643   0.0031409
    2  -0.0014710   0.0011718   0.0045855   0.0015121  -0.0007534  -0.0003772
    3  -0.0012436   0.0030730  -0.0015703   0.0003546   0.0008275   0.0003343
           13          14          15          16          17          18
    1   0.0002344   0.0034342  -0.0019174   0.0015913   0.0052412  -0.0078384
    2  -0.0001477   0.0006940  -0.0001312   0.0024753   0.0010298  -0.0084102
    3   0.0022639  -0.0010098  -0.0005057   0.0007081  -0.0023539   0.0043890
           19          20          21          22
    1   0.0119489  -0.0128806   0.0056681   0.0036158
    2   0.0047338   0.0094559  -0.0022239  -0.0040923
    3  -0.0050687   0.0049136  -0.0026923  -0.0007956
 Max gradient component =       1.288E-02
 RMS gradient           =       4.345E-03
 Computing fast CPCM-SWIG gradient
 Updating gradient with PCM contributions...
 -- total gradient after adding PCM contribution --
---------------------------------------------------
  Atom         X              Y              Z     
---------------------------------------------------
   1       0.003369      -0.003866      -0.000874
   2      -0.001320      -0.000092      -0.003319
   3      -0.001331       0.001607       0.001897
   4       0.000144      -0.000201      -0.000700
   5      -0.003651      -0.000558       0.000986
   6       0.000718       0.001267       0.000110
   7       0.000563       0.000092      -0.000647
   8       0.000280       0.000295       0.001769
   9      -0.001506       0.002257       0.000292
  10      -0.000735       0.000149       0.000884
  11       0.000467      -0.000049       0.000275
  12       0.000657       0.000814      -0.000464
  13       0.000494      -0.000046      -0.000032
  14       0.000214      -0.000613      -0.000127
  15      -0.000269       0.000539      -0.000974
  16       0.000809      -0.000204      -0.000051
  17       0.000278      -0.001227      -0.000544
  18       0.001743      -0.003850       0.001191
  19      -0.000034      -0.000475      -0.000067
  20      -0.006629       0.011849       0.000501
  21       0.001753      -0.003739       0.000121
  22       0.003987      -0.003948      -0.000228
---------------------------------------------------
 Number of fixed atoms: 0
 Gradient time:  CPU 162.87 s  wall 15.54 s
 Geometry Optimization Parameters
   NAtoms,    NIC,     NZ,  NCons,   NDum,   NFix, NCnnct, MaxDiis
       22     172       0       0       0       0       0       0

 Cartesian Hessian Update
 Hessian updated using BFGS update


** GEOMETRY OPTIMIZATION IN DELOCALIZED INTERNAL COORDINATES **
   Searching for a Minimum

   Optimization Cycle:   4

                       Coordinates (Angstroms)
     ATOM                X               Y               Z
      1  C         0.4975544951   11.8652919800   20.4178941677
      2  C         0.4335490634   10.4411441024   19.8425052984
      3  C         1.5181548768    9.5413616026   20.4563685773
      4  C         1.4273482956    9.5136571319   21.9893931689
      5  C         1.4546522085   10.9272413558   22.5919476235
      6  C         0.4143744435   11.8594459793   21.9542419675
      7  H         1.4239356034    8.5278189820   20.0447282575
      8  H        -0.5466547655   10.0165479167   20.0823221824
      9  H         1.4198032865   12.3683952438   20.0923172214
     10  H        -0.3378938627   12.4532762984   20.0135767622
     11  H         0.5027764083    9.0001964539   22.2909720266
     12  H         2.2628338046    8.9257753541   22.3906778870
     13  H         1.3088165417   10.8780772818   23.6788250093
     14  H         2.4583634631   11.3511215266   22.4317665699
     15  H        -0.5981281444   11.5432759574   22.2460130895
     16  H         0.5484901569   12.8808532437   22.3324828010
     17  H         2.5094489603    9.9083644418   20.1479008573
     18  N         0.5400845397   10.4587755126   18.3840490115
     19  H         1.3954363404   10.8271574745   17.9805351451
     20  C        -0.4400176061   10.1232519758   17.5230185386
     21  H        -0.1259294780   10.2183873196   16.4698599395
     22  O        -1.5369986311    9.6405828653   17.8286038978
   Point Group: c1    Number of degrees of freedom:    60


   Energy is   -404.599279926

 Hessian updated using BFGS update

 60 Hessian modes will be used to form the next step
  Hessian Eigenvalues:
     0.004830    0.005383    0.006546    0.008377    0.012700    0.017713
     0.018547    0.018763    0.032656    0.035884    0.037094    0.041093
     0.045206    0.047333    0.049632    0.050928    0.053319    0.056687
     0.060029    0.066741    0.071785    0.080439    0.081340    0.083096
     0.083947    0.087315    0.090101    0.091327    0.123547    0.125718
     0.139396    0.157348    0.159303    0.162718    0.178355    0.211762
     0.219495    0.220233    0.269072    0.272581    0.275512    0.282263
     0.284853    0.287458    0.330941    0.334316    0.336969    0.338401
     0.344063    0.345340    0.345822    0.346508    0.347747    0.349690
     0.351637    0.356626    0.377383    0.466384    0.486956    0.932409

 Minimum search - taking simple RFO step
 Searching for Lamda that Minimizes Along All modes
 Value Taken    Lamda =  -0.00235019
 Calculated Step too Large.  Step scaled by  0.943627
 Step Taken.  Stepsize is  0.300000

                             Maximum     Tolerance    Cnvgd?
         Gradient           0.007568      0.000100      NO
         Displacement       0.158058      0.000100      NO
         Energy change     -0.001851      0.000000      NO


 New Cartesian Coordinates Obtained by Inverse Iteration

 Displacement from previous Coordinates is:  0.286313
 ----------------------------------------------------------------
             Standard Nuclear Orientation (Angstroms)
    I     Atom           X                Y                Z
 ----------------------------------------------------------------
    1      C       0.4791317519    11.8602547397    20.4215056829
    2      C       0.4315730358    10.4330364044    19.8466646992
    3      C       1.5186580887     9.5362602543    20.4626536536
    4      C       1.4279037330     9.5207305037    21.9969415225
    5      C       1.4822211499    10.9422606428    22.5769380418
    6      C       0.4044089709    11.8445009465    21.9582422400
    7      H       1.4219207490     8.5212989234    20.0573920344
    8      H      -0.5513797899     9.9986620857    20.0583706489
    9      H       1.4251689636    12.3272016022    20.1068683852
   10      H      -0.3405955133    12.4521119942    19.9963927454
   11      H       0.4895261579     9.0319311302    22.3002404867
   12      H       2.2431951050     8.9128405791    22.4110435416
   13      H       1.3480255468    10.9071155417    23.6666119274
   14      H       2.4769740551    11.3771113893    22.3929723959
   15      H      -0.5899380234    11.4946778861    22.2735729899
   16      H       0.5095539967    12.8696541395    22.3375613152
   17      H       2.5071131280     9.9162262142    20.1604178691
   18      N       0.5449857157    10.4564250824    18.3845157643
   19      H       1.4049323243    10.8203368680    17.9852189573
   20      C      -0.4232173889    10.1077784304    17.5182892344
   21      H      -0.1250161248    10.2439739929    16.4652505456
   22      O      -1.5551456320     9.6956106493    17.8123353186
 ----------------------------------------------------------------
 Nuclear Repulsion Energy =         466.32733290 hartrees
 There are       35 alpha and       35 beta electrons
 Discretize the solute cavity surface with Lebedev spheres
	Using 302 Lebedev grid points for each H atom
	Using 302 Lebedev grid points for other atoms
	Atomic van der Waals radii will be scaled by 1.20
 Remove points where switching function is < 1.0e-08
 Keep 2733 surface tesserae and discard 3911 interior tesserae
 Molecular Surface Area = 182.616 Angst**2
 Applying Cartesian multipole field
    Component          Value
    ---------          -----
     (2,0,0)        1.00000E-11
     (0,2,0)        2.00000E-12
     (0,0,2)       -3.00000E-13
 Nucleus-field energy     =     0.0000000282 hartrees
 Requested basis set is 6-31+G(d)
 There are 71 shells and 197 basis functions
 A cutoff of  1.0D-14 yielded   2411 shell pairs
 There are     18991 function pairs
 Smallest overlap matrix eigenvalue = 2.47E-05
 Guess MOs from SCF MO coefficient file

 -----------------------------------------------------------------------
  General SCF calculation program by
  Eric Jon Sundstrom, Paul Horn, Yuezhi Mao, Dmitri Zuev, Alec White,
  David Stuck, Shaama M.S., Shane Yost, Joonho Lee, David Small,
  Daniel Levine, Susi Lehtola, Hugh Burton, Evgeny Epifanovsky,
  Bang C. Huynh
 -----------------------------------------------------------------------
 Exchange:     0.2000 Hartree-Fock + 0.0800 Slater + 0.7200 B88
 Correlation:  0.1900 VWN1RPA + 0.8100 LYP
 Using Euler-Maclaurin-Lebedev (99,590) quadrature formula
 using 16 threads for integral computing
 -------------------------------------------------------
 OpenMP Integral computing Module                
 Release: version 2.0, May 2017, Q-Chem Inc. Pleasanton 
 -------------------------------------------------------
 A restricted SCF calculation will be
 performed using Roothaan-Hall, DIIS
 SCF converges when DIIS error is below 1.0e-08
 ---------------------------------------
  Cycle       Energy         DIIS error
 ---------------------------------------
    1    -404.5794538596      8.47e-04  Roothaan Step
 ---------------------------------------
  Cycle       Energy         DIIS error
 ---------------------------------------
    1    -404.5904574126      1.18e-03  
    2    -404.5749152986      2.56e-03  
    3    -404.5999253525      1.98e-04  
    4    -404.6000733271      1.10e-04  
    5    -404.6001198600      3.32e-05  
    6    -404.6001243311      8.58e-06  
    7    -404.6001246095      2.98e-06  
    8    -404.6001246522      5.51e-07  
    9    -404.6001246535      2.32e-07  
   10    -404.6001246537      4.22e-08  
   11    -404.6001246538      1.07e-08  
   12    -404.6001246538      2.97e-09  Convergence criterion met
 ---------------------------------------
 SCF time:   CPU 1021.06s  wall 70.00s 

************** Final PCM Free Energy Summary **************
 G_electrostatic  =      -0.01705064 hartree =     -10.69943811 kcal/mol
 G_cavitation     =       0.00000000 hartree =       0.00000000 kcal/mol
 G_dispersion     =       0.00000000 hartree =       0.00000000 kcal/mol
 G_repulsion      =       0.00000000 hartree =       0.00000000 kcal/mol
 --------------------------------------------------
 Non-electrostatic Free Energy =       0.00000000 hartree =       0.00000000 kcal/mol
 Total                         =      -0.01705064 hartree =     -10.69943811 kcal/mol
 --------------------------------------------------
 SCF Energy (H0 + V/2)                       =    -404.60012465 
 Solute Internal Energy (H0)                 =    -404.58307401 
 Total Free Energy (H0 + V/2 + non-elec)     =    -404.60012465 hartree
                                             = -253890.41018801 kcal/mol
***********************************************************

 SCF   energy in the final basis set =     -404.6001246538
 Total energy in the final basis set =     -404.6001246538
 
 --------------------------------------------------------------
 
                    Orbital Energies (a.u.)
 --------------------------------------------------------------
 
 Alpha MOs
 -- Occupied --
-19.1334 -14.3722 -10.2935 -10.2259 -10.1838 -10.1837 -10.1810 -10.1808
-10.1791  -1.0378  -0.9336  -0.8254  -0.7438  -0.7423  -0.6376  -0.6126
 -0.5926  -0.5637  -0.5266  -0.4841  -0.4613  -0.4431  -0.4384  -0.4192
 -0.4180  -0.3959  -0.3794  -0.3743  -0.3481  -0.3447  -0.3225  -0.3129
 -0.3104  -0.2694  -0.2609
 -- Virtual --
  0.0077   0.0092   0.0161   0.0239   0.0253   0.0406   0.0480   0.0487
  0.0585   0.0689   0.0696   0.0832   0.0868   0.0946   0.0999   0.1044
  0.1115   0.1168   0.1249   0.1336   0.1403   0.1512   0.1556   0.1610
  0.1698   0.1795   0.1822   0.1884   0.1987   0.2019   0.2101   0.2137
  0.2209   0.2257   0.2314   0.2442   0.2478   0.2550   0.2637   0.2695
  0.2785   0.2817   0.2881   0.2897   0.2942   0.3042   0.3107   0.3257
  0.3290   0.3315   0.3593   0.3714   0.3850   0.3868   0.4161   0.4203
  0.4387   0.4583   0.4844   0.6090   0.6388   0.6558   0.6664   0.6670
  0.6841   0.6977   0.7297   0.7325   0.7450   0.7532   0.7755   0.7791
  0.8007   0.8047   0.8194   0.8484   0.8622   0.9118   0.9535   0.9750
  0.9788   0.9921   1.0209   1.0271   1.0296   1.0561   1.0892   1.1020
  1.1179   1.1230   1.1269   1.1436   1.1626   1.1708   1.1845   1.1916
  1.2382   1.2467   1.2821   1.3283   1.3419   1.3712   1.3898   1.4157
  1.4782   1.4875   1.4928   1.5672   1.5768   1.6158   1.6935   1.7314
  1.7360   1.7545   1.7677   1.8052   1.8512   1.8716   1.9020   1.9074
  1.9116   1.9393   1.9777   2.0089   2.0181   2.0443   2.0555   2.0855
  2.0939   2.1297   2.2028   2.2149   2.2772   2.3082   2.3165   2.3438
  2.3952   2.4103   2.4198   2.4249   2.4478   2.5598   2.5854   2.6211
  2.6731   2.6834   2.7048   2.7615   2.7798   2.8336   2.8633   2.9918
  3.1862   4.0930   4.1938   4.2292   4.2951   4.3329   4.4148   4.6028
  4.6082   4.6723
 --------------------------------------------------------------
 
          Ground-State Mulliken Net Atomic Charges

     Atom                 Charge (a.u.)
  ----------------------------------------
      1 C                    -0.274409
      2 C                    -0.432499
      3 C                    -0.281814
      4 C                    -0.450414
      5 C                    -0.382152
      6 C                    -0.457958
      7 H                     0.211554
      8 H                     0.228941
      9 H                     0.211313
     10 H                     0.211356
     11 H                     0.207721
     12 H                     0.202821
     13 H                     0.199308
     14 H                     0.202716
     15 H                     0.208058
     16 H                     0.202774
     17 H                     0.211393
     18 N                    -0.382764
     19 H                     0.445838
     20 C                     0.344218
     21 H                     0.179751
     22 O                    -0.605753
  ----------------------------------------
  Sum of atomic charges =     0.000000

 -----------------------------------------------------------------
                    Cartesian Multipole Moments
 -----------------------------------------------------------------
[...]

 Mode:                40                     41                     42
 Frequency:      1404.38                1494.96                1497.44
 Force Cnst:      1.7089                 1.4327                 1.4385
 Red. Mass:       1.4706                 1.0880                 1.0889
 IR Active:          YES                    YES                    YES
 IR Intens:        0.680                  0.116                  5.261
 Raman Active:       YES                    YES                    YES
               X      Y      Z        X      Y      Z        X      Y      Z
 C         -0.010  0.056  0.094    0.011  0.038 -0.031    0.001  0.016  0.005
 C         -0.021 -0.011 -0.099   -0.007  0.015 -0.001    0.001  0.000 -0.009
 C          0.037 -0.044  0.098   -0.033  0.016  0.030    0.013 -0.010  0.005
 C         -0.011  0.041  0.023   -0.008 -0.021  0.022   -0.006 -0.023  0.006
 C         -0.008 -0.004 -0.010    0.005 -0.014 -0.000   -0.052 -0.024 -0.046
 C          0.023 -0.034  0.025    0.021 -0.009 -0.022   -0.022  0.011  0.007
 H         -0.090  0.146 -0.371    0.374  0.035 -0.153   -0.089 -0.006  0.022
 H          0.078  0.053  0.469    0.031 -0.070  0.000    0.006  0.004  0.026
 H         -0.029 -0.142 -0.286    0.233 -0.276  0.212    0.044 -0.084 -0.005
 H          0.051 -0.166 -0.358   -0.295 -0.265  0.163   -0.058 -0.055  0.019
 H          0.014 -0.042 -0.035   -0.151  0.163 -0.156   -0.124  0.175 -0.061
 H          0.001 -0.125 -0.252    0.188  0.169 -0.107    0.150  0.126 -0.106
 H         -0.064 -0.026 -0.022    0.006  0.001  0.000    0.561  0.250  0.045
 H         -0.023 -0.011 -0.062   -0.027  0.064  0.005    0.072  0.039  0.608
 H         -0.024  0.040 -0.042   -0.021  0.227  0.154    0.047 -0.214 -0.059
 H         -0.091  0.079 -0.250   -0.256 -0.023  0.105    0.199  0.025 -0.106
 H         -0.125  0.071 -0.301    0.045 -0.340 -0.195   -0.034  0.097 -0.004
 N          0.005  0.002 -0.032   -0.000 -0.000 -0.000   -0.000 -0.000 -0.001
 H          0.059  0.024  0.105    0.001 -0.001  0.001    0.005  0.002  0.010
 C          0.002  0.001  0.026    0.000 -0.000  0.000    0.001  0.000  0.001
 H         -0.005 -0.002  0.037   -0.000  0.001  0.000   -0.001 -0.000  0.002
 O          0.003  0.001 -0.005   -0.000 -0.000  0.000   -0.000 -0.000 -0.000
 TransDip   0.001 -0.003  0.026    0.004 -0.010  0.002    0.065  0.029  0.017

 Mode:                43                     44                     45
 Frequency:      1500.46                1501.42                1513.71
 Force Cnst:      1.4569                 1.4493                 1.4866
 Red. Mass:       1.0983                 1.0912                 1.1012
 IR Active:          YES                    YES                    YES
 IR Intens:        7.475                 11.246                  0.684
 Raman Active:       YES                    YES                    YES
               X      Y      Z        X      Y      Z        X      Y      Z
 C         -0.001 -0.036  0.021   -0.006 -0.036  0.015   -0.000 -0.035  0.016
 C         -0.002  0.005  0.002    0.000 -0.000  0.015   -0.004 -0.001  0.013
 C          0.018 -0.018 -0.015   -0.038  0.027  0.020   -0.027  0.024  0.015
 C         -0.004 -0.046  0.034   -0.003 -0.027  0.016    0.000  0.036 -0.019
 C          0.000  0.003  0.002    0.010  0.004  0.014   -0.024 -0.011 -0.033
 C          0.030 -0.023 -0.028   -0.031  0.023  0.022    0.027 -0.024 -0.018
 H         -0.194 -0.035  0.093    0.391  0.033 -0.136    0.291  0.038 -0.117
 H          0.005 -0.014 -0.002   -0.009 -0.003 -0.018   -0.010 -0.006 -0.016
 H         -0.178  0.238 -0.137   -0.181  0.235 -0.135   -0.170  0.233 -0.119
 H          0.229  0.183 -0.128    0.225  0.213 -0.103    0.218  0.181 -0.116
 H         -0.252  0.312 -0.215   -0.150  0.180 -0.134    0.173 -0.226  0.133
 H          0.317  0.256 -0.184    0.184  0.172 -0.081   -0.224 -0.181  0.115
 H         -0.000 -0.035  0.000   -0.103 -0.041  0.001    0.285  0.127  0.009
 H         -0.008  0.012 -0.015   -0.016 -0.009 -0.112    0.041  0.023  0.319
 H         -0.053  0.329  0.168    0.048 -0.322 -0.172   -0.052  0.284  0.128
 H         -0.329 -0.053  0.157    0.338  0.033 -0.120   -0.287 -0.042  0.113
 H         -0.040  0.202  0.089    0.068 -0.377 -0.165    0.060 -0.294 -0.115
 N          0.000 -0.001 -0.000   -0.000  0.000 -0.002    0.005  0.002  0.009
 H         -0.001  0.001 -0.001   -0.004 -0.002 -0.011   -0.021 -0.009 -0.060
 C         -0.000 -0.000  0.000   -0.001 -0.000 -0.000   -0.006 -0.002 -0.006
 H         -0.000  0.001  0.000    0.001  0.000 -0.000    0.003  0.001 -0.007
 O          0.000  0.000 -0.000    0.001  0.000 -0.000    0.002  0.001  0.000
 TransDip  -0.027  0.083 -0.011    0.072  0.019 -0.077   -0.012 -0.003 -0.023

 Mode:                46                     47                     48
 Frequency:      1553.51                1678.00                2237.22
 Force Cnst:      2.5071                14.3021                 7.0667
 Red. Mass:       1.7632                 8.6212                 2.3964
 IR Active:          YES                    YES                    YES
 IR Intens:      256.364                850.051                100.193
 Raman Active:       YES                    YES                    YES
               X      Y      Z        X      Y      Z        X      Y      Z
 C         -0.003 -0.004  0.009   -0.005 -0.007  0.019   -0.000 -0.000 -0.000
 C          0.057  0.023  0.058    0.015  0.006 -0.032    0.000  0.000  0.003
 C         -0.006  0.001  0.010   -0.009  0.001  0.019   -0.000  0.000 -0.000
 C         -0.001 -0.000 -0.009    0.005 -0.004 -0.005   -0.000  0.000 -0.000
 C         -0.002 -0.001  0.000   -0.001 -0.000  0.001   -0.000 -0.000 -0.000
 C         -0.001 -0.001 -0.008    0.000  0.007 -0.005    0.000 -0.000 -0.000
 H          0.030  0.004  0.002    0.013  0.017 -0.019    0.001 -0.000  0.000
 H         -0.008 -0.008 -0.342    0.051  0.021  0.056    0.000 -0.000  0.007
 H         -0.009 -0.022 -0.051   -0.018 -0.018 -0.027   -0.000  0.000  0.000
 H          0.024  0.024  0.004    0.023 -0.001 -0.018    0.000  0.001  0.001
 H          0.018 -0.011  0.032    0.007  0.002  0.002   -0.000 -0.000 -0.000
 H         -0.024 -0.008  0.024   -0.013  0.007  0.041    0.000 -0.000 -0.000
 H          0.023  0.011  0.003    0.011  0.005  0.001   -0.000 -0.000  0.000
 H          0.002  0.001  0.019   -0.001 -0.000  0.004    0.000  0.000 -0.000
 H          0.003  0.022  0.030    0.006  0.004  0.004   -0.000 -0.000 -0.000
 H         -0.023 -0.011  0.023   -0.005 -0.014  0.041    0.000  0.000 -0.000
 H         -0.024  0.008 -0.055   -0.026 -0.001 -0.026   -0.000 -0.000  0.000
 N         -0.100 -0.039 -0.172   -0.111 -0.042 -0.014    0.004  0.002  0.014
 H          0.287  0.113  0.833   -0.255 -0.093 -0.371   -0.014 -0.006 -0.058
 C          0.043  0.016  0.092    0.629  0.235 -0.016    0.060  0.021 -0.184
 H         -0.031 -0.011  0.131   -0.082 -0.034 -0.382   -0.259 -0.091  0.939
 O          0.007  0.002 -0.013   -0.356 -0.132  0.095   -0.015 -0.006  0.009
 TransDip   0.311  0.119  0.390    0.843  0.318  0.243    0.152  0.055 -0.277

 Mode:                49                     50                     51
 Frequency:      3013.75                3013.93                3018.01
 Force Cnst:      5.7165                 5.7176                 5.7367
 Red. Mass:       1.0682                 1.0683                 1.0690
 IR Active:          YES                    YES                    YES
 IR Intens:       35.120                 37.123                 15.579
 Raman Active:       YES                    YES                    YES
               X      Y      Z        X      Y      Z        X      Y      Z
 C         -0.009 -0.006  0.004    0.024  0.026 -0.018   -0.031 -0.028  0.018
 C         -0.002 -0.000  0.000    0.000 -0.001  0.000    0.006  0.003 -0.000
 C          0.027 -0.002 -0.013   -0.038 -0.002  0.018   -0.039 -0.002  0.018
 C          0.007  0.001  0.000    0.026  0.016 -0.011    0.015  0.008 -0.005
 C         -0.054 -0.024 -0.009   -0.028 -0.013 -0.004   -0.001 -0.000  0.010
 C          0.026  0.009 -0.008   -0.011  0.000  0.006    0.032  0.005 -0.014
 H          0.023  0.155  0.055   -0.027 -0.156 -0.059   -0.026 -0.168 -0.061
 H          0.024  0.010 -0.005    0.001  0.002 -0.001   -0.076 -0.034  0.016
 H          0.129  0.062 -0.043   -0.440 -0.212  0.139    0.504  0.247 -0.160
 H         -0.015  0.007 -0.008    0.152 -0.098  0.069   -0.130  0.083 -0.059
 H         -0.064 -0.034  0.021   -0.358 -0.179  0.115   -0.187 -0.095  0.059
 H         -0.025  0.017 -0.017    0.034 -0.016  0.012    0.005  0.001  0.001
 H         -0.041 -0.017  0.257   -0.022 -0.004  0.128    0.016  0.004 -0.126
 H          0.689  0.302 -0.152    0.359  0.160 -0.079    0.001  0.000  0.004
 H         -0.326 -0.123  0.100    0.137  0.053 -0.042   -0.411 -0.157  0.124
 H          0.006  0.015  0.000   -0.010 -0.053 -0.022    0.017  0.100  0.036
 H         -0.345 -0.136  0.104    0.484  0.190 -0.149    0.494  0.192 -0.150
 N         -0.000 -0.000 -0.000   -0.000  0.000 -0.000   -0.000 -0.000 -0.000
 H          0.000 -0.001  0.001   -0.000  0.001 -0.000   -0.000 -0.000 -0.003
 C          0.000  0.000  0.000    0.000  0.000  0.000    0.001  0.000 -0.000
 H         -0.000  0.000 -0.000    0.000 -0.000 -0.000   -0.000 -0.000 -0.000
 O         -0.000 -0.000 -0.000   -0.000 -0.000  0.000   -0.000 -0.000  0.000
 TransDip  -0.029 -0.112 -0.150   -0.126  0.136 -0.062   -0.061 -0.063  0.091

 Mode:                52                     53                     54
 Frequency:      3019.43                3020.86                3062.49
 Force Cnst:      5.7060                 5.7012                 6.0461
 Red. Mass:       1.0623                 1.0604                 1.0941
 IR Active:          YES                    YES                    YES
 IR Intens:        8.462                145.037                116.356
 Raman Active:       YES                    YES                    YES
               X      Y      Z        X      Y      Z        X      Y      Z
 C          0.011  0.022 -0.014   -0.009 -0.020  0.013   -0.017  0.004 -0.002
 C         -0.001  0.000  0.000    0.004  0.002 -0.000    0.006  0.003 -0.001
 C         -0.012  0.008  0.009   -0.017  0.006  0.011   -0.009 -0.017 -0.003
 C         -0.023 -0.036  0.023   -0.012 -0.030  0.019   -0.012  0.013 -0.008
 C         -0.001  0.000 -0.002   -0.016 -0.007 -0.021    0.028  0.011 -0.073
 C          0.033 -0.008 -0.018   -0.032  0.013  0.020    0.001 -0.020 -0.009
 H         -0.020 -0.160 -0.059   -0.020 -0.161 -0.059    0.016  0.168  0.064
 H          0.011  0.003 -0.002   -0.051 -0.022  0.012   -0.075 -0.033  0.017
 H         -0.301 -0.143  0.094    0.264  0.126 -0.083    0.081  0.042 -0.027
 H          0.165 -0.113  0.077   -0.154  0.107 -0.073    0.118 -0.087  0.059
 H          0.526  0.257 -0.165    0.383  0.187 -0.119   -0.032 -0.014  0.008
 H         -0.243  0.167 -0.111   -0.237  0.167 -0.110    0.176 -0.132  0.087
 H         -0.003 -0.005  0.032   -0.038 -0.013  0.306   -0.088 -0.029  0.834
 H          0.009  0.005 -0.003    0.223  0.098 -0.054   -0.250 -0.110  0.042
 H         -0.419 -0.165  0.127    0.412  0.162 -0.122   -0.022 -0.011  0.005
 H          0.033  0.258  0.092   -0.036 -0.308 -0.111    0.022  0.248  0.093
 H          0.166  0.068 -0.050    0.220  0.088 -0.067    0.088  0.031 -0.028
 N          0.000 -0.000  0.000    0.000  0.000 -0.000   -0.000 -0.000 -0.000
 H         -0.000  0.001  0.000    0.000  0.000 -0.002    0.001  0.000 -0.001
 C         -0.000 -0.000  0.000    0.000  0.000 -0.000    0.000  0.000  0.000
 H          0.000 -0.000  0.000   -0.000 -0.000 -0.000   -0.000 -0.000 -0.000
 O          0.000  0.000 -0.000   -0.000 -0.000  0.000   -0.000 -0.000  0.000
 TransDip   0.038 -0.085 -0.007   -0.315 -0.140  0.172   -0.024 -0.026 -0.344

 Mode:                55                     56                     57
 Frequency:      3063.84                3067.51                3069.07
 Force Cnst:      6.0676                 6.0847                 6.0847
 Red. Mass:       1.0971                 1.0975                 1.0964
 IR Active:          YES                    YES                    YES
 IR Intens:      119.053                 77.046                 86.767
 Raman Active:       YES                    YES                    YES
               X      Y      Z        X      Y      Z        X      Y      Z
 C          0.008 -0.009  0.006    0.011 -0.012  0.008   -0.040  0.015 -0.011
 C         -0.000  0.001  0.000   -0.002 -0.001  0.002    0.023  0.010 -0.006
 C          0.002 -0.012 -0.006   -0.000  0.019  0.008   -0.023 -0.056 -0.014
 C          0.057 -0.020  0.014   -0.054  0.018 -0.011   -0.021 -0.004  0.002
 C         -0.001 -0.001  0.002   -0.022 -0.010  0.015   -0.015 -0.006  0.026
 C         -0.024 -0.056 -0.013   -0.023 -0.051 -0.010   -0.013 -0.009  0.002
 H          0.016  0.152  0.060   -0.024 -0.236 -0.092    0.061  0.593  0.233
 H         -0.000  0.001 -0.000    0.038  0.017 -0.008   -0.289 -0.127  0.068
 H          0.032  0.014 -0.010    0.029  0.012 -0.009    0.137  0.074 -0.050
 H         -0.127  0.092 -0.065   -0.165  0.121 -0.084    0.342 -0.250  0.176
 H         -0.213 -0.115  0.074    0.220  0.120 -0.076    0.174  0.090 -0.057
 H         -0.467  0.350 -0.234    0.429 -0.323  0.213    0.069 -0.053  0.035
 H          0.003  0.000 -0.026    0.014  0.004 -0.135    0.029  0.009 -0.278
 H          0.012  0.004 -0.002    0.239  0.105 -0.047    0.149  0.066 -0.027
 H          0.241  0.083 -0.077    0.236  0.081 -0.075    0.143  0.052 -0.044
 H          0.052  0.591  0.224    0.046  0.524  0.197    0.004  0.051  0.020
 H         -0.031 -0.014  0.010    0.017  0.009 -0.005    0.217  0.075 -0.073
 N          0.000 -0.000  0.000   -0.000 -0.000 -0.000   -0.000  0.000  0.000
 H          0.000 -0.000 -0.000   -0.000 -0.000 -0.001    0.004  0.002 -0.002
 C          0.000 -0.000  0.000    0.000  0.000 -0.000    0.000  0.000  0.000
 H         -0.000  0.000  0.000   -0.000 -0.000 -0.000    0.000  0.000 -0.000
 O         -0.000  0.000 -0.000   -0.000 -0.000 -0.000   -0.000 -0.000  0.000
 TransDip   0.135 -0.322  0.013   -0.261 -0.104  0.009   -0.260 -0.147 -0.008

 Mode:                58                     59                     60
 Frequency:      3070.77                3097.32                3581.09
 Force Cnst:      6.1091                 6.1494                 8.1480
 Red. Mass:       1.0996                 1.0879                 1.0784
 IR Active:          YES                    YES                    YES
 IR Intens:       48.298                 56.123                 58.540
 Raman Active:       YES                    YES                    YES
               X      Y      Z        X      Y      Z        X      Y      Z
 C         -0.065  0.021 -0.016   -0.023  0.003 -0.002    0.000  0.000 -0.000
 C          0.003  0.002 -0.001   -0.071 -0.031  0.016   -0.001 -0.000 -0.001
 C          0.022  0.048  0.011   -0.012 -0.019 -0.002    0.000  0.000 -0.000
 C          0.014  0.000  0.000   -0.004 -0.001  0.001    0.000  0.000 -0.000
 C         -0.001 -0.001  0.003   -0.001 -0.000  0.002    0.000  0.000 -0.000
 C         -0.013 -0.011  0.001   -0.004 -0.002  0.001    0.000  0.000 -0.000
 H         -0.050 -0.495 -0.195    0.016  0.174  0.066    0.000 -0.000  0.000
 H         -0.048 -0.019  0.011    0.837  0.367 -0.185    0.009  0.004 -0.005
 H          0.254  0.134 -0.089    0.130  0.071 -0.041   -0.000  0.001  0.001
 H          0.528 -0.387  0.272    0.141 -0.105  0.071   -0.000  0.000 -0.000
 H         -0.097 -0.050  0.033    0.043  0.022 -0.017   -0.000 -0.000 -0.000
 H         -0.067  0.051 -0.034    0.007 -0.005  0.003   -0.000  0.000  0.000
 H          0.002  0.003 -0.029    0.002  0.001 -0.017   -0.000 -0.000  0.000
 H          0.015  0.005 -0.002    0.012  0.005 -0.001   -0.000 -0.000  0.000
 H          0.138  0.051 -0.044    0.046  0.017 -0.017   -0.000 -0.000 -0.000
 H          0.007  0.085  0.032    0.001  0.008  0.002   -0.000 -0.000 -0.000
 H         -0.213 -0.075  0.069    0.137  0.046 -0.040    0.000 -0.001  0.001
 N          0.000 -0.000  0.000    0.001  0.000  0.001   -0.064 -0.024  0.028
 H          0.001 -0.000 -0.000   -0.010 -0.004 -0.001    0.860  0.325 -0.387
 C         -0.000  0.000  0.000   -0.002 -0.001 -0.000    0.001  0.000  0.002
 H          0.000 -0.000 -0.000    0.000 -0.000  0.001   -0.000 -0.000 -0.003
 O          0.000 -0.000  0.000    0.001  0.000 -0.001    0.001  0.000 -0.000
 TransDip  -0.123  0.186 -0.007   -0.208 -0.095  0.073    0.229  0.085 -0.023

 STANDARD THERMODYNAMIC QUANTITIES AT   298.18 K  AND     1.00 ATM

   This Molecule has  1 Imaginary Frequencies
   Zero point vibrational energy:      121.851 kcal/mol

   Atom    1 Element C  Has Mass   12.00000
   Atom    2 Element C  Has Mass   12.00000
   Atom    3 Element C  Has Mass   12.00000
   Atom    4 Element C  Has Mass   12.00000
   Atom    5 Element C  Has Mass   12.00000
   Atom    6 Element C  Has Mass   12.00000
   Atom    7 Element H  Has Mass    1.00783
   Atom    8 Element H  Has Mass    1.00783
   Atom    9 Element H  Has Mass    1.00783
   Atom   10 Element H  Has Mass    1.00783
   Atom   11 Element H  Has Mass    1.00783
   Atom   12 Element H  Has Mass    1.00783
   Atom   13 Element H  Has Mass    1.00783
   Atom   14 Element H  Has Mass    1.00783
   Atom   15 Element H  Has Mass    1.00783
   Atom   16 Element H  Has Mass    1.00783
   Atom   17 Element H  Has Mass    1.00783
   Atom   18 Element N  Has Mass   14.00307
   Atom   19 Element H  Has Mass    1.00783
   Atom   20 Element C  Has Mass   12.00000
   Atom   21 Element H  Has Mass    2.01410
   Atom   22 Element O  Has Mass   15.99491
   Molecular Mass:   128.106042 amu
   Principal axes and moments of inertia in amu*Bohr^2:
                             1           2           3
    Eigenvalues --      538.08129  2028.62616  2229.31932
          X               0.39058    -0.42711     0.81549
          Y               0.16126     0.90390     0.39618
          Z               0.90633     0.02323    -0.42193
   Rotational Symmetry Number is   1
   The Molecule is an Asymmetric Top
   Translational Enthalpy:        0.889 kcal/mol
   Rotational Enthalpy:           0.889 kcal/mol
   Vibrational Enthalpy:        125.136 kcal/mol
   gas constant (RT):             0.593 kcal/mol
   Translational Entropy:        40.457  cal/mol.K
   Rotational Entropy:           29.277  cal/mol.K
   Vibrational Entropy:          18.130  cal/mol.K

   Total Enthalpy:              127.506 kcal/mol
   Total Entropy:                87.864  cal/mol.K
Archival summary:
1\1\node023\FREQ\ProcedureUnspecified\6-31+G*\11713\ymao90\ThuApr815:44:362021ThuApr815:44:362021\0\\#,FREQ,ProcedureUnspecified,6-31+G*,\\0,1\N\H,1,1.01514\C,1,1.34653,2,116.81\H,3,1.10277,1,112.639,2,0.561654,0\O,3,1.23837,1,125.953,2,-179.528,0\C,1,1.46651,2,117.63,3,-179.276,0\H,6,1.09469,1,105.909,2,-177.092,0\C,6,1.53891,1,110.593,2,-59.0761,0\H,8,1.09741,6,109.434,1,-58.9075,0\H,8,1.10089,6,108.781,1,57.7539,0\C,8,1.53786,6,111.366,1,178.489,0\H,11,1.09771,8,109.628,6,-177.62,0\H,11,1.10037,8,109.142,6,65.9134,0\C,11,1.53688,8,111.644,6,-54.9382,0\H,14,1.09797,11,110.126,8,177.202,0\H,14,1.10069,11,109.246,8,-65.8645,0\C,14,1.53687,11,111.23,8,54.8033,0\H,17,1.09772,14,110.419,11,-177.072,0\H,17,1.1004,14,109.235,11,65.9547,0\C,17,1.53782,14,111.597,11,-54.8391,0\H,20,1.09738,17,110.633,14,176.919,0\H,20,1.10075,17,109.518,14,-65.2806,0\\\@

 Total job time:  1214.68s(wall), 17227.10s(cpu) 
 Thu Apr  8 15:44:36 2021

        *************************************************************
        *                                                           *
        *  Thank you very much for using Q-Chem.  Have a nice day.  *
        *                                                           *
        *************************************************************


