                  Welcome to Q-Chem
     A Quantum Leap Into The Future Of Chemistry


 Q-Chem 5.2 (devel), Q-Chem, Inc., Pleasanton, CA (2019)

 Yihan Shao,  Zhengting Gan,  E. Epifanovsky,  A. T. B. Gilbert,  M. Wormit,  
 J. Kussmann,  A. W. Lange,  A. Behn,  Jia Deng,  Xintian Feng,  D. Ghosh,  
 M. Goldey,  P. R. Horn,  L. D. Jacobson,  I. Kaliman,  T. Kus,  A. Landau,  
 Jie Liu,  E. I. Proynov,  R. M. Richard,  R. P. Steele,  E. J. Sundstrom,  
 H. L. Woodcock III,  P. M. Zimmerman,  D. Zuev,  B. Alam,  B. Albrecht,  
 E. Alguire,  S. A. Baeppler,  D. Barton,  Z. Benda,  Y. A. Bernard,  
 E. J. Berquist,  K. B. Bravaya,  H. Burton,  K. Carter-Fenk,  D. Casanova,  
 Chun-Min Chang,  Yunqing Chen,  A. Chien,  K. D. Closser,  M. P. Coons,  
 S. Coriani,  S. Dasgupta,  A. L. Dempwolff,  M. Diedenhofen,  Hainam Do,  
 R. G. Edgar,  Po-Tung Fang,  S. Faraji,  S. Fatehi,  Qingguo Feng,  
 J. Fosso-Tande,  J. Gayvert,  Qinghui Ge,  A. Ghysels,  G. Gidofalvi,  
 J. Gomes,  J. Gonthier,  A. Gunina,  D. Hait,  M. W. D. Hanson-Heine,  
 P. H. P. Harbach,  A. W. Hauser,  M. F. Herbst,  J. E. Herr,  
 E. G. Hohenstein,  Z. C. Holden,  Kerwin Hui,  B. C. Huynh,  T.-C. Jagau,  
 Hyunjun Ji,  B. Kaduk,  K. Khistyaev,  Jaehoon Kim,  P. Klunzinger,  K. Koh,  
 D. Kosenkov,  L. Koulias,  T. Kowalczyk,  C. M. Krauter,  A. Kunitsa,  
 Ka Un Lao,  A. Laurent,  K. V. Lawler,  Joonho Lee,  D. Lefrancois,  
 S. Lehtola,  D. S. Levine,  Yi-Pei Li,  You-Sheng Lin,  Fenglai Liu,  
 Kuan-Yu Liu,  E. Livshits,  M. Loipersberger,  A. Luenser,  P. Manohar,  
 E. Mansoor,  S. F. Manzer,  Shan-Ping Mao,  Yuezhi Mao,  N. Mardirossian,  
 A. V. Marenich,  T. Markovich,  L. A. Martinez-Martinez,  S. A. Maurer,  
 N. J. Mayhall,  S. C. McKenzie,  J.-M. Mewes,  P. Morgante,  A. F. Morrison,  
 J. W. Mullinax,  K. Nanda,  T. S. Nguyen-Beck,  R. Olivares-Amaya,  
 J. A. Parkhill,  S. K. Paul,  F. Pavosevic,  Zheng Pei,  T. M. Perrine,  
 F. Plasser,  P. Pokhilko,  S. Prager,  A. Prociuk,  E. Ramos,  B. Rana,  
 D. R. Rehn,  F. Rob,  M. Scheurer,  M. Schneider,  N. Sergueev,  
 S. M. Sharada,  S. Sharma,  D. W. Small,  T. Stauch,  C. J. Stein,  
 T. Stein,  Yu-Chuan Su,  S. P. Veccham,  Zhen Tao,  A. J. W. Thom,  
 A. Tkatchenko,  T. Tsuchimochi,  N. M. Tubman,  L. Vogt,  M. L. Vidal,  
 O. Vydrov,  M. A. Watson,  J. Wenzel,  M. de Wergifosse,  T. A. Wesolowski,  
 A. White,  J. Witte,  A. Yamada,  Jun Yang,  K. Yao,  S. Yeganeh,  
 S. R. Yost,  Zhi-Qiang You,  A. Zech,  Igor Ying Zhang,  Xing Zhang,  
 Yan Zhao,  Ying Zhu,  B. R. Brooks,  G. K. L. Chan,  C. J. Cramer,  
 M. S. Gordon,  W. J. Hehre,  A. Klamt,  M. W. Schmidt,  C. D. Sherrill,  
 D. G. Truhlar,  A. Aspuru-Guzik,  R. Baer,  A. T. Bell,  N. A. Besley,  
 Jeng-Da Chai,  A. E. DePrince, III,  R. A. DiStasio Jr.,  A. Dreuw,  
 B. D. Dunietz,  T. R. Furlani,  Chao-Ping Hsu,  Yousung Jung,  Jing Kong,  
 D. S. Lambrecht,  WanZhen Liang,  C. Ochsenfeld,  V. A. Rassolov,  
 L. V. Slipchenko,  J. E. Subotnik,  T. Van Voorhis,  J. M. Herbert,  
 A. I. Krylov,  P. M. W. Gill,  M. Head-Gordon

 Contributors to earlier versions of Q-Chem not listed above: 
 R. D. Adamson,  B. Austin,  J. Baker,  G. J. O. Beran,  K. Brandhorst,  
 S. T. Brown,  E. F. C. Byrd,  A. K. Chakraborty,  C.-L. Cheng,  
 Siu Hung Chien,  D. M. Chipman,  D. L. Crittenden,  H. Dachsel,  
 R. J. Doerksen,  A. D. Dutoi,  L. Fusti-Molnar,  W. A. Goddard III,  
 A. Golubeva-Zadorozhnaya,  S. R. Gwaltney,  G. Hawkins,  A. Heyden,  
 S. Hirata,  G. Kedziora,  F. J. Keil,  C. Kelley,  Jihan Kim,  R. A. King,  
 R. Z. Khaliullin,  P. P. Korambath,  W. Kurlancheek,  A. M. Lee,  M. S. Lee,  
 S. V. Levchenko,  Ching Yeh Lin,  D. Liotard,  R. C. Lochan,  I. Lotan,  
 P. E. Maslen,  N. Nair,  D. P. O'Neill,  D. Neuhauser,  E. Neuscamman,  
 C. M. Oana,  R. Olson,  B. Peters,  R. Peverati,  P. A. Pieniazek,  
 Y. M. Rhee,  J. Ritchie,  M. A. Rohrdanz,  E. Rosta,  N. J. Russ,  
 H. F. Schaefer III,  N. E. Schultz,  N. Shenvi,  A. C. Simmonett,  A. Sodt,  
 D. Stuck,  K. S. Thanthiriwatte,  V. Vanovschi,  Tao Wang,  A. Warshel,  
 C. F. Williams,  Q. Wu,  X. Xu,  W. Zhang

 Please cite Q-Chem as follows:
 Y. Shao et al., Mol. Phys. 113, 184-215 (2015)
 DOI: 10.1080/00268976.2014.952696

 Q-Chem 5.2.2 for Intel X86 EM64T Linux

 Parts of Q-Chem use Armadillo 9.800.1 (Horizon Scraper).
 http://arma.sourceforge.net/

 Q-Chem begins on Thu Apr  8 15:08:48 2021  

Host: node024
0

     Scratch files written to /home/ymao90/scratch/probe_b3lyp_cyclohexanone20210408150847//
Symmetry turned off for PCM/SM12/SMD calculation

Checking the input file for inconsistencies... 	...done.

--------------------------------------------------------------
User input:
--------------------------------------------------------------
$molecule
0 1
C    0.58000    11.83000   20.41000  
C    0.42000    10.41000   19.83000  
C    1.53000    9.53000    20.44000  
C    1.44000    9.53000    21.98000  
C    1.37000    10.92000   22.65000  
C    0.42000    11.90000   21.94000  
H    1.49000    8.50000    20.05000  
H    -0.52000   10.00000   20.20000  
H    1.40000    12.47000   20.08000  
H    -0.28000   12.43000   20.08000  
H    0.54000    9.00000    22.28000  
H    2.32000    8.99000    22.34000  
H    1.27000    10.83000   23.73000  
H    2.37000    11.32000   22.50000  
H    -0.63000   11.62000   22.11000  
H    0.56000    12.91000   22.33000  
H    2.51000    9.84000    20.07000  
N    0.54000    10.41000   18.38000  
H    1.39000    10.78000   17.99000  
C    -0.47000   10.09000   17.50000  
H    -0.16000   10.30000   16.46000  
O    -1.56000   9.66000    17.84000  
$end

$rem
JOBTYPE  OPT
METHOD  B3LYP
BASIS  6-31+G(D)
SYMMETRY  FALSE
SYM_IGNORE  FALSE
MEM_TOTAL  8000
MEM_STATIC  2000
MAX_SUB_FILE_NUM  16000
BASIS_LIN_DEP_THRESH  6
THRESH  14
SCF_CONVERGENCE  8
GEN_SCFMAN  TRUE
SCF_GUESS  SAD
FD_MAT_VEC_PROD  FALSE
XC_GRID  000099000590
NL_GRID  1
MAX_SCF_CYCLES  200
GEOM_OPT_TOL_GRADIENT  100
GEOM_OPT_TOL_DISPLACEMENT  100
GEOM_OPT_TOL_ENERGY  10
SOLVENT_METHOD       PCM
$end

$PCM
THEORY                     CPCM
METHOD                     SWIG
SOLVER                     INVERSION
HPOINTS                    302
HEAVYPOINTS                302
$END

$SOLVENT
DIELECTRIC                 15.62
$END

--------------------------------------------------------------
 ----------------------------------------------------------------
             Standard Nuclear Orientation (Angstroms)
    I     Atom           X                Y                Z
 ----------------------------------------------------------------
    1      C       0.5800000000    11.8300000000    20.4100000000
    2      C       0.4200000000    10.4100000000    19.8300000000
    3      C       1.5300000000     9.5300000000    20.4400000000
    4      C       1.4400000000     9.5300000000    21.9800000000
    5      C       1.3700000000    10.9200000000    22.6500000000
    6      C       0.4200000000    11.9000000000    21.9400000000
    7      H       1.4900000000     8.5000000000    20.0500000000
    8      H      -0.5200000000    10.0000000000    20.2000000000
    9      H       1.4000000000    12.4700000000    20.0800000000
   10      H      -0.2800000000    12.4300000000    20.0800000000
   11      H       0.5400000000     9.0000000000    22.2800000000
   12      H       2.3200000000     8.9900000000    22.3400000000
   13      H       1.2700000000    10.8300000000    23.7300000000
   14      H       2.3700000000    11.3200000000    22.5000000000
   15      H      -0.6300000000    11.6200000000    22.1100000000
   16      H       0.5600000000    12.9100000000    22.3300000000
   17      H       2.5100000000     9.8400000000    20.0700000000
   18      N       0.5400000000    10.4100000000    18.3800000000
   19      H       1.3900000000    10.7800000000    17.9900000000
   20      C      -0.4700000000    10.0900000000    17.5000000000
   21      H      -0.1600000000    10.3000000000    16.4600000000
   22      O      -1.5600000000     9.6600000000    17.8400000000
 ----------------------------------------------------------------
 Nuclear Repulsion Energy =         465.59151226 hartrees
 There are       35 alpha and       35 beta electrons
 Requested basis set is 6-31+G(d)
 There are 71 shells and 197 basis functions

 Total QAlloc Memory Limit   8000 MB
 Mega-Array Size      1956 MB
 MEM_STATIC part      2000 MB
 Discretize the solute cavity surface with Lebedev spheres
	Using 302 Lebedev grid points for each H atom
	Using 302 Lebedev grid points for other atoms
	Atomic van der Waals radii will be scaled by 1.20
 Remove points where switching function is < 1.0e-08
 Keep 2715 surface tesserae and discard 3929 interior tesserae
 Molecular Surface Area = 182.762 Angst**2
 A cutoff of  1.0D-14 yielded   2410 shell pairs
 There are     18990 function pairs
 Smallest overlap matrix eigenvalue = 2.31E-05

 Scale SEOQF with 1.000000e-01/1.000000e-02/1.000000e-03

 Standard Electronic Orientation quadrupole field applied
 Nucleus-field energy     =     0.0000000281 hartrees
 Guess from superposition of atomic densities
 Warning:  Energy on first SCF cycle will be non-variational
 SAD guess density has 70.000000 electrons

 -----------------------------------------------------------------------
  General SCF calculation program by
  Eric Jon Sundstrom, Paul Horn, Yuezhi Mao, Dmitri Zuev, Alec White,
  David Stuck, Shaama M.S., Shane Yost, Joonho Lee, David Small,
  Daniel Levine, Susi Lehtola, Hugh Burton, Evgeny Epifanovsky,
  Bang C. Huynh
 -----------------------------------------------------------------------
 Exchange:     0.2000 Hartree-Fock + 0.0800 Slater + 0.7200 B88
 Correlation:  0.1900 VWN1RPA + 0.8100 LYP
 Using Euler-Maclaurin-Lebedev (99,590) quadrature formula
 using 16 threads for integral computing
 -------------------------------------------------------
 OpenMP Integral computing Module                
 Release: version 2.0, May 2017, Q-Chem Inc. Pleasanton 
 -------------------------------------------------------
 A restricted SCF calculation will be
 performed using DIIS
 SCF converges when DIIS error is below 1.0e-08
 ---------------------------------------
  Cycle       Energy         DIIS error
 ---------------------------------------
    1    -406.2393373780      5.09e-02  
    2    -404.3901756931      6.42e-03  
    3    -404.1722346330      9.89e-03  
    4    -404.5661558152      1.97e-03  
    5    -404.5806370999      5.36e-04  
    6    -404.5817544374      1.56e-04  
    7    -404.5818484795      5.54e-05  
    8    -404.5818614515      9.80e-06  
    9    -404.5818618508      2.35e-06  
   10    -404.5818618740      5.47e-07  
   11    -404.5818618753      1.88e-07  
   12    -404.5818618754      2.33e-08  
   13    -404.5818618754      5.86e-09  Convergence criterion met
 ---------------------------------------
 SCF time:   CPU 884.17s  wall 67.00s 

************** Final PCM Free Energy Summary **************
 G_electrostatic  =      -0.01690513 hartree =     -10.60812973 kcal/mol
 G_cavitation     =       0.00000000 hartree =       0.00000000 kcal/mol
 G_dispersion     =       0.00000000 hartree =       0.00000000 kcal/mol
 G_repulsion      =       0.00000000 hartree =       0.00000000 kcal/mol
 --------------------------------------------------
 Non-electrostatic Free Energy =       0.00000000 hartree =       0.00000000 kcal/mol
 Total                         =      -0.01690513 hartree =     -10.60812973 kcal/mol
 --------------------------------------------------
 SCF Energy (H0 + V/2)                       =    -404.58186188 
 Solute Internal Energy (H0)                 =    -404.56495674 
 Total Free Energy (H0 + V/2 + non-elec)     =    -404.58186188 hartree
                                             = -253878.95012165 kcal/mol
***********************************************************

 SCF   energy in the final basis set =     -404.5818618754
 Total energy in the final basis set =     -404.5818618754
 
 --------------------------------------------------------------
 
                    Orbital Energies (a.u.)
 --------------------------------------------------------------
 
 Alpha MOs
 -- Occupied --
-19.1399 -14.3684 -10.2969 -10.2281 -10.1805 -10.1802 -10.1801 -10.1776
-10.1743  -1.0503  -0.9297  -0.8213  -0.7426  -0.7401  -0.6390  -0.6107
 -0.5933  -0.5612  -0.5289  -0.4853  -0.4601  -0.4442  -0.4409  -0.4233
 -0.4194  -0.3982  -0.3788  -0.3670  -0.3486  -0.3454  -0.3204  -0.3056
 -0.3039  -0.2759  -0.2565
 -- Virtual --
  0.0052   0.0090   0.0177   0.0248   0.0258   0.0411   0.0488   0.0498
  0.0584   0.0682   0.0702   0.0838   0.0864   0.0962   0.1022   0.1049
  0.1119   0.1164   0.1304   0.1342   0.1406   0.1509   0.1557   0.1645
  0.1709   0.1801   0.1817   0.1859   0.2009   0.2034   0.2097   0.2113
  0.2198   0.2264   0.2336   0.2439   0.2507   0.2556   0.2653   0.2708
  0.2757   0.2794   0.2840   0.2913   0.3027   0.3058   0.3159   0.3272
  0.3346   0.3393   0.3503   0.3744   0.3790   0.3817   0.4160   0.4275
  0.4390   0.4557   0.4863   0.6123   0.6445   0.6607   0.6636   0.6741
  0.6917   0.7046   0.7255   0.7321   0.7483   0.7526   0.7695   0.7786
  0.7950   0.8075   0.8296   0.8390   0.8683   0.8988   0.9502   0.9716
  0.9863   0.9981   1.0251   1.0277   1.0407   1.0614   1.0759   1.1139
  1.1196   1.1278   1.1346   1.1415   1.1453   1.1645   1.1758   1.1914
  1.2397   1.2443   1.2853   1.3164   1.3288   1.3711   1.4086   1.4188
  1.4686   1.4880   1.4960   1.5583   1.5851   1.6174   1.6709   1.7079
  1.7373   1.7597   1.7772   1.7795   1.8257   1.8692   1.8913   1.9006
  1.9231   1.9579   1.9742   2.0051   2.0062   2.0390   2.0717   2.0843
  2.0989   2.1402   2.1869   2.2105   2.2826   2.3032   2.3157   2.3427
  2.3878   2.3969   2.4368   2.4469   2.4612   2.5600   2.5726   2.6126
  2.6788   2.6958   2.7044   2.7518   2.7771   2.8338   2.8737   3.0078
  3.1829   4.0832   4.1859   4.2284   4.2974   4.3450   4.4125   4.5904
  4.6103   4.6589
 --------------------------------------------------------------
 
          Ground-State Mulliken Net Atomic Charges

     Atom                 Charge (a.u.)
  ----------------------------------------
      1 C                    -0.335032
      2 C                    -0.433256
      3 C                    -0.294730
      4 C                    -0.448421
      5 C                    -0.357749
      6 C                    -0.450858
      7 H                     0.209752
      8 H                     0.236762
      9 H                     0.222834
     10 H                     0.210946
     11 H                     0.206318
     12 H                     0.202177
     13 H                     0.201766
     14 H                     0.198487
     15 H                     0.203131
     16 H                     0.206789
     17 H                     0.213819
     18 N                    -0.388168
     19 H                     0.451289
     20 C                     0.341994
     21 H                     0.185651
     22 O                    -0.583501
  ----------------------------------------
  Sum of atomic charges =     0.000000

 -----------------------------------------------------------------
                    Cartesian Multipole Moments
 -----------------------------------------------------------------
    Charge (ESU x 10^10)
                 0.0000
    Dipole Moment (Debye)
         X       4.9750      Y       2.2039      Z       0.7212
       Tot       5.4889
    Quadrupole Moments (Debye-Ang)
        XX     -61.0628     XY      49.6268     YY     -12.0665
        XZ      89.6417     YZ      47.6192     ZZ     -25.2887
    Octopole Moments (Debye-Ang^2)
       XXX     -71.5926    XXY    -634.1937    XYY     468.1784
       YYY   -1104.5651    XXZ   -1221.5004    XYZ     895.2854
       YYZ    -253.0907    XZZ    1587.4145    YZZ     463.7578
       ZZZ   -2433.5920
    Hexadecapole Moments (Debye-Ang^3)
      XXXX    -514.8724   XXXY    -767.1507   XXYY   -6738.8695
      XYYY    4090.4958   YYYY  -28590.7497   XXXZ   -1695.9022
      XXYZ  -12737.7331   XYYZ    8325.8170   YYYZ  -22888.1038
      XXZZ  -24751.0720   XYZZ   15859.9755   YYZZ  -11358.1145
      XZZZ   27202.3687   YZZZ  -12329.3135   ZZZZ -112067.4216
 -----------------------------------------------------------------
 Calculating analytic gradient of the SCF energy
 Gradient of SCF Energy
            1           2           3           4           5           6
    1   0.0284378  -0.0362435  -0.0059635   0.0012054  -0.0255381   0.0073546
    2  -0.0378582  -0.0032043   0.0080436   0.0023912  -0.0025986   0.0211608
    3  -0.0005291  -0.0124919   0.0050059  -0.0020772   0.0179912  -0.0083473
            7           8           9          10          11          12
    1   0.0101115   0.0084142  -0.0114508   0.0023392   0.0031593   0.0043395
    2  -0.0009148  -0.0005581   0.0183516   0.0032766   0.0105608   0.0020042
    3  -0.0046449   0.0136744   0.0037721   0.0088738   0.0002794  -0.0064991
           13          14          15          16          17          18
    1   0.0095811  -0.0071412  -0.0014981   0.0006750   0.0001759   0.0215378
    2  -0.0003498  -0.0078385  -0.0008180  -0.0004936  -0.0101415   0.0019870
    3  -0.0019062  -0.0032187  -0.0080759   0.0036322  -0.0064878   0.0154384
           19          20          21          22
    1   0.0059342  -0.0439569   0.0087546   0.0197720
    2   0.0022990  -0.0190860   0.0064664   0.0073201
    3  -0.0023871  -0.0099630  -0.0027267   0.0006878
 Max gradient component =       4.396E-02
 RMS gradient           =       1.275E-02
 Computing fast CPCM-SWIG gradient
 Updating gradient with PCM contributions...
 -- total gradient after adding PCM contribution --
---------------------------------------------------
  Atom         X              Y              Z     
---------------------------------------------------
   1       0.031402      -0.028834      -0.003647
   2      -0.035304      -0.003202      -0.015037
   3       0.002280       0.006718       0.000991
   4       0.001092      -0.001750       0.001065
   5      -0.019907      -0.001073       0.020782
   6       0.003865       0.024023      -0.005459
   7       0.009000       0.000291      -0.003961
   8       0.006768      -0.001249       0.012133
   9      -0.015320       0.014095       0.005462
  10       0.002880       0.001882       0.008772
  11       0.004699       0.010872      -0.000189
  12       0.001662       0.002925      -0.006873
  13       0.009314      -0.000130      -0.004195
  14      -0.009751      -0.008644      -0.002337
  15       0.000121      -0.000276      -0.007855
  16      -0.000113      -0.003464       0.002659
  17      -0.004733      -0.011486      -0.003970
  18       0.031375       0.006881       0.011683
  19      -0.006471      -0.003213       0.003032
  20      -0.037372      -0.016526      -0.015454
  21       0.004648       0.004476       0.000746
  22       0.019865       0.007683       0.001653
---------------------------------------------------
 Number of fixed atoms: 0
 Gradient time:  CPU 126.65 s  wall 11.84 s
 Geometry Optimization Parameters
   NAtoms,    NIC,     NZ,  NCons,   NDum,   NFix, NCnnct, MaxDiis
       22     172       0       0       0       0       0       0


** GEOMETRY OPTIMIZATION IN DELOCALIZED INTERNAL COORDINATES **
   Searching for a Minimum

   Optimization Cycle:   1

                       Coordinates (Angstroms)
     ATOM                X               Y               Z
      1  C         0.5800000000   11.8300000000   20.4100000000
      2  C         0.4200000000   10.4100000000   19.8300000000
      3  C         1.5300000000    9.5300000000   20.4400000000
      4  C         1.4400000000    9.5300000000   21.9800000000
      5  C         1.3700000000   10.9200000000   22.6500000000
      6  C         0.4200000000   11.9000000000   21.9400000000
      7  H         1.4900000000    8.5000000000   20.0500000000
      8  H        -0.5200000000   10.0000000000   20.2000000000
      9  H         1.4000000000   12.4700000000   20.0800000000
     10  H        -0.2800000000   12.4300000000   20.0800000000
     11  H         0.5400000000    9.0000000000   22.2800000000
     12  H         2.3200000000    8.9900000000   22.3400000000
     13  H         1.2700000000   10.8300000000   23.7300000000
     14  H         2.3700000000   11.3200000000   22.5000000000
     15  H        -0.6300000000   11.6200000000   22.1100000000
     16  H         0.5600000000   12.9100000000   22.3300000000
     17  H         2.5100000000    9.8400000000   20.0700000000
     18  N         0.5400000000   10.4100000000   18.3800000000
     19  H         1.3900000000   10.7800000000   17.9900000000
     20  C        -0.4700000000   10.0900000000   17.5000000000
     21  H        -0.1600000000   10.3000000000   16.4600000000
     22  O        -1.5600000000    9.6600000000   17.8400000000
   Point Group: c1    Number of degrees of freedom:    60


   Energy is   -404.581861875


 Attempting to generate delocalized internal coordinates
 Initial Hessian constructed with Jon Baker's OPTIMIZE code

 60 Hessian modes will be used to form the next step
  Hessian Eigenvalues:
     0.004850    0.005407    0.006560    0.008376    0.012775    0.018054
     0.018651    0.018677    0.019042    0.033610    0.034591    0.037072
     0.041066    0.046592    0.048162    0.049493    0.050142    0.053390
     0.056519    0.060833    0.066651    0.080982    0.082752    0.082982
     0.085572    0.087172    0.089974    0.096067    0.124538    0.124890
     0.139174    0.159119    0.160000    0.162683    0.172956    0.213045
     0.220010    0.220236    0.268980    0.271008    0.272947    0.282129
     0.284145    0.285211    0.330973    0.334522    0.336922    0.337577
     0.344187    0.345335    0.346174    0.346647    0.347861    0.350043
     0.351115    0.351977    0.376029    0.466943    0.496029    0.953470

 Minimum search - taking simple RFO step
 Searching for Lamda that Minimizes Along All modes
 Value Taken    Lamda =  -0.02465592
 Calculated Step too Large.  Step scaled by  0.539619
 Step Taken.  Stepsize is  0.300000

                             Maximum     Tolerance    Cnvgd?
         Gradient           0.023041      0.000100      NO
         Displacement       0.183004      0.000100      NO
         Energy change     *********      0.000000      NO


 New Cartesian Coordinates Obtained by Inverse Iteration

 Displacement from previous Coordinates is:  0.266882
 ----------------------------------------------------------------
             Standard Nuclear Orientation (Angstroms)
    I     Atom           X                Y                Z
 ----------------------------------------------------------------
    1      C       0.5516532750    11.8426430951    20.4041751512
    2      C       0.4308271970    10.4213965083    19.8310504329
    3      C       1.5292240865     9.5322915165    20.4535870397
    4      C       1.4378843146     9.5176794522    21.9896742310
    5      C       1.3993103456    10.9216452461    22.6313099704
    6      C       0.4159276964    11.8824398102    21.9422620066
    7      H       1.4703588478     8.5049466897    20.0607900738
    8      H      -0.5269320929    10.0120227646    20.1563152087
    9      H       1.4046621729    12.4404500727    20.0663357685
   10      H      -0.3038660824    12.4344481180    20.0394110165
   11      H       0.5318968928     8.9811503716    22.2854898602
   12      H       2.3067992170     8.9681033435    22.3672594810
   13      H       1.2801473873    10.8439116619    23.7141669459
   14      H       2.4025292488    11.3384417204    22.4831351958
   15      H      -0.6235604918    11.5916283008    22.1587881182
   16      H       0.5569100326    12.8966639064    22.3257864835
   17      H       2.5173066467     9.8610808486    20.1080385693
   18      N       0.5401015471    10.4257862904    18.3797373676
   19      H       1.3921674751    10.7969109802    17.9836123440
   20      C      -0.4647843172    10.1065682241    17.5097178205
   21      H      -0.1571101102    10.2840120880    16.4642160666
   22      O      -1.5614532884     9.6657789906    17.8351408480
 ----------------------------------------------------------------
 Nuclear Repulsion Energy =         465.46189303 hartrees
 There are       35 alpha and       35 beta electrons
 Discretize the solute cavity surface with Lebedev spheres
	Using 302 Lebedev grid points for each H atom
	Using 302 Lebedev grid points for other atoms
	Atomic van der Waals radii will be scaled by 1.20
 Remove points where switching function is < 1.0e-08
 Keep 2737 surface tesserae and discard 3907 interior tesserae
 Molecular Surface Area = 182.932 Angst**2
 Applying Cartesian multipole field
    Component          Value
    ---------          -----
     (2,0,0)        1.00000E-11
     (0,2,0)        2.00000E-12
     (0,0,2)       -3.00000E-13
 Nucleus-field energy     =     0.0000000281 hartrees
 Requested basis set is 6-31+G(d)
 There are 71 shells and 197 basis functions
 A cutoff of  1.0D-14 yielded   2411 shell pairs
 There are     18991 function pairs
 Smallest overlap matrix eigenvalue = 2.36E-05
 Guess MOs from SCF MO coefficient file

 -----------------------------------------------------------------------
  General SCF calculation program by
  Eric Jon Sundstrom, Paul Horn, Yuezhi Mao, Dmitri Zuev, Alec White,
  David Stuck, Shaama M.S., Shane Yost, Joonho Lee, David Small,
  Daniel Levine, Susi Lehtola, Hugh Burton, Evgeny Epifanovsky,
  Bang C. Huynh
 -----------------------------------------------------------------------
 Exchange:     0.2000 Hartree-Fock + 0.0800 Slater + 0.7200 B88
 Correlation:  0.1900 VWN1RPA + 0.8100 LYP
 Using Euler-Maclaurin-Lebedev (99,590) quadrature formula
 using 16 threads for integral computing
 -------------------------------------------------------
 OpenMP Integral computing Module                
 Release: version 2.0, May 2017, Q-Chem Inc. Pleasanton 
 -------------------------------------------------------
 A restricted SCF calculation will be
 performed using Roothaan-Hall, DIIS
 SCF converges when DIIS error is below 1.0e-08
 ---------------------------------------
  Cycle       Energy         DIIS error
 ---------------------------------------
    1    -404.5740438417      7.01e-04  Roothaan Step
 ---------------------------------------
  Cycle       Energy         DIIS error
 ---------------------------------------
    1    -404.5828860949      1.18e-03  
    2    -404.5677023921      2.56e-03  
    3    -404.5924269075      1.97e-04  
    4    -404.5925676738      1.13e-04  
    5    -404.5926165831      3.37e-05  
    6    -404.5926212249      8.78e-06  
    7    -404.5926215316      2.75e-06  
    8    -404.5926215677      5.17e-07  
    9    -404.5926215688      2.30e-07  
   10    -404.5926215691      4.25e-08  
   11    -404.5926215691      1.23e-08  
   12    -404.5926215691      2.87e-09  Convergence criterion met
 ---------------------------------------
 SCF time:   CPU 872.81s  wall 61.00s 

************** Final PCM Free Energy Summary **************
 G_electrostatic  =      -0.01732638 hartree =     -10.87246867 kcal/mol
 G_cavitation     =       0.00000000 hartree =       0.00000000 kcal/mol
 G_dispersion     =       0.00000000 hartree =       0.00000000 kcal/mol
 G_repulsion      =       0.00000000 hartree =       0.00000000 kcal/mol
 --------------------------------------------------
 Non-electrostatic Free Energy =       0.00000000 hartree =       0.00000000 kcal/mol
 Total                         =      -0.01732638 hartree =     -10.87246867 kcal/mol
 --------------------------------------------------
 SCF Energy (H0 + V/2)                       =    -404.59262157 
 Solute Internal Energy (H0)                 =    -404.57529519 
 Total Free Energy (H0 + V/2 + non-elec)     =    -404.59262157 hartree
                                             = -253885.70193132 kcal/mol
***********************************************************

 SCF   energy in the final basis set =     -404.5926215691
 Total energy in the final basis set =     -404.5926215691
 
 --------------------------------------------------------------
 
                    Orbital Energies (a.u.)
 --------------------------------------------------------------
 
 Alpha MOs
 -- Occupied --
-19.1384 -14.3699 -10.2961 -10.2268 -10.1817 -10.1813 -10.1805 -10.1789
-10.1764  -1.0467  -0.9315  -0.8213  -0.7415  -0.7409  -0.6385  -0.6112
 -0.5928  -0.5613  -0.5275  -0.4849  -0.4595  -0.4433  -0.4393  -0.4216
 -0.4194  -0.3968  -0.3782  -0.3705  -0.3482  -0.3444  -0.3199  -0.3090
 -0.3067  -0.2743  -0.2584
 -- Virtual --
  0.0059   0.0092   0.0175   0.0245   0.0258   0.0410   0.0488   0.0493
  0.0585   0.0683   0.0703   0.0839   0.0866   0.0965   0.1017   0.1049
  0.1118   0.1166   0.1288   0.1340   0.1408   0.1512   0.1556   0.1631
  0.1707   0.1799   0.1816   0.1863   0.2009   0.2024   0.2105   0.2109
  0.2213   0.2267   0.2330   0.2453   0.2502   0.2557   0.2643   0.2716
  0.2763   0.2804   0.2840   0.2902   0.3019   0.3047   0.3149   0.3266
  0.3336   0.3360   0.3525   0.3746   0.3801   0.3830   0.4164   0.4239
  0.4386   0.4544   0.4848   0.6107   0.6429   0.6600   0.6640   0.6723
  0.6890   0.7024   0.7260   0.7316   0.7480   0.7522   0.7709   0.7788
  0.7966   0.8056   0.8265   0.8384   0.8643   0.9031   0.9514   0.9727
  0.9843   0.9960   1.0230   1.0278   1.0376   1.0597   1.0782   1.1099
  1.1195   1.1265   1.1303   1.1418   1.1568   1.1678   1.1777   1.1855
  1.2410   1.2437   1.2829   1.3192   1.3287   1.3694   1.4110   1.4130
  1.4652   1.4872   1.4952   1.5600   1.5835   1.6190   1.6816   1.7183
  1.7364   1.7596   1.7737   1.7840   1.8278   1.8681   1.8975   1.9023
  1.9211   1.9473   1.9731   1.9986   2.0085   2.0384   2.0685   2.0838
  2.1075   2.1236   2.1930   2.2085   2.2798   2.3031   2.3123   2.3432
  2.3951   2.3990   2.4290   2.4323   2.4543   2.5587   2.5746   2.6158
  2.6839   2.6900   2.7023   2.7535   2.7730   2.8363   2.8689   3.0027
  3.1840   4.0861   4.1871   4.2276   4.2955   4.3405   4.4139   4.5945
  4.6064   4.6631
 --------------------------------------------------------------
 
          Ground-State Mulliken Net Atomic Charges

     Atom                 Charge (a.u.)
  ----------------------------------------
      1 C                    -0.319930
      2 C                    -0.419492
      3 C                    -0.300867
      4 C                    -0.448485
      5 C                    -0.364737
      6 C                    -0.453054
      7 H                     0.209825
      8 H                     0.232960
      9 H                     0.219092
     10 H                     0.209940
     11 H                     0.206412
     12 H                     0.202950
     13 H                     0.200732
     14 H                     0.199130
     15 H                     0.204628
     16 H                     0.205435
     17 H                     0.212770
     18 N                    -0.384334
     19 H                     0.450665
     20 C                     0.344847
     21 H                     0.183746
     22 O                    -0.592234
  ----------------------------------------
  Sum of atomic charges =     0.000000

 -----------------------------------------------------------------
                    Cartesian Multipole Moments
 -----------------------------------------------------------------
    Charge (ESU x 10^10)
                -0.0000
    Dipole Moment (Debye)
         X       5.0978      Y       2.2030      Z       0.8553
       Tot       5.6190
    Quadrupole Moments (Debye-Ang)
        XX     -61.0988     XY      50.9045     YY     -12.1393
        XZ      91.9662     YZ      48.7568     ZZ     -20.1527
    Octopole Moments (Debye-Ang^2)
       XXX     -71.2545    XXY    -634.2518    XYY     481.3692
       YYY   -1107.9499    XXZ   -1221.7191    XYZ     919.3807
       YYZ    -245.0147    XZZ    1631.8155    YZZ     507.0456
       ZZZ   -2285.0581
    Hexadecapole Moments (Debye-Ang^3)
      XXXX    -517.2663   XXXY    -761.9704   XXYY   -6736.4834
      XYYY    4224.9887   YYYY  -28689.2048   XXXZ   -1690.4702
      XXYZ  -12732.7862   XYYZ    8573.3167   YYYZ  -22881.6631
      XXZZ  -24745.9035   XYZZ   16317.9982   YYZZ  -11034.9459
      XZZZ   28055.8691   YZZZ  -11089.4270   ZZZZ -108224.2707
 -----------------------------------------------------------------
 Calculating analytic gradient of the SCF energy
 Gradient of SCF Energy
            1           2           3           4           5           6
    1   0.0190527  -0.0233213  -0.0084690   0.0013521  -0.0206498   0.0056787
    2  -0.0296652  -0.0006674   0.0066484   0.0012240  -0.0019336   0.0117337
    3  -0.0001983  -0.0103963   0.0077319  -0.0029746   0.0104945  -0.0044387
            7           8           9          10          11          12
    1   0.0068331   0.0062676  -0.0057469  -0.0002496   0.0004597   0.0042956
    2  -0.0020645   0.0006874   0.0145518   0.0037053   0.0044697   0.0012232
    3  -0.0026939   0.0098905   0.0000181   0.0038599   0.0000991  -0.0034458
           13          14          15          16          17          18
    1   0.0065996  -0.0009536  -0.0024146   0.0013225   0.0032699   0.0098560
    2  -0.0010183  -0.0027404  -0.0006668   0.0004243  -0.0056962  -0.0010559
    3   0.0000187  -0.0022193  -0.0043647   0.0023895  -0.0053308   0.0122697
           19          20          21          22
    1   0.0095604  -0.0336584   0.0075589   0.0133564
    2   0.0039893  -0.0106056   0.0038166   0.0036402
    3  -0.0033804  -0.0041038  -0.0027573  -0.0004680
 Max gradient component =       3.366E-02
 RMS gradient           =       9.044E-03
 Computing fast CPCM-SWIG gradient
 Updating gradient with PCM contributions...
 -- total gradient after adding PCM contribution --
---------------------------------------------------
  Atom         X              Y              Z     
---------------------------------------------------
   1       0.022793      -0.021391      -0.003799
   2      -0.022629      -0.000764      -0.013115
   3      -0.000086       0.005491       0.003890
   4       0.001264      -0.003266       0.000305
   5      -0.015029      -0.000092       0.013551
   6       0.002081       0.014809      -0.001442
   7       0.005925      -0.000676      -0.002090
   8       0.004429      -0.000097       0.008432
   9      -0.010135       0.010822       0.002000
  10       0.000361       0.002319       0.004062
  11       0.002055       0.005020      -0.000376
  12       0.001585       0.002257      -0.004017
  13       0.006488      -0.000806      -0.002314
  14      -0.003848      -0.003812      -0.001366
  15      -0.000769      -0.000077      -0.004426
  16       0.000492      -0.002468       0.001491
  17      -0.001772      -0.007396      -0.003047
  18       0.019911       0.003963       0.008681
  19      -0.003020      -0.001634       0.002018
  20      -0.027019      -0.008124      -0.009319
  21       0.003429       0.001959       0.000543
  22       0.013493       0.003961       0.000337
---------------------------------------------------
 Number of fixed atoms: 0
 Gradient time:  CPU 127.30 s  wall 11.62 s
 Geometry Optimization Parameters
   NAtoms,    NIC,     NZ,  NCons,   NDum,   NFix, NCnnct, MaxDiis
       22     172       0       0       0       0       0       0

 Cartesian Hessian Update
 Hessian updated using BFGS update


** GEOMETRY OPTIMIZATION IN DELOCALIZED INTERNAL COORDINATES **
   Searching for a Minimum

   Optimization Cycle:   2

                       Coordinates (Angstroms)
     ATOM                X               Y               Z
      1  C         0.5516532750   11.8426430951   20.4041751512
      2  C         0.4308271970   10.4213965083   19.8310504329
      3  C         1.5292240865    9.5322915165   20.4535870397
      4  C         1.4378843146    9.5176794522   21.9896742310
      5  C         1.3993103456   10.9216452461   22.6313099704
      6  C         0.4159276964   11.8824398102   21.9422620066
      7  H         1.4703588478    8.5049466897   20.0607900738
      8  H        -0.5269320929   10.0120227646   20.1563152087
      9  H         1.4046621729   12.4404500727   20.0663357685
     10  H        -0.3038660824   12.4344481180   20.0394110165
     11  H         0.5318968928    8.9811503716   22.2854898602
     12  H         2.3067992170    8.9681033435   22.3672594810
     13  H         1.2801473873   10.8439116619   23.7141669459
     14  H         2.4025292488   11.3384417204   22.4831351958
     15  H        -0.6235604918   11.5916283008   22.1587881182
     16  H         0.5569100326   12.8966639064   22.3257864835
     17  H         2.5173066467    9.8610808486   20.1080385693
     18  N         0.5401015471   10.4257862904   18.3797373676
     19  H         1.3921674751   10.7969109802   17.9836123440
     20  C        -0.4647843172   10.1065682241   17.5097178205
     21  H        -0.1571101102   10.2840120880   16.4642160666
     22  O        -1.5614532884    9.6657789906   17.8351408480
   Point Group: c1    Number of degrees of freedom:    60


   Energy is   -404.592621569

 Hessian updated using BFGS update

 60 Hessian modes will be used to form the next step
  Hessian Eigenvalues:
     0.004847    0.005415    0.006557    0.008377    0.012772    0.017374
     0.018564    0.018772    0.019912    0.033186    0.035895    0.037092
     0.041527    0.046153    0.047342    0.049690    0.051187    0.053459
     0.057144    0.060701    0.066924    0.080926    0.082141    0.083336
     0.084313    0.087374    0.090015    0.093091    0.123590    0.125507
     0.139276    0.158102    0.159346    0.162702    0.178970    0.211973
     0.220114    0.220264    0.269244    0.272587    0.275330    0.281716
     0.284851    0.286909    0.330953    0.334417    0.336964    0.338678
     0.344129    0.345314    0.345899    0.346576    0.347711    0.349714
     0.351687    0.356298    0.376847    0.466052    0.484737    0.940520

 Minimum search - taking simple RFO step
 Searching for Lamda that Minimizes Along All modes
 Value Taken    Lamda =  -0.01331800
 Calculated Step too Large.  Step scaled by  0.584090
 Step Taken.  Stepsize is  0.300000

                             Maximum     Tolerance    Cnvgd?
         Gradient           0.015478      0.000100      NO
         Displacement       0.165031      0.000100      NO
         Energy change     -0.010760      0.000000      NO


 New Cartesian Coordinates Obtained by Inverse Iteration

 Displacement from previous Coordinates is:  0.250343
 ----------------------------------------------------------------
             Standard Nuclear Orientation (Angstroms)
    I     Atom           X                Y                Z
 ----------------------------------------------------------------
    1      C       0.5198693428    11.8494261616    20.4052796711
    2      C       0.4376322387    10.4245645552    19.8369549823
    3      C       1.5289077605     9.5341864793    20.4606866263
    4      C       1.4356837203     9.5141558362    21.9942085949
    5      C       1.4273379698    10.9261636540    22.6090561279
    6      C       0.4121936736    11.8676447573    21.9431515286
    7      H       1.4528515368     8.5128528357    20.0601328478
    8      H      -0.5330942451    10.0061025196    20.1156600710
    9      H       1.4094131582    12.3990385184    20.0706237546
   10      H      -0.3284937438    12.4335349872    20.0153517736
   11      H       0.5222104137     8.9838240262    22.2931704410
   12      H       2.2896465813     8.9500447978    22.3881350916
   13      H       1.2894010792    10.8669180242    23.6943063257
   14      H       2.4314576390    11.3495324171    22.4566800229
   15      H      -0.6136820739    11.5640962538    22.2014173717
   16      H       0.5498219390    12.8875499825    22.3192480323
   17      H       2.5193485680     9.8862923784    20.1367405354
   18      N       0.5457319816    10.4292207910    18.3826967346
   19      H       1.3976848211    10.8036037259    17.9813941217
   20      C      -0.4443951822    10.0995957158    17.5190588311
   21      H      -0.1551459163    10.2879425128    16.4710968953
   22      O      -1.5643812621     9.6937090699    17.8349496183
 ----------------------------------------------------------------
 Nuclear Repulsion Energy =         466.00610880 hartrees
 There are       35 alpha and       35 beta electrons
 Discretize the solute cavity surface with Lebedev spheres
	Using 302 Lebedev grid points for each H atom
	Using 302 Lebedev grid points for other atoms
	Atomic van der Waals radii will be scaled by 1.20
 Remove points where switching function is < 1.0e-08
 Keep 2748 surface tesserae and discard 3896 interior tesserae
 Molecular Surface Area = 182.740 Angst**2
 Applying Cartesian multipole field
    Component          Value
    ---------          -----
     (2,0,0)        1.00000E-11
     (0,2,0)        2.00000E-12
     (0,0,2)       -3.00000E-13
 Nucleus-field energy     =     0.0000000281 hartrees
 Requested basis set is 6-31+G(d)
 There are 71 shells and 197 basis functions
 A cutoff of  1.0D-14 yielded   2411 shell pairs
 There are     18991 function pairs
 Smallest overlap matrix eigenvalue = 2.39E-05
 Guess MOs from SCF MO coefficient file

 -----------------------------------------------------------------------
  General SCF calculation program by
  Eric Jon Sundstrom, Paul Horn, Yuezhi Mao, Dmitri Zuev, Alec White,
  David Stuck, Shaama M.S., Shane Yost, Joonho Lee, David Small,
  Daniel Levine, Susi Lehtola, Hugh Burton, Evgeny Epifanovsky,
  Bang C. Huynh
 -----------------------------------------------------------------------
 Exchange:     0.2000 Hartree-Fock + 0.0800 Slater + 0.7200 B88
 Correlation:  0.1900 VWN1RPA + 0.8100 LYP
 Using Euler-Maclaurin-Lebedev (99,590) quadrature formula
 using 16 threads for integral computing
 -------------------------------------------------------
 OpenMP Integral computing Module                
 Release: version 2.0, May 2017, Q-Chem Inc. Pleasanton 
 -------------------------------------------------------
 A restricted SCF calculation will be
 performed using Roothaan-Hall, DIIS
 SCF converges when DIIS error is below 1.0e-08
 ---------------------------------------
  Cycle       Energy         DIIS error
 ---------------------------------------
    1    -404.5787393572      7.50e-04  Roothaan Step
 ---------------------------------------
  Cycle       Energy         DIIS error
 ---------------------------------------
    1    -404.5880300526      1.22e-03  
    2    -404.5716568309      2.65e-03  
    3    -404.5981654027      2.05e-04  
    4    -404.5983173271      1.17e-04  
    5    -404.5983697475      3.44e-05  
    6    -404.5983746039      8.82e-06  
    7    -404.5983749061      2.95e-06  
    8    -404.5983749477      5.43e-07  
    9    -404.5983749490      2.37e-07  
   10    -404.5983749492      4.34e-08  
   11    -404.5983749492      1.20e-08  
   12    -404.5983749492      2.93e-09  Convergence criterion met
 ---------------------------------------
 SCF time:   CPU 878.88s  wall 59.00s 

************** Final PCM Free Energy Summary **************
 G_electrostatic  =      -0.01788366 hartree =     -11.22216785 kcal/mol
 G_cavitation     =       0.00000000 hartree =       0.00000000 kcal/mol
 G_dispersion     =       0.00000000 hartree =       0.00000000 kcal/mol
 G_repulsion      =       0.00000000 hartree =       0.00000000 kcal/mol
 --------------------------------------------------
 Non-electrostatic Free Energy =       0.00000000 hartree =       0.00000000 kcal/mol
 Total                         =      -0.01788366 hartree =     -11.22216785 kcal/mol
 --------------------------------------------------
 SCF Energy (H0 + V/2)                       =    -404.59837495 
 Solute Internal Energy (H0)                 =    -404.58049129 
 Total Free Energy (H0 + V/2 + non-elec)     =    -404.59837495 hartree
                                             = -253889.31223185 kcal/mol
***********************************************************

 SCF   energy in the final basis set =     -404.5983749492
 Total energy in the final basis set =     -404.5983749492
 
 --------------------------------------------------------------
 
                    Orbital Energies (a.u.)
 --------------------------------------------------------------
 
 Alpha MOs
 -- Occupied --
-19.1362 -14.3709 -10.2947 -10.2258 -10.1823 -10.1819 -10.1803 -10.1795
-10.1774  -1.0429  -0.9331  -0.8228  -0.7423  -0.7416  -0.6382  -0.6117
 -0.5925  -0.5618  -0.5267  -0.4846  -0.4599  -0.4432  -0.4386  -0.4208
 -0.4187  -0.3961  -0.3777  -0.3732  -0.3475  -0.3443  -0.3199  -0.3108
 -0.3089  -0.2725  -0.2597
 -- Virtual --
  0.0075   0.0085   0.0172   0.0242   0.0258   0.0411   0.0487   0.0490
  0.0588   0.0686   0.0703   0.0840   0.0868   0.0963   0.1012   0.1050
  0.1118   0.1169   0.1274   0.1340   0.1409   0.1514   0.1558   0.1624
  0.1705   0.1802   0.1817   0.1871   0.1999   0.2025   0.2103   0.2124
  0.2223   0.2266   0.2327   0.2461   0.2494   0.2555   0.2644   0.2717
  0.2774   0.2821   0.2846   0.2910   0.2993   0.3048   0.3144   0.3267
  0.3322   0.3341   0.3557   0.3740   0.3825   0.3854   0.4170   0.4218
  0.4395   0.4547   0.4842   0.6098   0.6413   0.6592   0.6643   0.6705
  0.6874   0.7010   0.7274   0.7323   0.7444   0.7549   0.7727   0.7795
  0.7980   0.8052   0.8241   0.8397   0.8630   0.9062   0.9526   0.9743
  0.9823   0.9941   1.0215   1.0279   1.0337   1.0583   1.0820   1.1062
  1.1202   1.1245   1.1288   1.1421   1.1644   1.1720   1.1812   1.1847
  1.2394   1.2461   1.2816   1.3210   1.3322   1.3718   1.4035   1.4141
  1.4712   1.4867   1.4899   1.5620   1.5841   1.6200   1.6884   1.7267
  1.7404   1.7591   1.7689   1.7921   1.8335   1.8715   1.9021   1.9095
  1.9185   1.9398   1.9719   2.0037   2.0094   2.0417   2.0642   2.0855
  2.1136   2.1184   2.1998   2.2102   2.2798   2.3004   2.3200   2.3418
  2.3992   2.4086   2.4206   2.4245   2.4504   2.5591   2.5797   2.6197
  2.6841   2.6885   2.7040   2.7560   2.7761   2.8380   2.8669   2.9982
  3.1866   4.0904   4.1903   4.2292   4.2962   4.3379   4.4144   4.5994
  4.6046   4.6671
 --------------------------------------------------------------
 
          Ground-State Mulliken Net Atomic Charges

     Atom                 Charge (a.u.)
  ----------------------------------------
      1 C                    -0.305068
      2 C                    -0.413742
      3 C                    -0.296439
      4 C                    -0.451192
      5 C                    -0.371237
      6 C                    -0.456311
      7 H                     0.210449
      8 H                     0.230382
      9 H                     0.215872
     10 H                     0.210249
     11 H                     0.206669
     12 H                     0.203331
     13 H                     0.199956
     14 H                     0.200584
     15 H                     0.206106
     16 H                     0.204541
     17 H                     0.212523
     18 N                    -0.381505
     19 H                     0.450119
     20 C                     0.344549
     21 H                     0.182704
     22 O                    -0.602538
  ----------------------------------------
  Sum of atomic charges =     0.000000

 -----------------------------------------------------------------
                    Cartesian Multipole Moments
 -----------------------------------------------------------------
    Charge (ESU x 10^10)
                 0.0000
    Dipole Moment (Debye)
         X       5.2490      Y       2.1484      Z       0.9853
       Tot       5.7566
    Quadrupole Moments (Debye-Ang)
        XX     -61.1914     XY      52.5585     YY     -13.2133
        XZ      94.7688     YZ      49.0098     ZZ     -15.1876
    Octopole Moments (Debye-Ang^2)
       XXX     -70.8836    XXY    -634.9814    XYY     499.0588
       YYY   -1124.8759    XXZ   -1223.0250    XYZ     949.9675
       YYZ    -252.8106    XZZ    1683.9128    YZZ     536.2780
       ZZZ   -2142.0291
    Hexadecapole Moments (Debye-Ang^3)
      XXXX    -518.9460   XXXY    -755.8357   XXYY   -6741.4733
      XYYY    4410.1208   YYYY  -28940.1713   XXXZ   -1683.4023
      XXYZ  -12740.8129   XYYZ    8899.5453   YYYZ  -23082.6989
      XXZZ  -24761.6383   XYZZ   16885.0485   YYZZ  -10946.8086
      XZZZ   29025.4086   YZZZ  -10063.2311   ZZZZ -104538.5753
 -----------------------------------------------------------------
 Calculating analytic gradient of the SCF energy
 Gradient of SCF Energy
            1           2           3           4           5           6
    1   0.0076719  -0.0108163  -0.0099282   0.0009373  -0.0147825   0.0049420
    2  -0.0197378   0.0006867   0.0045081   0.0030976  -0.0025655   0.0037215
    3   0.0021572  -0.0054839   0.0069514  -0.0039635   0.0028918  -0.0033230
            7           8           9          10          11          12
    1   0.0034933   0.0040396  -0.0001620  -0.0014380  -0.0007448   0.0038767
    2  -0.0020685   0.0010235   0.0095243   0.0027536   0.0009896   0.0003522
    3  -0.0018006   0.0061246  -0.0013994   0.0015148   0.0005191  -0.0011781
           13          14          15          16          17          18
    1   0.0030345   0.0023391  -0.0022972   0.0016668   0.0050204  -0.0020842
    2  -0.0006843  -0.0003938  -0.0003533   0.0017332  -0.0016472  -0.0029682
    3   0.0015923  -0.0015982  -0.0021587   0.0013916  -0.0038659   0.0084973
           19          20          21          22
    1   0.0114259  -0.0169283   0.0048249   0.0059090
    2   0.0057688  -0.0134832   0.0054836   0.0042591
    3  -0.0045978   0.0009603  -0.0026319  -0.0005995
 Max gradient component =       1.974E-02
 RMS gradient           =       5.785E-03
 Computing fast CPCM-SWIG gradient
 Updating gradient with PCM contributions...
 -- total gradient after adding PCM contribution --
---------------------------------------------------
  Atom         X              Y              Z     
---------------------------------------------------
   1       0.012230      -0.012295      -0.001744
   2      -0.010400       0.000567      -0.008432
   3      -0.001240       0.003535       0.003200
   4       0.000775      -0.001799      -0.000445
   5      -0.009113      -0.000388       0.006153
   6       0.001187       0.006992      -0.000183
   7       0.002799      -0.000449      -0.001156
   8       0.001953       0.000199       0.004723
   9      -0.005114       0.006424       0.000654
  10      -0.000770       0.001384       0.001882
  11       0.000916       0.001689      -0.000005
  12       0.001166       0.001505      -0.001913
  13       0.003129      -0.000529      -0.000790
  14      -0.000874      -0.001654      -0.000703
  15      -0.000650       0.000283      -0.002458
  16       0.000813      -0.001130       0.000564
  17      -0.000197      -0.003759      -0.001759
  18       0.008076       0.002204       0.004991
  19      -0.001291      -0.000024       0.000815
  20      -0.010251      -0.011066      -0.003997
  21       0.000686       0.003616       0.000518
  22       0.006170       0.004696       0.000087
---------------------------------------------------
 Number of fixed atoms: 0
 Gradient time:  CPU 124.53 s  wall 11.47 s
 Geometry Optimization Parameters
   NAtoms,    NIC,     NZ,  NCons,   NDum,   NFix, NCnnct, MaxDiis
       22     172       0       0       0       0       0       0

 Cartesian Hessian Update
 Hessian updated using BFGS update


** GEOMETRY OPTIMIZATION IN DELOCALIZED INTERNAL COORDINATES **
   Searching for a Minimum

   Optimization Cycle:   3

                       Coordinates (Angstroms)
     ATOM                X               Y               Z
      1  C         0.5198693428   11.8494261616   20.4052796711
      2  C         0.4376322387   10.4245645552   19.8369549823
      3  C         1.5289077605    9.5341864793   20.4606866263
      4  C         1.4356837203    9.5141558362   21.9942085949
      5  C         1.4273379698   10.9261636540   22.6090561279
      6  C         0.4121936736   11.8676447573   21.9431515286
      7  H         1.4528515368    8.5128528357   20.0601328478
      8  H        -0.5330942451   10.0061025196   20.1156600710
      9  H         1.4094131582   12.3990385184   20.0706237546
     10  H        -0.3284937438   12.4335349872   20.0153517736
     11  H         0.5222104137    8.9838240262   22.2931704410
     12  H         2.2896465813    8.9500447978   22.3881350916
     13  H         1.2894010792   10.8669180242   23.6943063257
     14  H         2.4314576390   11.3495324171   22.4566800229
     15  H        -0.6136820739   11.5640962538   22.2014173717
     16  H         0.5498219390   12.8875499825   22.3192480323
     17  H         2.5193485680    9.8862923784   20.1367405354
     18  N         0.5457319816   10.4292207910   18.3826967346
     19  H         1.3976848211   10.8036037259   17.9813941217
     20  C        -0.4443951822   10.0995957158   17.5190588311
     21  H        -0.1551459163   10.2879425128   16.4710968953
     22  O        -1.5643812621    9.6937090699   17.8349496183
   Point Group: c1    Number of degrees of freedom:    60


   Energy is   -404.598374949

 Hessian updated using BFGS update

 60 Hessian modes will be used to form the next step
  Hessian Eigenvalues:
     0.004843    0.005405    0.006547    0.008377    0.012665    0.016732
     0.018530    0.018734    0.023158    0.034584    0.037046    0.037232
     0.043529    0.046560    0.048106    0.049738    0.051240    0.053384
     0.056988    0.060507    0.066949    0.080788    0.081183    0.083208
     0.084005    0.087333    0.090066    0.092062    0.123451    0.125700
     0.139234    0.157455    0.159301    0.162698    0.178136    0.211934
     0.219819    0.220243    0.269141    0.272585    0.275490    0.282035
     0.284851    0.287147    0.330939    0.334336    0.336977    0.338476
     0.344092    0.345404    0.345838    0.346541    0.347717    0.349702
     0.351658    0.356928    0.377559    0.466169    0.484075    0.933522

 Minimum search - taking simple RFO step
 Searching for Lamda that Minimizes Along All modes
 Value Taken    Lamda =  -0.00715439
 Calculated Step too Large.  Step scaled by  0.580261
 Step Taken.  Stepsize is  0.300000

                             Maximum     Tolerance    Cnvgd?
         Gradient           0.007647      0.000100      NO
         Displacement       0.132005      0.000100      NO
         Energy change     -0.005753      0.000000      NO


 New Cartesian Coordinates Obtained by Inverse Iteration

 Displacement from previous Coordinates is:  0.309120
 ----------------------------------------------------------------
             Standard Nuclear Orientation (Angstroms)
    I     Atom           X                Y                Z
 ----------------------------------------------------------------
    1      C       0.4970491252    11.8651803967    20.4180199341
    2      C       0.4326037604    10.4408983914    19.8430579202
    3      C       1.5175834431     9.5412192120    20.4563621959
    4      C       1.4274486209     9.5136732015    21.9894160427
    5      C       1.4550298205    10.9273471028    22.5917526750
    6      C       0.4145300466    11.8595402353    21.9543930404
    7      H       1.4232162399     8.5275667274    20.0449349545
    8      H      -0.5474216109    10.0163355141    20.0837224362
    9      H       1.4191201781    12.3678856777    20.0916759807
   10      H      -0.3386268183    12.4531886059    20.0140987019
   11      H       0.5030432856     9.0001978348    22.2915833708
   12      H       2.2633172868     8.9260020776    22.3902024499
   13      H       1.3096894130    10.8783512920    23.6787226684
   14      H       2.4586405963    11.3511322637    22.4308668421
   15      H      -0.5978828168    11.5434967888    22.2467209685
   16      H       0.5490957845    12.8810212280    22.3322709692
   17      H       2.5084668975     9.9084346566    20.1471809468
   18      N       0.5392881356    10.4587134364    18.3844840103
   19      H       1.3951486729    10.8270604712    17.9816382064
   20      C      -0.4387015356    10.1235821191    17.5225732756
   21      H      -0.1235700723    10.2190779923    16.4700425829
   22      O      -1.5370684531     9.6400947748    17.8262798276
 ----------------------------------------------------------------
 Nuclear Repulsion Energy =         466.35582476 hartrees
 There are       35 alpha and       35 beta electrons
 Discretize the solute cavity surface with Lebedev spheres
	Using 302 Lebedev grid points for each H atom
	Using 302 Lebedev grid points for other atoms
	Atomic van der Waals radii will be scaled by 1.20
 Remove points where switching function is < 1.0e-08
 Keep 2749 surface tesserae and discard 3895 interior tesserae
 Molecular Surface Area = 182.649 Angst**2
 Applying Cartesian multipole field
    Component          Value
    ---------          -----
     (2,0,0)        1.00000E-11
     (0,2,0)        2.00000E-12
     (0,0,2)       -3.00000E-13
 Nucleus-field energy     =     0.0000000281 hartrees
 Requested basis set is 6-31+G(d)
 There are 71 shells and 197 basis functions
 A cutoff of  1.0D-14 yielded   2412 shell pairs
 There are     18992 function pairs
 Smallest overlap matrix eigenvalue = 2.42E-05
 Guess MOs from SCF MO coefficient file

 -----------------------------------------------------------------------
  General SCF calculation program by
  Eric Jon Sundstrom, Paul Horn, Yuezhi Mao, Dmitri Zuev, Alec White,
  David Stuck, Shaama M.S., Shane Yost, Joonho Lee, David Small,
  Daniel Levine, Susi Lehtola, Hugh Burton, Evgeny Epifanovsky,
  Bang C. Huynh
 -----------------------------------------------------------------------
 Exchange:     0.2000 Hartree-Fock + 0.0800 Slater + 0.7200 B88
 Correlation:  0.1900 VWN1RPA + 0.8100 LYP
 Using Euler-Maclaurin-Lebedev (99,590) quadrature formula
 using 16 threads for integral computing
 -------------------------------------------------------
 OpenMP Integral computing Module                
 Release: version 2.0, May 2017, Q-Chem Inc. Pleasanton 
 -------------------------------------------------------
 A restricted SCF calculation will be
 performed using Roothaan-Hall, DIIS
 SCF converges when DIIS error is below 1.0e-08
 ---------------------------------------
  Cycle       Energy         DIIS error
 ---------------------------------------
    1    -404.5779668365      8.98e-04  Roothaan Step
 ---------------------------------------
  Cycle       Energy         DIIS error
 ---------------------------------------
    1    -404.5893656512      1.25e-03  
    2    -404.5721516900      2.71e-03  
    3    -404.6000136470      2.10e-04  
    4    -404.6001743713      1.20e-04  
    5    -404.6002296069      3.53e-05  
    6    -404.6002347442      8.95e-06  
    7    -404.6002350515      3.10e-06  
    8    -404.6002350976      5.62e-07  
    9    -404.6002350990      2.44e-07  
   10    -404.6002350992      4.49e-08  
   11    -404.6002350993      1.16e-08  
   12    -404.6002350993      3.08e-09  Convergence criterion met
 ---------------------------------------
 SCF time:   CPU 871.85s  wall 59.00s 

************** Final PCM Free Energy Summary **************
 G_electrostatic  =      -0.01837856 hartree =     -11.53271852 kcal/mol
 G_cavitation     =       0.00000000 hartree =       0.00000000 kcal/mol
 G_dispersion     =       0.00000000 hartree =       0.00000000 kcal/mol
 G_repulsion      =       0.00000000 hartree =       0.00000000 kcal/mol
 --------------------------------------------------
 Non-electrostatic Free Energy =       0.00000000 hartree =       0.00000000 kcal/mol
 Total                         =      -0.01837856 hartree =     -11.53271852 kcal/mol
 --------------------------------------------------
 SCF Energy (H0 + V/2)                       =    -404.60023510 
 Solute Internal Energy (H0)                 =    -404.58185654 
 Total Free Energy (H0 + V/2 + non-elec)     =    -404.60023510 hartree
                                             = -253890.47949361 kcal/mol
***********************************************************

 SCF   energy in the final basis set =     -404.6002350993
 Total energy in the final basis set =     -404.6002350993
 
 --------------------------------------------------------------
 
                    Orbital Energies (a.u.)
 --------------------------------------------------------------
 
 Alpha MOs
 -- Occupied --
-19.1345 -14.3717 -10.2937 -10.2254 -10.1826 -10.1824 -10.1800 -10.1800
-10.1780  -1.0398  -0.9338  -0.8242  -0.7432  -0.7420  -0.6378  -0.6121
 -0.5923  -0.5623  -0.5262  -0.4843  -0.4605  -0.4431  -0.4383  -0.4198
 -0.4184  -0.3955  -0.3779  -0.3745  -0.3471  -0.3443  -0.3205  -0.3118
 -0.3099  -0.2706  -0.2607
 -- Virtual --
  0.0063   0.0097   0.0171   0.0241   0.0259   0.0412   0.0484   0.0490
  0.0590   0.0689   0.0703   0.0839   0.0869   0.0959   0.1009   0.1051
  0.1119   0.1172   0.1263   0.1340   0.1410   0.1515   0.1561   0.1618
  0.1703   0.1801   0.1818   0.1879   0.2004   0.2016   0.2102   0.2134
  0.2223   0.2263   0.2319   0.2454   0.2492   0.2560   0.2640   0.2715
  0.2781   0.2831   0.2859   0.2919   0.2963   0.3044   0.3136   0.3266
  0.3308   0.3331   0.3579   0.3731   0.3839   0.3867   0.4185   0.4202
  0.4399   0.4562   0.4831   0.6095   0.6400   0.6579   0.6663   0.6689
  0.6859   0.6994   0.7285   0.7325   0.7484   0.7507   0.7744   0.7793
  0.7997   0.8052   0.8220   0.8419   0.8629   0.9097   0.9541   0.9753
  0.9807   0.9929   1.0211   1.0274   1.0310   1.0576   1.0863   1.1046
  1.1204   1.1233   1.1280   1.1427   1.1654   1.1721   1.1850   1.1876
  1.2374   1.2492   1.2807   1.3202   1.3384   1.3657   1.3972   1.4147
  1.4665   1.4896   1.4998   1.5628   1.5828   1.6178   1.6972   1.7310
  1.7444   1.7547   1.7671   1.7995   1.8432   1.8699   1.9058   1.9111
  1.9144   1.9377   1.9722   2.0084   2.0120   2.0441   2.0600   2.0861
  2.1065   2.1264   2.2051   2.2130   2.2780   2.3069   2.3184   2.3412
  2.3969   2.4141   2.4179   2.4232   2.4504   2.5592   2.5823   2.6206
  2.6803   2.6890   2.7047   2.7577   2.7798   2.8373   2.8662   2.9925
  3.1851   4.0929   4.1930   4.2286   4.2967   4.3355   4.4140   4.6037
  4.6039   4.6703
 --------------------------------------------------------------
 
          Ground-State Mulliken Net Atomic Charges

     Atom                 Charge (a.u.)
  ----------------------------------------
      1 C                    -0.287216
      2 C                    -0.417885
      3 C                    -0.293125
      4 C                    -0.453647
      5 C                    -0.376367
      6 C                    -0.458957
      7 H                     0.211317
      8 H                     0.228819
      9 H                     0.213648
     10 H                     0.210644
     11 H                     0.207186
     12 H                     0.203565
     13 H                     0.199598
     14 H                     0.202108
     15 H                     0.207167
     16 H                     0.203733
     17 H                     0.212918
     18 N                    -0.379627
     19 H                     0.449781
     20 C                     0.344605
     21 H                     0.182035
     22 O                    -0.610302
  ----------------------------------------
  Sum of atomic charges =     0.000000

 -----------------------------------------------------------------
                    Cartesian Multipole Moments
 -----------------------------------------------------------------
    Charge (ESU x 10^10)
                 0.0000
    Dipole Moment (Debye)
         X       5.3041      Y       2.2760      Z       1.1078
       Tot       5.8772
    Quadrupole Moments (Debye-Ang)
        XX     -60.9586     XY      52.8549     YY     -10.8521
        XZ      95.7806     YZ      52.5209     ZZ     -10.5261
    Octopole Moments (Debye-Ang^2)
       XXX     -71.1415    XXY    -632.1157    XYY     499.4698
       YYY   -1093.2253    XXZ   -1218.5123    XYZ     955.5669
       YYZ    -198.3015    XZZ    1702.7237    YZZ     623.4187
       ZZZ   -2008.1584
    Hexadecapole Moments (Debye-Ang^3)
      XXXX    -513.9116   XXXY    -760.0764   XXYY   -6707.2102
      XYYY    4385.0721   YYYY  -28585.0216   XXXZ   -1686.9896
      XXYZ  -12686.0437   XYYZ    8910.1704   YYYZ  -22398.3492
      XXZZ  -24673.1691   XYZZ   16992.0889   YYZZ   -9733.0476
      XZZZ   29378.7791   YZZZ   -8016.3452   ZZZZ -101098.6078
 -----------------------------------------------------------------
 Calculating analytic gradient of the SCF energy
 Gradient of SCF Energy
            1           2           3           4           5           6
    1  -0.0019100  -0.0014352  -0.0100797   0.0003816  -0.0094297   0.0047663
    2  -0.0109120   0.0001027   0.0023027   0.0049417  -0.0029632  -0.0021481
    3   0.0031720  -0.0002662   0.0057102  -0.0043529  -0.0024065  -0.0033002
            7           8           9          10          11          12
    1   0.0011458   0.0024968   0.0038694  -0.0016503  -0.0012287   0.0033236
    2  -0.0015594   0.0012579   0.0047907   0.0016133  -0.0007835  -0.0004531
    3  -0.0012942   0.0031403  -0.0017440   0.0003143   0.0008561   0.0003824
           13          14          15          16          17          18
    1   0.0002370   0.0036945  -0.0019848   0.0016574   0.0056688  -0.0086231
    2  -0.0001452   0.0007992  -0.0001578   0.0026648   0.0012237  -0.0087993
    3   0.0024043  -0.0010845  -0.0004826   0.0007567  -0.0025213   0.0046596
           19          20          21          22
    1   0.0128967  -0.0133959   0.0060055   0.0035941
    2   0.0051520   0.0092601  -0.0020956  -0.0040918
    3  -0.0054618   0.0052466  -0.0028966  -0.0008318
 Max gradient component =       1.340E-02
 RMS gradient           =       4.585E-03
 Computing fast CPCM-SWIG gradient
 Updating gradient with PCM contributions...
 -- total gradient after adding PCM contribution --
---------------------------------------------------
  Atom         X              Y              Z     
---------------------------------------------------
   1       0.003379      -0.003893      -0.000862
   2      -0.001316      -0.000082      -0.003340
   3      -0.001353       0.001616       0.001908
   4       0.000154      -0.000201      -0.000704
   5      -0.003674      -0.000567       0.000985
   6       0.000723       0.001277       0.000106
   7       0.000565       0.000093      -0.000651
   8       0.000281       0.000287       0.001774
   9      -0.001513       0.002272       0.000290
  10      -0.000734       0.000154       0.000882
  11       0.000468      -0.000053       0.000275
  12       0.000656       0.000816      -0.000465
  13       0.000501      -0.000042      -0.000031
  14       0.000217      -0.000612      -0.000123
  15      -0.000272       0.000539      -0.000975
  16       0.000808      -0.000205      -0.000049
  17       0.000284      -0.001232      -0.000544
  18       0.001746      -0.003878       0.001183
  19      -0.000046      -0.000470      -0.000078
  20      -0.006715       0.011822       0.000542
  21       0.001765      -0.003739       0.000119
  22       0.004075      -0.003902      -0.000243
---------------------------------------------------
 Number of fixed atoms: 0
 Gradient time:  CPU 124.67 s  wall 11.54 s
 Geometry Optimization Parameters
   NAtoms,    NIC,     NZ,  NCons,   NDum,   NFix, NCnnct, MaxDiis
       22     172       0       0       0       0       0       0

 Cartesian Hessian Update
 Hessian updated using BFGS update


** GEOMETRY OPTIMIZATION IN DELOCALIZED INTERNAL COORDINATES **
   Searching for a Minimum

   Optimization Cycle:   4

                       Coordinates (Angstroms)
     ATOM                X               Y               Z
      1  C         0.4970491252   11.8651803967   20.4180199341
      2  C         0.4326037604   10.4408983914   19.8430579202
      3  C         1.5175834431    9.5412192120   20.4563621959
      4  C         1.4274486209    9.5136732015   21.9894160427
      5  C         1.4550298205   10.9273471028   22.5917526750
      6  C         0.4145300466   11.8595402353   21.9543930404
      7  H         1.4232162399    8.5275667274   20.0449349545
      8  H        -0.5474216109   10.0163355141   20.0837224362
      9  H         1.4191201781   12.3678856777   20.0916759807
     10  H        -0.3386268183   12.4531886059   20.0140987019
     11  H         0.5030432856    9.0001978348   22.2915833708
     12  H         2.2633172868    8.9260020776   22.3902024499
     13  H         1.3096894130   10.8783512920   23.6787226684
     14  H         2.4586405963   11.3511322637   22.4308668421
     15  H        -0.5978828168   11.5434967888   22.2467209685
     16  H         0.5490957845   12.8810212280   22.3322709692
     17  H         2.5084668975    9.9084346566   20.1471809468
     18  N         0.5392881356   10.4587134364   18.3844840103
     19  H         1.3951486729   10.8270604712   17.9816382064
     20  C        -0.4387015356   10.1235821191   17.5225732756
     21  H        -0.1235700723   10.2190779923   16.4700425829
     22  O        -1.5370684531    9.6400947748   17.8262798276
   Point Group: c1    Number of degrees of freedom:    60


   Energy is   -404.600235099

 Hessian updated using BFGS update

 60 Hessian modes will be used to form the next step
  Hessian Eigenvalues:
     0.004830    0.005383    0.006546    0.008377    0.012697    0.017714
     0.018548    0.018761    0.032663    0.035882    0.037094    0.041133
     0.045204    0.047326    0.049634    0.050932    0.053318    0.056692
     0.060045    0.066743    0.071758    0.080443    0.081339    0.083096
     0.083953    0.087313    0.090102    0.091341    0.123552    0.125715
     0.139396    0.157274    0.159286    0.162718    0.178377    0.211782
     0.219461    0.220239    0.269074    0.272579    0.275505    0.282266
     0.284852    0.287442    0.330930    0.334321    0.336969    0.338411
     0.344066    0.345357    0.345818    0.346513    0.347746    0.349689
     0.351634    0.356650    0.377341    0.466320    0.486400    0.929948

 Minimum search - taking simple RFO step
 Searching for Lamda that Minimizes Along All modes
 Value Taken    Lamda =  -0.00235860
 Calculated Step too Large.  Step scaled by  0.941611
 Step Taken.  Stepsize is  0.300000

                             Maximum     Tolerance    Cnvgd?
         Gradient           0.007573      0.000100      NO
         Displacement       0.157914      0.000100      NO
         Energy change     -0.001860      0.000000      NO


 New Cartesian Coordinates Obtained by Inverse Iteration

 Displacement from previous Coordinates is:  0.286241
 ----------------------------------------------------------------
             Standard Nuclear Orientation (Angstroms)
    I     Atom           X                Y                Z
 ----------------------------------------------------------------
    1      C       0.4785213780    11.8601713588    20.4216988395
    2      C       0.4303872369    10.4327923071    19.8473230531
    3      C       1.5179375270     9.5361080233    20.4626134483
    4      C       1.4279987394     9.5207766089    21.9969387015
    5      C       1.4827108421    10.9423884438    22.5766996628
    6      C       0.4046428013    11.8446457475    21.9584737219
    7      H       1.4210083473     8.5210232951    20.0576111411
    8      H      -0.5524002657     9.9985006536    20.0599542716
    9      H       1.4243807818    12.3266195611    20.1062020245
   10      H      -0.3414836551    12.4521001159    19.9971136077
   11      H       0.4898149251     9.0320018322    22.3009510359
   12      H       2.2437451583     8.9130958004    22.4104372800
   13      H       1.3490676349    10.9073591740    23.6664581673
   14      H       2.4773385468    11.3770798678    22.3919038008
   15      H      -0.5895964279    11.4950275732    22.2744626932
   16      H       0.5103714387    12.8698834043    22.3373849996
   17      H       2.5059092981     9.9163128865    20.1595127037
   18      N       0.5440319841    10.4564663377    18.3850553852
   19      H       1.4046908266    10.8202461917    17.9867585983
   20      C      -0.4216820583    10.1080775475    17.5176762473
   21      H      -0.1222620710    10.2446112450    16.4653401201
   22      O      -1.5551329883     9.6947120247    17.8094304967
 ----------------------------------------------------------------
 Nuclear Repulsion Energy =         466.30545326 hartrees
 There are       35 alpha and       35 beta electrons
 Discretize the solute cavity surface with Lebedev spheres
	Using 302 Lebedev grid points for each H atom
	Using 302 Lebedev grid points for other atoms
	Atomic van der Waals radii will be scaled by 1.20
 Remove points where switching function is < 1.0e-08
 Keep 2735 surface tesserae and discard 3909 interior tesserae
 Molecular Surface Area = 182.625 Angst**2
 Applying Cartesian multipole field
    Component          Value
    ---------          -----
     (2,0,0)        1.00000E-11
     (0,2,0)        2.00000E-12
     (0,0,2)       -3.00000E-13
 Nucleus-field energy     =     0.0000000282 hartrees
 Requested basis set is 6-31+G(d)
 There are 71 shells and 197 basis functions
 A cutoff of  1.0D-14 yielded   2410 shell pairs
 There are     18985 function pairs
 Smallest overlap matrix eigenvalue = 2.46E-05
 Guess MOs from SCF MO coefficient file

 -----------------------------------------------------------------------
  General SCF calculation program by
  Eric Jon Sundstrom, Paul Horn, Yuezhi Mao, Dmitri Zuev, Alec White,
  David Stuck, Shaama M.S., Shane Yost, Joonho Lee, David Small,
  Daniel Levine, Susi Lehtola, Hugh Burton, Evgeny Epifanovsky,
  Bang C. Huynh
 -----------------------------------------------------------------------
 Exchange:     0.2000 Hartree-Fock + 0.0800 Slater + 0.7200 B88
 Correlation:  0.1900 VWN1RPA + 0.8100 LYP
 Using Euler-Maclaurin-Lebedev (99,590) quadrature formula
 using 16 threads for integral computing
 -------------------------------------------------------
 OpenMP Integral computing Module                
 Release: version 2.0, May 2017, Q-Chem Inc. Pleasanton 
 -------------------------------------------------------
 A restricted SCF calculation will be
 performed using Roothaan-Hall, DIIS
 SCF converges when DIIS error is below 1.0e-08
 ---------------------------------------
  Cycle       Energy         DIIS error
 ---------------------------------------
    1    -404.5788834764      8.73e-04  Roothaan Step
 ---------------------------------------
  Cycle       Energy         DIIS error
 ---------------------------------------
    1    -404.5900233145      1.26e-03  
    2    -404.5726716981      2.73e-03  
    3    -404.6008556129      2.13e-04  
    4    -404.6010233519      1.21e-04  
    5    -404.6010791330      3.58e-05  
    6    -404.6010844067      9.26e-06  
    7    -404.6010847317      3.25e-06  
    8    -404.6010847824      5.90e-07  
    9    -404.6010847839      2.49e-07  
   10    -404.6010847842      4.49e-08  
   11    -404.6010847842      1.16e-08  
   12    -404.6010847842      3.18e-09  Convergence criterion met
 ---------------------------------------
 SCF time:   CPU 886.83s  wall 59.00s 

************** Final PCM Free Energy Summary **************
 G_electrostatic  =      -0.01861964 hartree =     -11.68400149 kcal/mol
 G_cavitation     =       0.00000000 hartree =       0.00000000 kcal/mol
 G_dispersion     =       0.00000000 hartree =       0.00000000 kcal/mol
 G_repulsion      =       0.00000000 hartree =       0.00000000 kcal/mol
 --------------------------------------------------
 Non-electrostatic Free Energy =       0.00000000 hartree =       0.00000000 kcal/mol
 Total                         =      -0.01861964 hartree =     -11.68400149 kcal/mol
 --------------------------------------------------
 SCF Energy (H0 + V/2)                       =    -404.60108478 
 Solute Internal Energy (H0)                 =    -404.58246514 
 Total Free Energy (H0 + V/2 + non-elec)     =    -404.60108478 hartree
                                             = -253891.01267897 kcal/mol
***********************************************************

 SCF   energy in the final basis set =     -404.6010847842
 Total energy in the final basis set =     -404.6010847842
 
 --------------------------------------------------------------
 
                    Orbital Energies (a.u.)
 --------------------------------------------------------------
 
 Alpha MOs
 -- Occupied --
-19.1340 -14.3721 -10.2937 -10.2255 -10.1830 -10.1830 -10.1803 -10.1801
-10.1783  -1.0379  -0.9335  -0.8248  -0.7433  -0.7416  -0.6372  -0.6119
 -0.5922  -0.5632  -0.5262  -0.4839  -0.4609  -0.4425  -0.4379  -0.4191
 -0.4180  -0.3954  -0.3788  -0.3740  -0.3475  -0.3439  -0.3218  -0.3122
 -0.3099  -0.2701  -0.2610
 -- Virtual --
  0.0082   0.0089   0.0170   0.0238   0.0258   0.0411   0.0480   0.0491
  0.0591   0.0694   0.0701   0.0836   0.0870   0.0952   0.1003   0.1049
  0.1121   0.1172   0.1255   0.1339   0.1407   0.1518   0.1562   0.1613
  0.1700   0.1795   0.1828   0.1889   0.1991   0.2023   0.2103   0.2139
  0.2213   0.2263   0.2312   0.2445   0.2484   0.2556   0.2641   0.2700
  0.2776   0.2820   0.2887   0.2903   0.2947   0.3035   0.3112   0.3260
  0.3296   0.3321   0.3595   0.3721   0.3850   0.3874   0.4168   0.4209
  0.4390   0.4588   0.4838   0.6095   0.6394   0.6563   0.6670   0.6675
  0.6846   0.6981   0.7303   0.7330   0.7454   0.7536   0.7758   0.7790
  0.8009   0.8054   0.8199   0.8490   0.8631   0.9125   0.9539   0.9756
  0.9795   0.9929   1.0216   1.0276   1.0298   1.0569   1.0898   1.1032
  1.1187   1.1238   1.1277   1.1434   1.1633   1.1717   1.1853   1.1920
  1.2385   1.2457   1.2813   1.3272   1.3423   1.3716   1.3902   1.4163
  1.4785   1.4874   1.4934   1.5672   1.5776   1.6161   1.6929   1.7321
  1.7366   1.7544   1.7680   1.8052   1.8512   1.8717   1.9025   1.9081
  1.9121   1.9393   1.9781   2.0093   2.0189   2.0446   2.0562   2.0856
  2.0945   2.1299   2.2033   2.2150   2.2773   2.3087   2.3169   2.3442
  2.3950   2.4111   2.4206   2.4256   2.4480   2.5598   2.5857   2.6208
  2.6737   2.6838   2.7052   2.7621   2.7806   2.8341   2.8631   2.9901
  3.1861   4.0936   4.1936   4.2288   4.2959   4.3334   4.4146   4.6035
  4.6090   4.6729
 --------------------------------------------------------------
 
          Ground-State Mulliken Net Atomic Charges

     Atom                 Charge (a.u.)
  ----------------------------------------
      1 C                    -0.275699
      2 C                    -0.427823
      3 C                    -0.283018
      4 C                    -0.452302
      5 C                    -0.381627
      6 C                    -0.459742
      7 H                     0.211359
      8 H                     0.227578
      9 H                     0.212891
     10 H                     0.211068
     11 H                     0.207691
     12 H                     0.203110
     13 H                     0.199352
     14 H                     0.203315
     15 H                     0.208001
     16 H                     0.203058
     17 H                     0.212970
     18 N                    -0.382278
     19 H                     0.449489
     20 C                     0.345132
     21 H                     0.182379
     22 O                    -0.614905
  ----------------------------------------
  Sum of atomic charges =     0.000000

 -----------------------------------------------------------------
                    Cartesian Multipole Moments
 -----------------------------------------------------------------
[...]

 Mode:                40                     41                     42
 Frequency:      1404.16                1494.41                1496.68
 Force Cnst:      1.7080                 1.4317                 1.4361
 Red. Mass:       1.4703                 1.0881                 1.0881
 IR Active:          YES                    YES                    YES
 IR Intens:        0.616                  0.105                  5.500
 Raman Active:       YES                    YES                    YES
               X      Y      Z        X      Y      Z        X      Y      Z
 C         -0.010  0.056  0.093    0.011  0.037 -0.031    0.001  0.014  0.006
 C         -0.021 -0.011 -0.099   -0.007  0.016 -0.000    0.001  0.000 -0.008
 C          0.037 -0.044  0.098   -0.033  0.016  0.030    0.012 -0.009  0.006
 C         -0.011  0.041  0.024   -0.008 -0.021  0.023   -0.007 -0.025  0.007
 C         -0.008 -0.004 -0.011    0.006 -0.014 -0.000   -0.052 -0.024 -0.046
 C          0.023 -0.034  0.025    0.022 -0.009 -0.023   -0.023  0.012  0.007
 H         -0.089  0.146 -0.372    0.372  0.034 -0.152   -0.071 -0.005  0.016
 H          0.079  0.051  0.467    0.031 -0.071  0.000    0.006  0.004  0.025
 H         -0.029 -0.141 -0.285    0.231 -0.273  0.211    0.034 -0.072 -0.012
 H          0.051 -0.167 -0.359   -0.292 -0.262  0.162   -0.046 -0.044  0.013
 H          0.014 -0.043 -0.037   -0.153  0.165 -0.158   -0.132  0.186 -0.068
 H          0.000 -0.126 -0.254    0.190  0.172 -0.109    0.161  0.135 -0.111
 H         -0.064 -0.026 -0.022    0.004  0.000  0.000    0.557  0.248  0.045
 H         -0.023 -0.011 -0.061   -0.028  0.064  0.003    0.072  0.039  0.603
 H         -0.024  0.040 -0.044   -0.021  0.231  0.156    0.049 -0.223 -0.063
 H         -0.091  0.079 -0.251   -0.260 -0.024  0.107    0.209  0.026 -0.109
 H         -0.125  0.071 -0.301    0.044 -0.339 -0.195   -0.031  0.080 -0.012
 N          0.005  0.002 -0.032   -0.000 -0.000 -0.000   -0.000  0.000 -0.001
 H          0.059  0.024  0.103    0.001 -0.001  0.001    0.004  0.002  0.009
 C          0.002  0.001  0.026    0.000 -0.000  0.000    0.000  0.000  0.001
 H         -0.005 -0.002  0.036   -0.000  0.001  0.000   -0.000 -0.000  0.002
 O          0.003  0.001 -0.005   -0.000  0.000 -0.000   -0.000 -0.000 -0.000
 TransDip   0.001 -0.003  0.025    0.004 -0.009  0.002    0.068  0.030  0.013

 Mode:                43                     44                     45
 Frequency:      1499.83                1500.65                1512.82
 Force Cnst:      1.4559                 1.4491                 1.4848
 Red. Mass:       1.0985                 1.0922                 1.1011
 IR Active:          YES                    YES                    YES
 IR Intens:        7.633                 10.977                  0.669
 Raman Active:       YES                    YES                    YES
               X      Y      Z        X      Y      Z        X      Y      Z
 C         -0.001 -0.038  0.022   -0.006 -0.036  0.014   -0.000 -0.035  0.016
 C         -0.002  0.005  0.002    0.000 -0.000  0.015   -0.004 -0.001  0.013
 C          0.018 -0.018 -0.015   -0.039  0.027  0.020   -0.027  0.024  0.015
 C         -0.004 -0.046  0.034   -0.003 -0.026  0.015    0.000  0.036 -0.019
 C          0.001  0.003  0.003    0.013  0.005  0.016   -0.024 -0.011 -0.033
 C          0.030 -0.023 -0.028   -0.030  0.023  0.023    0.027 -0.024 -0.018
 H         -0.191 -0.035  0.093    0.397  0.033 -0.138    0.292  0.038 -0.118
 H          0.004 -0.013 -0.003   -0.009 -0.004 -0.019   -0.010 -0.006 -0.017
 H         -0.184  0.246 -0.140   -0.180  0.234 -0.133   -0.171  0.234 -0.119
 H          0.235  0.190 -0.131    0.223  0.212 -0.101    0.219  0.182 -0.116
 H         -0.252  0.311 -0.215   -0.141  0.167 -0.129    0.173 -0.226  0.132
 H          0.317  0.256 -0.184    0.173  0.162 -0.074   -0.224 -0.181  0.115
 H         -0.007 -0.039  0.000   -0.129 -0.052 -0.001    0.283  0.126  0.008
 H         -0.009  0.011 -0.023   -0.019 -0.011 -0.139    0.041  0.023  0.316
 H         -0.053  0.324  0.164    0.047 -0.318 -0.172   -0.052  0.284  0.128
 H         -0.322 -0.053  0.155    0.335  0.033 -0.118   -0.287 -0.042  0.114
 H         -0.040  0.200  0.088    0.070 -0.383 -0.166    0.061 -0.295 -0.115
 N          0.000 -0.001 -0.000   -0.000  0.000 -0.002    0.005  0.002  0.008
 H         -0.001  0.000 -0.002   -0.004 -0.002 -0.012   -0.021 -0.008 -0.057
 C         -0.000 -0.000 -0.000   -0.001 -0.000 -0.000   -0.006 -0.002 -0.006
 H         -0.000  0.001  0.000    0.001  0.000 -0.000    0.003  0.001 -0.006
 O          0.000  0.000 -0.000    0.001  0.000 -0.000    0.002  0.001  0.000
 TransDip  -0.027  0.083 -0.013    0.069  0.016 -0.079   -0.012 -0.003 -0.023

 Mode:                46                     47                     48
 Frequency:      1554.50                1672.42                2239.99
 Force Cnst:      2.5135                14.1586                 7.0806
 Red. Mass:       1.7655                 8.5917                 2.3951
 IR Active:          YES                    YES                    YES
 IR Intens:      263.154                888.405                 99.468
 Raman Active:       YES                    YES                    YES
               X      Y      Z        X      Y      Z        X      Y      Z
 C         -0.003 -0.004  0.009   -0.005 -0.007  0.019   -0.000 -0.000 -0.000
 C          0.057  0.023  0.057    0.015  0.006 -0.032    0.000  0.000  0.003
 C         -0.005  0.001  0.010   -0.009  0.001  0.019   -0.000  0.000 -0.000
 C         -0.001 -0.001 -0.008    0.006 -0.004 -0.005   -0.000  0.000 -0.000
 C         -0.002 -0.001  0.000   -0.001 -0.000  0.001   -0.000 -0.000 -0.000
 C         -0.001 -0.001 -0.008    0.000  0.007 -0.006    0.000 -0.000 -0.000
 H          0.029  0.004  0.002    0.013  0.017 -0.020    0.001 -0.000  0.000
 H         -0.008 -0.008 -0.338    0.051  0.021  0.054    0.000 -0.000  0.007
 H         -0.009 -0.022 -0.050   -0.018 -0.018 -0.027   -0.000 -0.000  0.000
 H          0.024  0.024  0.004    0.023 -0.001 -0.018    0.000  0.001  0.001
 H          0.017 -0.010  0.030    0.007  0.002  0.002   -0.000 -0.000 -0.000
 H         -0.023 -0.007  0.024   -0.014  0.007  0.042    0.000 -0.000 -0.000
 H          0.022  0.011  0.003    0.012  0.005  0.001   -0.000 -0.000  0.000
 H          0.002  0.001  0.018   -0.001 -0.000  0.005    0.000  0.000 -0.000
 H          0.003  0.020  0.028    0.006  0.004  0.004   -0.000 -0.000 -0.000
 H         -0.021 -0.011  0.022   -0.005 -0.014  0.043    0.000  0.000 -0.000
 H         -0.024  0.009 -0.054   -0.026 -0.001 -0.025   -0.000 -0.000  0.000
 N         -0.100 -0.039 -0.172   -0.113 -0.043 -0.016    0.004  0.002  0.014
 H          0.287  0.113  0.835   -0.257 -0.095 -0.376   -0.014 -0.005 -0.057
 C          0.043  0.016  0.093    0.629  0.235 -0.013    0.059  0.021 -0.184
 H         -0.031 -0.011  0.132   -0.087 -0.036 -0.375   -0.260 -0.091  0.939
 O          0.007  0.003 -0.013   -0.353 -0.131  0.093   -0.015 -0.005  0.009
 TransDip   0.316  0.122  0.394    0.863  0.326  0.246    0.153  0.055 -0.275

 Mode:                49                     50                     51
 Frequency:      3013.98                3014.69                3018.56
 Force Cnst:      5.7206                 5.7194                 5.7311
 Red. Mass:       1.0688                 1.0681                 1.0676
 IR Active:          YES                    YES                    YES
 IR Intens:       34.285                 44.878                  4.154
 Raman Active:       YES                    YES                    YES
               X      Y      Z        X      Y      Z        X      Y      Z
 C         -0.001  0.004 -0.002    0.024  0.025 -0.017    0.023  0.016 -0.011
 C         -0.002 -0.001  0.000    0.001 -0.001  0.000   -0.004 -0.002  0.000
 C          0.009 -0.003 -0.005   -0.042 -0.002  0.020    0.038  0.001 -0.017
 C          0.018  0.008 -0.004    0.024  0.018 -0.012   -0.014 -0.009  0.006
 C         -0.060 -0.027 -0.010   -0.005 -0.003 -0.001   -0.006 -0.003 -0.015
 C          0.023  0.008 -0.006   -0.025 -0.003  0.011   -0.042  0.000  0.020
 H          0.011  0.079  0.027   -0.031 -0.182 -0.068    0.026  0.171  0.062
 H          0.020  0.009 -0.005   -0.006 -0.001  0.001    0.059  0.027 -0.012
 H         -0.032 -0.015  0.008   -0.432 -0.209  0.138   -0.336 -0.166  0.107
 H          0.043 -0.030  0.018    0.135 -0.086  0.062    0.054 -0.032  0.024
 H         -0.209 -0.106  0.068   -0.363 -0.181  0.116    0.188  0.095 -0.059
 H         -0.007  0.008 -0.010    0.069 -0.041  0.030   -0.020  0.011 -0.009
 H         -0.045 -0.017  0.279   -0.005  0.003  0.020   -0.026 -0.008  0.202
 H          0.767  0.338 -0.169    0.065  0.031 -0.014    0.087  0.038 -0.024
 H         -0.278 -0.104  0.085    0.318  0.122 -0.097    0.539  0.208 -0.162
 H          0.003  0.003 -0.004   -0.016 -0.088 -0.032   -0.030 -0.208 -0.075
 H         -0.110 -0.044  0.032    0.530  0.208 -0.163   -0.483 -0.189  0.147
 N         -0.000 -0.000 -0.000   -0.000  0.000 -0.000    0.000  0.000  0.000
 H         -0.000 -0.000  0.001   -0.000  0.001 -0.000    0.000 -0.000  0.003
 C          0.000  0.000  0.000    0.000  0.000 -0.000   -0.001 -0.000  0.000
 H         -0.000  0.000 -0.000    0.000 -0.000 -0.000    0.000  0.000  0.000
 O         -0.000 -0.000 -0.000   -0.000  0.000  0.000    0.000  0.000 -0.000
 TransDip  -0.072 -0.053 -0.165   -0.108  0.185 -0.003   -0.029  0.025 -0.053

 Mode:                52                     53                     54
 Frequency:      3019.31                3020.81                3062.37
 Force Cnst:      5.7055                 5.7030                 6.0471
 Red. Mass:       1.0622                 1.0607                 1.0944
 IR Active:          YES                    YES                    YES
 IR Intens:        4.804                162.140                119.112
 Raman Active:       YES                    YES                    YES
               X      Y      Z        X      Y      Z        X      Y      Z
 C          0.017  0.026 -0.018   -0.017 -0.028  0.019   -0.017  0.004 -0.002
 C         -0.001 -0.000 -0.000    0.005  0.002 -0.000    0.006  0.003 -0.001
 C         -0.013  0.009  0.010   -0.025  0.005  0.014   -0.009 -0.017 -0.002
 C         -0.024 -0.038  0.025   -0.006 -0.024  0.015   -0.012  0.013 -0.008
 C         -0.003 -0.001 -0.007   -0.016 -0.007 -0.017    0.028  0.012 -0.074
 C          0.021 -0.007 -0.013   -0.024  0.014  0.017    0.001 -0.019 -0.008
 H         -0.022 -0.175 -0.064   -0.025 -0.190 -0.069    0.016  0.167  0.064
 H          0.016  0.005 -0.003   -0.068 -0.030  0.015   -0.078 -0.034  0.018
 H         -0.390 -0.187  0.123    0.405  0.195 -0.128    0.085  0.044 -0.029
 H          0.183 -0.124  0.086   -0.198  0.136 -0.093    0.121 -0.090  0.061
 H          0.552  0.269 -0.174    0.279  0.135 -0.086   -0.031 -0.014  0.007
 H         -0.260  0.179 -0.119   -0.208  0.148 -0.097    0.176 -0.132  0.087
 H         -0.010 -0.006  0.091   -0.032 -0.011  0.259   -0.087 -0.029  0.833
 H          0.046  0.022 -0.012    0.218  0.096 -0.052   -0.255 -0.113  0.043
 H         -0.267 -0.106  0.081    0.323  0.128 -0.096   -0.026 -0.012  0.006
 H          0.024  0.192  0.068   -0.033 -0.290 -0.104    0.021  0.237  0.089
 H          0.176  0.072 -0.054    0.326  0.129 -0.099    0.092  0.033 -0.029
 N          0.000 -0.000  0.000    0.000  0.000 -0.000   -0.000 -0.000 -0.000
 H         -0.000  0.001  0.000    0.000 -0.000 -0.003    0.001  0.000 -0.001
 C         -0.000 -0.000  0.000    0.000  0.000 -0.000    0.000  0.000  0.000
 H          0.000 -0.000  0.000   -0.000 -0.000 -0.000   -0.000 -0.000 -0.000
 O          0.000  0.000 -0.000   -0.000 -0.000  0.000   -0.000 -0.000  0.000
 TransDip  -0.007 -0.070 -0.001   -0.327 -0.147  0.193   -0.024 -0.022 -0.348

 Mode:                55                     56                     57
 Frequency:      3063.63                3067.27                3068.76
 Force Cnst:      6.0657                 6.0815                 6.0856
 Red. Mass:       1.0969                 1.0971                 1.0968
 IR Active:          YES                    YES                    YES
 IR Intens:      125.545                 77.521                 93.962
 Raman Active:       YES                    YES                    YES
               X      Y      Z        X      Y      Z        X      Y      Z
 C          0.008 -0.010  0.006    0.012 -0.012  0.008   -0.043  0.016 -0.011
 C         -0.000  0.001 -0.000   -0.003 -0.001  0.002    0.023  0.010 -0.006
 C          0.001 -0.013 -0.006   -0.000  0.020  0.008   -0.022 -0.054 -0.013
 C          0.057 -0.020  0.014   -0.054  0.018 -0.012   -0.021 -0.003  0.002
 C         -0.001 -0.000  0.002   -0.022 -0.009  0.014   -0.015 -0.006  0.026
 C         -0.024 -0.056 -0.013   -0.022 -0.051 -0.010   -0.014 -0.010  0.002
 H          0.017  0.161  0.063   -0.024 -0.238 -0.093    0.058  0.564  0.222
 H         -0.001  0.001  0.000    0.045  0.020 -0.010   -0.291 -0.128  0.068
 H          0.029  0.012 -0.009    0.025  0.010 -0.008    0.153  0.082 -0.056
 H         -0.132  0.096 -0.068   -0.173  0.127 -0.089    0.359 -0.263  0.185
 H         -0.211 -0.114  0.074    0.214  0.117 -0.074    0.171  0.089 -0.057
 H         -0.467  0.350 -0.233    0.430 -0.323  0.213    0.073 -0.055  0.037
 H          0.002 -0.000 -0.017    0.012  0.004 -0.123    0.030  0.010 -0.284
 H          0.009  0.002 -0.001    0.235  0.103 -0.047    0.155  0.068 -0.028
 H          0.236  0.082 -0.076    0.230  0.078 -0.073    0.151  0.055 -0.047
 H          0.053  0.591  0.224    0.046  0.529  0.199    0.005  0.063  0.024
 H         -0.027 -0.012  0.008    0.016  0.009 -0.005    0.214  0.074 -0.072
 N          0.000 -0.000 -0.000   -0.000 -0.000 -0.000   -0.000  0.000  0.000
 H          0.000 -0.000 -0.000   -0.001 -0.000 -0.000    0.004  0.002 -0.002
 C          0.000 -0.000  0.000    0.000  0.000 -0.000    0.000  0.000  0.000
 H         -0.000  0.000  0.000   -0.000 -0.000 -0.000   -0.000  0.000 -0.000
 O         -0.000  0.000  0.000   -0.000 -0.000 -0.000   -0.000 -0.000  0.000
 TransDip   0.140 -0.330  0.010   -0.261 -0.107  0.007   -0.275 -0.143 -0.005

 Mode:                58                     59                     60
 Frequency:      3070.52                3097.01                3579.98
 Force Cnst:      6.1112                 6.1482                 8.1433
 Red. Mass:       1.1002                 1.0880                 1.0784
 IR Active:          YES                    YES                    YES
 IR Intens:       47.676                 60.608                 64.112
 Raman Active:       YES                    YES                    YES
               X      Y      Z        X      Y      Z        X      Y      Z
 C          0.064 -0.020  0.015   -0.023  0.003 -0.002    0.000  0.000 -0.000
 C         -0.002 -0.002  0.001   -0.071 -0.031  0.016   -0.001 -0.000 -0.001
 C         -0.024 -0.050 -0.011   -0.013 -0.019 -0.002    0.000  0.000 -0.000
 C         -0.015 -0.000 -0.000   -0.004 -0.001  0.001    0.000  0.000 -0.000
 C          0.001  0.001 -0.002   -0.001 -0.000  0.002    0.000  0.000 -0.000
 C          0.013  0.012 -0.001   -0.004 -0.002  0.001    0.000  0.000 -0.000
 H          0.052  0.518  0.203    0.016  0.175  0.067    0.000 -0.000  0.000
 H          0.034  0.013 -0.008    0.836  0.367 -0.185    0.009  0.004 -0.006
 H         -0.257 -0.135  0.090    0.131  0.071 -0.042   -0.000  0.001  0.001
 H         -0.507  0.372 -0.261    0.141 -0.105  0.071   -0.000  0.000 -0.000
 H          0.105  0.054 -0.036    0.042  0.022 -0.016   -0.000 -0.000 -0.000
 H          0.073 -0.055  0.036    0.006 -0.004  0.002   -0.000  0.000  0.000
 H         -0.001 -0.002  0.020    0.002  0.001 -0.017   -0.000 -0.000  0.000
 H         -0.011 -0.003  0.002    0.011  0.005 -0.001   -0.000 -0.000  0.000
 H         -0.135 -0.050  0.044    0.045  0.016 -0.016   -0.000 -0.000 -0.000
 H         -0.008 -0.093 -0.035    0.001  0.007  0.002   -0.000 -0.000 -0.000
 H          0.229  0.081 -0.075    0.139  0.047 -0.041    0.000 -0.001  0.001
 N         -0.000  0.000 -0.000    0.001  0.000  0.001   -0.064 -0.024  0.027
 H         -0.001  0.000  0.000   -0.010 -0.004 -0.001    0.860  0.326 -0.386
 C          0.000 -0.000 -0.000   -0.002 -0.001 -0.000    0.000  0.000  0.002
 H         -0.000  0.000  0.000    0.000  0.000  0.001   -0.000 -0.000 -0.003
 O         -0.000  0.000 -0.000    0.001  0.000 -0.001    0.001  0.000 -0.000
 TransDip   0.114 -0.189  0.006   -0.217 -0.099  0.073    0.239  0.089 -0.025

 STANDARD THERMODYNAMIC QUANTITIES AT   298.18 K  AND     1.00 ATM

   This Molecule has  1 Imaginary Frequencies
   Zero point vibrational energy:      121.844 kcal/mol

   Atom    1 Element C  Has Mass   12.00000
   Atom    2 Element C  Has Mass   12.00000
   Atom    3 Element C  Has Mass   12.00000
   Atom    4 Element C  Has Mass   12.00000
   Atom    5 Element C  Has Mass   12.00000
   Atom    6 Element C  Has Mass   12.00000
   Atom    7 Element H  Has Mass    1.00783
   Atom    8 Element H  Has Mass    1.00783
   Atom    9 Element H  Has Mass    1.00783
   Atom   10 Element H  Has Mass    1.00783
   Atom   11 Element H  Has Mass    1.00783
   Atom   12 Element H  Has Mass    1.00783
   Atom   13 Element H  Has Mass    1.00783
   Atom   14 Element H  Has Mass    1.00783
   Atom   15 Element H  Has Mass    1.00783
   Atom   16 Element H  Has Mass    1.00783
   Atom   17 Element H  Has Mass    1.00783
   Atom   18 Element N  Has Mass   14.00307
   Atom   19 Element H  Has Mass    1.00783
   Atom   20 Element C  Has Mass   12.00000
   Atom   21 Element H  Has Mass    2.01410
   Atom   22 Element O  Has Mass   15.99491
   Molecular Mass:   128.106042 amu
   Principal axes and moments of inertia in amu*Bohr^2:
                             1           2           3
    Eigenvalues --      537.85556  2029.28814  2230.09351
          X               0.39043    -0.42658     0.81584
          Y               0.16147     0.90417     0.39549
          Z               0.90636     0.02267    -0.42190
   Rotational Symmetry Number is   1
   The Molecule is an Asymmetric Top
   Translational Enthalpy:        0.889 kcal/mol
   Rotational Enthalpy:           0.889 kcal/mol
   Vibrational Enthalpy:        125.127 kcal/mol
   gas constant (RT):             0.593 kcal/mol
   Translational Entropy:        40.457  cal/mol.K
   Rotational Entropy:           29.278  cal/mol.K
   Vibrational Entropy:          18.124  cal/mol.K

   Total Enthalpy:              127.497 kcal/mol
   Total Entropy:                87.859  cal/mol.K
Archival summary:
1\1\node024\FREQ\ProcedureUnspecified\6-31+G*\11713\ymao90\ThuApr815:35:502021ThuApr815:35:502021\0\\#,FREQ,ProcedureUnspecified,6-31+G*,\\0,1\N\H,1,1.01529\C,1,1.34547,2,116.773\H,3,1.10249,1,112.666,2,0.540099,0\O,3,1.23954,1,125.97,2,-179.546,0\C,1,1.46669,2,117.584,3,-179.305,0\H,6,1.09469,1,105.961,2,-177.128,0\C,6,1.5389,1,110.564,2,-59.0927,0\H,8,1.09743,6,109.439,1,-58.9674,0\H,8,1.10078,6,108.759,1,57.7004,0\C,8,1.53784,6,111.36,1,178.438,0\H,11,1.0977,8,109.612,6,-177.618,0\H,11,1.1004,8,109.153,6,65.905,0\C,11,1.53688,8,111.641,6,-54.9506,0\H,14,1.09797,11,110.124,8,177.208,0\H,14,1.10066,11,109.245,8,-65.8355,0\C,14,1.53688,11,111.219,8,54.8216,0\H,17,1.09771,14,110.418,11,-177.08,0\H,17,1.10044,14,109.231,11,65.9348,0\C,17,1.53779,14,111.593,11,-54.862,0\H,20,1.09741,17,110.628,14,176.942,0\H,20,1.10066,17,109.533,14,-65.2387,0\\\@

 Total job time:  892.89s(wall), 12327.56s(cpu) 
 Thu Apr  8 15:35:51 2021

        *************************************************************
        *                                                           *
        *  Thank you very much for using Q-Chem.  Have a nice day.  *
        *                                                           *
        *************************************************************


