                  Welcome to Q-Chem
     A Quantum Leap Into The Future Of Chemistry


 Q-Chem 5.2 (devel), Q-Chem, Inc., Pleasanton, CA (2019)

 Yihan Shao,  Zhengting Gan,  E. Epifanovsky,  A. T. B. Gilbert,  M. Wormit,  
 J. Kussmann,  A. W. Lange,  A. Behn,  Jia Deng,  Xintian Feng,  D. Ghosh,  
 M. Goldey,  P. R. Horn,  L. D. Jacobson,  I. Kaliman,  T. Kus,  A. Landau,  
 Jie Liu,  E. I. Proynov,  R. M. Richard,  R. P. Steele,  E. J. Sundstrom,  
 H. L. Woodcock III,  P. M. Zimmerman,  D. Zuev,  B. Alam,  B. Albrecht,  
 E. Alguire,  S. A. Baeppler,  D. Barton,  Z. Benda,  Y. A. Bernard,  
 E. J. Berquist,  K. B. Bravaya,  H. Burton,  K. Carter-Fenk,  D. Casanova,  
 Chun-Min Chang,  Yunqing Chen,  A. Chien,  K. D. Closser,  M. P. Coons,  
 S. Coriani,  S. Dasgupta,  A. L. Dempwolff,  M. Diedenhofen,  Hainam Do,  
 R. G. Edgar,  Po-Tung Fang,  S. Faraji,  S. Fatehi,  Qingguo Feng,  
 J. Fosso-Tande,  J. Gayvert,  Qinghui Ge,  A. Ghysels,  G. Gidofalvi,  
 J. Gomes,  J. Gonthier,  A. Gunina,  D. Hait,  M. W. D. Hanson-Heine,  
 P. H. P. Harbach,  A. W. Hauser,  M. F. Herbst,  J. E. Herr,  
 E. G. Hohenstein,  Z. C. Holden,  Kerwin Hui,  B. C. Huynh,  T.-C. Jagau,  
 Hyunjun Ji,  B. Kaduk,  K. Khistyaev,  Jaehoon Kim,  P. Klunzinger,  K. Koh,  
 D. Kosenkov,  L. Koulias,  T. Kowalczyk,  C. M. Krauter,  A. Kunitsa,  
 Ka Un Lao,  A. Laurent,  K. V. Lawler,  Joonho Lee,  D. Lefrancois,  
 S. Lehtola,  D. S. Levine,  Yi-Pei Li,  You-Sheng Lin,  Fenglai Liu,  
 Kuan-Yu Liu,  E. Livshits,  M. Loipersberger,  A. Luenser,  P. Manohar,  
 E. Mansoor,  S. F. Manzer,  Shan-Ping Mao,  Yuezhi Mao,  N. Mardirossian,  
 A. V. Marenich,  T. Markovich,  L. A. Martinez-Martinez,  S. A. Maurer,  
 N. J. Mayhall,  S. C. McKenzie,  J.-M. Mewes,  P. Morgante,  A. F. Morrison,  
 J. W. Mullinax,  K. Nanda,  T. S. Nguyen-Beck,  R. Olivares-Amaya,  
 J. A. Parkhill,  S. K. Paul,  F. Pavosevic,  Zheng Pei,  T. M. Perrine,  
 F. Plasser,  P. Pokhilko,  S. Prager,  A. Prociuk,  E. Ramos,  B. Rana,  
 D. R. Rehn,  F. Rob,  M. Scheurer,  M. Schneider,  N. Sergueev,  
 S. M. Sharada,  S. Sharma,  D. W. Small,  T. Stauch,  C. J. Stein,  
 T. Stein,  Yu-Chuan Su,  S. P. Veccham,  Zhen Tao,  A. J. W. Thom,  
 A. Tkatchenko,  T. Tsuchimochi,  N. M. Tubman,  L. Vogt,  M. L. Vidal,  
 O. Vydrov,  M. A. Watson,  J. Wenzel,  M. de Wergifosse,  T. A. Wesolowski,  
 A. White,  J. Witte,  A. Yamada,  Jun Yang,  K. Yao,  S. Yeganeh,  
 S. R. Yost,  Zhi-Qiang You,  A. Zech,  Igor Ying Zhang,  Xing Zhang,  
 Yan Zhao,  Ying Zhu,  B. R. Brooks,  G. K. L. Chan,  C. J. Cramer,  
 M. S. Gordon,  W. J. Hehre,  A. Klamt,  M. W. Schmidt,  C. D. Sherrill,  
 D. G. Truhlar,  A. Aspuru-Guzik,  R. Baer,  A. T. Bell,  N. A. Besley,  
 Jeng-Da Chai,  A. E. DePrince, III,  R. A. DiStasio Jr.,  A. Dreuw,  
 B. D. Dunietz,  T. R. Furlani,  Chao-Ping Hsu,  Yousung Jung,  Jing Kong,  
 D. S. Lambrecht,  WanZhen Liang,  C. Ochsenfeld,  V. A. Rassolov,  
 L. V. Slipchenko,  J. E. Subotnik,  T. Van Voorhis,  J. M. Herbert,  
 A. I. Krylov,  P. M. W. Gill,  M. Head-Gordon

 Contributors to earlier versions of Q-Chem not listed above: 
 R. D. Adamson,  B. Austin,  J. Baker,  G. J. O. Beran,  K. Brandhorst,  
 S. T. Brown,  E. F. C. Byrd,  A. K. Chakraborty,  C.-L. Cheng,  
 Siu Hung Chien,  D. M. Chipman,  D. L. Crittenden,  H. Dachsel,  
 R. J. Doerksen,  A. D. Dutoi,  L. Fusti-Molnar,  W. A. Goddard III,  
 A. Golubeva-Zadorozhnaya,  S. R. Gwaltney,  G. Hawkins,  A. Heyden,  
 S. Hirata,  G. Kedziora,  F. J. Keil,  C. Kelley,  Jihan Kim,  R. A. King,  
 R. Z. Khaliullin,  P. P. Korambath,  W. Kurlancheek,  A. M. Lee,  M. S. Lee,  
 S. V. Levchenko,  Ching Yeh Lin,  D. Liotard,  R. C. Lochan,  I. Lotan,  
 P. E. Maslen,  N. Nair,  D. P. O'Neill,  D. Neuhauser,  E. Neuscamman,  
 C. M. Oana,  R. Olson,  B. Peters,  R. Peverati,  P. A. Pieniazek,  
 Y. M. Rhee,  J. Ritchie,  M. A. Rohrdanz,  E. Rosta,  N. J. Russ,  
 H. F. Schaefer III,  N. E. Schultz,  N. Shenvi,  A. C. Simmonett,  A. Sodt,  
 D. Stuck,  K. S. Thanthiriwatte,  V. Vanovschi,  Tao Wang,  A. Warshel,  
 C. F. Williams,  Q. Wu,  X. Xu,  W. Zhang

 Please cite Q-Chem as follows:
 Y. Shao et al., Mol. Phys. 113, 184-215 (2015)
 DOI: 10.1080/00268976.2014.952696

 Q-Chem 5.2.2 for Intel X86 EM64T Linux

 Parts of Q-Chem use Armadillo 9.800.1 (Horizon Scraper).
 http://arma.sourceforge.net/

 Q-Chem begins on Thu Apr  8 15:08:49 2021  

Host: node026
0

     Scratch files written to /home/ymao90/scratch/probe_b3lyp_DMSO20210408150848//
Symmetry turned off for PCM/SM12/SMD calculation

Checking the input file for inconsistencies... 	...done.

--------------------------------------------------------------
User input:
--------------------------------------------------------------
$molecule
0 1
C    0.58000    11.83000   20.41000  
C    0.42000    10.41000   19.83000  
C    1.53000    9.53000    20.44000  
C    1.44000    9.53000    21.98000  
C    1.37000    10.92000   22.65000  
C    0.42000    11.90000   21.94000  
H    1.49000    8.50000    20.05000  
H    -0.52000   10.00000   20.20000  
H    1.40000    12.47000   20.08000  
H    -0.28000   12.43000   20.08000  
H    0.54000    9.00000    22.28000  
H    2.32000    8.99000    22.34000  
H    1.27000    10.83000   23.73000  
H    2.37000    11.32000   22.50000  
H    -0.63000   11.62000   22.11000  
H    0.56000    12.91000   22.33000  
H    2.51000    9.84000    20.07000  
N    0.54000    10.41000   18.38000  
H    1.39000    10.78000   17.99000  
C    -0.47000   10.09000   17.50000  
H    -0.16000   10.30000   16.46000  
O    -1.56000   9.66000    17.84000  
$end

$rem
JOBTYPE  OPT
METHOD  B3LYP
BASIS  6-31+G(D)
SYMMETRY  FALSE
SYM_IGNORE  FALSE
MEM_TOTAL  8000
MEM_STATIC  2000
MAX_SUB_FILE_NUM  16000
BASIS_LIN_DEP_THRESH  6
THRESH  14
SCF_CONVERGENCE  8
GEN_SCFMAN  TRUE
SCF_GUESS  SAD
FD_MAT_VEC_PROD  FALSE
XC_GRID  000099000590
NL_GRID  1
MAX_SCF_CYCLES  200
GEOM_OPT_TOL_GRADIENT  100
GEOM_OPT_TOL_DISPLACEMENT  100
GEOM_OPT_TOL_ENERGY  10
SOLVENT_METHOD       PCM
$end

$PCM
THEORY                     CPCM
METHOD                     SWIG
SOLVER                     INVERSION
HPOINTS                    302
HEAVYPOINTS                302
$END

$SOLVENT
DIELECTRIC                 46.83
$END

--------------------------------------------------------------
 ----------------------------------------------------------------
             Standard Nuclear Orientation (Angstroms)
    I     Atom           X                Y                Z
 ----------------------------------------------------------------
    1      C       0.5800000000    11.8300000000    20.4100000000
    2      C       0.4200000000    10.4100000000    19.8300000000
    3      C       1.5300000000     9.5300000000    20.4400000000
    4      C       1.4400000000     9.5300000000    21.9800000000
    5      C       1.3700000000    10.9200000000    22.6500000000
    6      C       0.4200000000    11.9000000000    21.9400000000
    7      H       1.4900000000     8.5000000000    20.0500000000
    8      H      -0.5200000000    10.0000000000    20.2000000000
    9      H       1.4000000000    12.4700000000    20.0800000000
   10      H      -0.2800000000    12.4300000000    20.0800000000
   11      H       0.5400000000     9.0000000000    22.2800000000
   12      H       2.3200000000     8.9900000000    22.3400000000
   13      H       1.2700000000    10.8300000000    23.7300000000
   14      H       2.3700000000    11.3200000000    22.5000000000
   15      H      -0.6300000000    11.6200000000    22.1100000000
   16      H       0.5600000000    12.9100000000    22.3300000000
   17      H       2.5100000000     9.8400000000    20.0700000000
   18      N       0.5400000000    10.4100000000    18.3800000000
   19      H       1.3900000000    10.7800000000    17.9900000000
   20      C      -0.4700000000    10.0900000000    17.5000000000
   21      H      -0.1600000000    10.3000000000    16.4600000000
   22      O      -1.5600000000     9.6600000000    17.8400000000
 ----------------------------------------------------------------
 Nuclear Repulsion Energy =         465.59151226 hartrees
 There are       35 alpha and       35 beta electrons
 Requested basis set is 6-31+G(d)
 There are 71 shells and 197 basis functions

 Total QAlloc Memory Limit   8000 MB
 Mega-Array Size      1956 MB
 MEM_STATIC part      2000 MB
 Discretize the solute cavity surface with Lebedev spheres
	Using 302 Lebedev grid points for each H atom
	Using 302 Lebedev grid points for other atoms
	Atomic van der Waals radii will be scaled by 1.20
 Remove points where switching function is < 1.0e-08
 Keep 2715 surface tesserae and discard 3929 interior tesserae
 Molecular Surface Area = 182.762 Angst**2
 A cutoff of  1.0D-14 yielded   2410 shell pairs
 There are     18990 function pairs
 Smallest overlap matrix eigenvalue = 2.31E-05

 Scale SEOQF with 1.000000e-01/1.000000e-02/1.000000e-03

 Standard Electronic Orientation quadrupole field applied
 Nucleus-field energy     =     0.0000000281 hartrees
 Guess from superposition of atomic densities
 Warning:  Energy on first SCF cycle will be non-variational
 SAD guess density has 70.000000 electrons

 -----------------------------------------------------------------------
  General SCF calculation program by
  Eric Jon Sundstrom, Paul Horn, Yuezhi Mao, Dmitri Zuev, Alec White,
  David Stuck, Shaama M.S., Shane Yost, Joonho Lee, David Small,
  Daniel Levine, Susi Lehtola, Hugh Burton, Evgeny Epifanovsky,
  Bang C. Huynh
 -----------------------------------------------------------------------
 Exchange:     0.2000 Hartree-Fock + 0.0800 Slater + 0.7200 B88
 Correlation:  0.1900 VWN1RPA + 0.8100 LYP
 Using Euler-Maclaurin-Lebedev (99,590) quadrature formula
 using 16 threads for integral computing
 -------------------------------------------------------
 OpenMP Integral computing Module                
 Release: version 2.0, May 2017, Q-Chem Inc. Pleasanton 
 -------------------------------------------------------
 A restricted SCF calculation will be
 performed using DIIS
 SCF converges when DIIS error is below 1.0e-08
 ---------------------------------------
  Cycle       Energy         DIIS error
 ---------------------------------------
    1    -406.2393373780      5.09e-02  
    2    -404.3914532483      6.42e-03  
    3    -404.1777712029      9.83e-03  
    4    -404.5673723148      1.94e-03  
    5    -404.5814370093      5.32e-04  
    6    -404.5825359555      1.54e-04  
    7    -404.5826284764      5.48e-05  
    8    -404.5826411897      9.69e-06  
    9    -404.5826415808      2.29e-06  
   10    -404.5826416031      5.37e-07  
   11    -404.5826416043      1.84e-07  
   12    -404.5826416044      2.25e-08  
   13    -404.5826416044      5.64e-09  Convergence criterion met
 ---------------------------------------
 SCF time:   CPU 873.31s  wall 66.00s 

************** Final PCM Free Energy Summary **************
 G_electrostatic  =      -0.01809667 hartree =     -11.35583030 kcal/mol
 G_cavitation     =       0.00000000 hartree =       0.00000000 kcal/mol
 G_dispersion     =       0.00000000 hartree =       0.00000000 kcal/mol
 G_repulsion      =       0.00000000 hartree =       0.00000000 kcal/mol
 --------------------------------------------------
 Non-electrostatic Free Energy =       0.00000000 hartree =       0.00000000 kcal/mol
 Total                         =      -0.01809667 hartree =     -11.35583030 kcal/mol
 --------------------------------------------------
 SCF Energy (H0 + V/2)                       =    -404.58264160 
 Solute Internal Energy (H0)                 =    -404.56454494 
 Total Free Energy (H0 + V/2 + non-elec)     =    -404.58264160 hartree
                                             = -253879.43940899 kcal/mol
***********************************************************

 SCF   energy in the final basis set =     -404.5826416044
 Total energy in the final basis set =     -404.5826416044
 
 --------------------------------------------------------------
 
                    Orbital Energies (a.u.)
 --------------------------------------------------------------
 
 Alpha MOs
 -- Occupied --
-19.1406 -14.3681 -10.2971 -10.2277 -10.1798 -10.1796 -10.1795 -10.1770
-10.1737  -1.0509  -0.9294  -0.8208  -0.7420  -0.7396  -0.6386  -0.6101
 -0.5928  -0.5607  -0.5285  -0.4852  -0.4598  -0.4437  -0.4407  -0.4234
 -0.4194  -0.3977  -0.3786  -0.3665  -0.3480  -0.3448  -0.3199  -0.3050
 -0.3034  -0.2765  -0.2564
 -- Virtual --
  0.0051   0.0092   0.0185   0.0247   0.0262   0.0415   0.0492   0.0498
  0.0588   0.0686   0.0706   0.0842   0.0866   0.0967   0.1025   0.1054
  0.1125   0.1167   0.1309   0.1345   0.1409   0.1513   0.1562   0.1647
  0.1710   0.1805   0.1819   0.1864   0.2012   0.2038   0.2099   0.2114
  0.2201   0.2269   0.2334   0.2443   0.2511   0.2561   0.2657   0.2711
  0.2756   0.2793   0.2843   0.2913   0.3024   0.3063   0.3163   0.3275
  0.3350   0.3398   0.3506   0.3750   0.3794   0.3819   0.4163   0.4280
  0.4394   0.4562   0.4861   0.6128   0.6449   0.6612   0.6641   0.6747
  0.6921   0.7050   0.7260   0.7325   0.7485   0.7528   0.7699   0.7787
  0.7952   0.8080   0.8301   0.8395   0.8689   0.8992   0.9506   0.9722
  0.9869   0.9987   1.0257   1.0281   1.0410   1.0619   1.0765   1.1149
  1.1201   1.1284   1.1352   1.1415   1.1457   1.1650   1.1764   1.1921
  1.2389   1.2441   1.2845   1.3158   1.3291   1.3712   1.4091   1.4193
  1.4687   1.4883   1.4962   1.5583   1.5857   1.6172   1.6711   1.7085
  1.7378   1.7596   1.7771   1.7800   1.8253   1.8693   1.8918   1.9010
  1.9231   1.9584   1.9747   2.0056   2.0066   2.0395   2.0722   2.0847
  2.0990   2.1407   2.1873   2.2109   2.2828   2.3035   2.3159   2.3432
  2.3883   2.3974   2.4371   2.4474   2.4616   2.5602   2.5730   2.6125
  2.6791   2.6963   2.7048   2.7523   2.7775   2.8343   2.8739   3.0073
  3.1826   4.0836   4.1857   4.2283   4.2980   4.3454   4.4124   4.5910
  4.6109   4.6594
 --------------------------------------------------------------
 
          Ground-State Mulliken Net Atomic Charges

     Atom                 Charge (a.u.)
  ----------------------------------------
      1 C                    -0.335770
      2 C                    -0.429412
      3 C                    -0.295968
      4 C                    -0.449716
      5 C                    -0.357496
      6 C                    -0.452076
      7 H                     0.209467
      8 H                     0.235839
      9 H                     0.223996
     10 H                     0.210580
     11 H                     0.206202
     12 H                     0.202463
     13 H                     0.201845
     14 H                     0.198815
     15 H                     0.202995
     16 H                     0.207161
     17 H                     0.215083
     18 N                    -0.388900
     19 H                     0.454272
     20 C                     0.342384
     21 H                     0.187970
     22 O                    -0.589733
  ----------------------------------------
  Sum of atomic charges =     0.000000

 -----------------------------------------------------------------
                    Cartesian Multipole Moments
 -----------------------------------------------------------------
    Charge (ESU x 10^10)
                 0.0000
    Dipole Moment (Debye)
         X       5.0586      Y       2.2403      Z       0.7131
       Tot       5.5783
    Quadrupole Moments (Debye-Ang)
        XX     -61.0764     XY      50.4832     YY     -11.3213
        XZ      91.1940     YZ      48.2159     ZZ     -25.5801
    Octopole Moments (Debye-Ang^2)
       XXX     -71.1753    XXY    -634.2315    XYY     477.0595
       YYY   -1092.9799    XXZ   -1221.6316    XYZ     911.2437
       YYZ    -239.9890    XZZ    1616.3859    YZZ     473.5591
       ZZZ   -2441.6432
    Hexadecapole Moments (Debye-Ang^3)
      XXXX    -514.8906   XXXY    -762.9344   XXYY   -6738.2118
      XYYY    4183.7643   YYYY  -28428.8463   XXXZ   -1688.0798
      XXYZ  -12737.2032   XYYZ    8491.9367   YYYZ  -22679.5029
      XXZZ  -24751.1573   XYZZ   16158.9794   YYZZ  -11125.8016
      XZZZ   27746.0627   YZZZ  -12169.5287   ZZZZ -112269.9377
 -----------------------------------------------------------------
 Calculating analytic gradient of the SCF energy
 Gradient of SCF Energy
            1           2           3           4           5           6
    1   0.0280927  -0.0362959  -0.0065891   0.0011693  -0.0258826   0.0074957
    2  -0.0384187  -0.0032105   0.0080188   0.0026020  -0.0026998   0.0209868
    3  -0.0003017  -0.0123531   0.0052792  -0.0022406   0.0178589  -0.0085009
            7           8           9          10          11          12
    1   0.0101840   0.0085773  -0.0111549   0.0023630   0.0031499   0.0044750
    2  -0.0009340  -0.0004862   0.0186672   0.0033378   0.0105544   0.0019483
    3  -0.0046865   0.0136414   0.0036566   0.0088643   0.0002831  -0.0064650
           13          14          15          16          17          18
    1   0.0096098  -0.0069622  -0.0015211   0.0007103   0.0005664   0.0214124
    2  -0.0003496  -0.0077771  -0.0008100  -0.0003330  -0.0100401   0.0018227
    3  -0.0018156  -0.0032632  -0.0080921   0.0036989  -0.0066524   0.0159833
           19          20          21          22
    1   0.0066485  -0.0458606   0.0090570   0.0207551
    2   0.0026249  -0.0198171   0.0066218   0.0076912
    3  -0.0026491  -0.0095509  -0.0030497   0.0003551
 Max gradient component =       4.586E-02
 RMS gradient           =       1.294E-02
 Computing fast CPCM-SWIG gradient
 Updating gradient with PCM contributions...
 -- total gradient after adding PCM contribution --
---------------------------------------------------
  Atom         X              Y              Z     
---------------------------------------------------
   1       0.031337      -0.028881      -0.003619
   2      -0.035305      -0.003199      -0.015072
   3       0.002202       0.006699       0.001006
   4       0.001109      -0.001736       0.001063
   5      -0.019917      -0.001077       0.020780
   6       0.003884       0.024027      -0.005460
   7       0.008994       0.000316      -0.003961
   8       0.006766      -0.001249       0.012057
   9      -0.015293       0.014142       0.005467
  10       0.002902       0.001866       0.008761
  11       0.004727       0.010864      -0.000199
  12       0.001645       0.002915      -0.006855
  13       0.009319      -0.000124      -0.004207
  14      -0.009739      -0.008637      -0.002323
  15       0.000137      -0.000256      -0.007859
  16      -0.000129      -0.003467       0.002676
  17      -0.004674      -0.011486      -0.003962
  18       0.031903       0.007035       0.011950
  19      -0.006544      -0.003238       0.003112
  20      -0.038913      -0.017111      -0.015352
  21       0.004680       0.004502       0.000637
  22       0.020912       0.008098       0.001360
---------------------------------------------------
 Number of fixed atoms: 0
 Gradient time:  CPU 124.46 s  wall 11.45 s
 Geometry Optimization Parameters
   NAtoms,    NIC,     NZ,  NCons,   NDum,   NFix, NCnnct, MaxDiis
       22     172       0       0       0       0       0       0


** GEOMETRY OPTIMIZATION IN DELOCALIZED INTERNAL COORDINATES **
   Searching for a Minimum

   Optimization Cycle:   1

                       Coordinates (Angstroms)
     ATOM                X               Y               Z
      1  C         0.5800000000   11.8300000000   20.4100000000
      2  C         0.4200000000   10.4100000000   19.8300000000
      3  C         1.5300000000    9.5300000000   20.4400000000
      4  C         1.4400000000    9.5300000000   21.9800000000
      5  C         1.3700000000   10.9200000000   22.6500000000
      6  C         0.4200000000   11.9000000000   21.9400000000
      7  H         1.4900000000    8.5000000000   20.0500000000
      8  H        -0.5200000000   10.0000000000   20.2000000000
      9  H         1.4000000000   12.4700000000   20.0800000000
     10  H        -0.2800000000   12.4300000000   20.0800000000
     11  H         0.5400000000    9.0000000000   22.2800000000
     12  H         2.3200000000    8.9900000000   22.3400000000
     13  H         1.2700000000   10.8300000000   23.7300000000
     14  H         2.3700000000   11.3200000000   22.5000000000
     15  H        -0.6300000000   11.6200000000   22.1100000000
     16  H         0.5600000000   12.9100000000   22.3300000000
     17  H         2.5100000000    9.8400000000   20.0700000000
     18  N         0.5400000000   10.4100000000   18.3800000000
     19  H         1.3900000000   10.7800000000   17.9900000000
     20  C        -0.4700000000   10.0900000000   17.5000000000
     21  H        -0.1600000000   10.3000000000   16.4600000000
     22  O        -1.5600000000    9.6600000000   17.8400000000
   Point Group: c1    Number of degrees of freedom:    60


   Energy is   -404.582641604


 Attempting to generate delocalized internal coordinates
 Initial Hessian constructed with Jon Baker's OPTIMIZE code

 60 Hessian modes will be used to form the next step
  Hessian Eigenvalues:
     0.004850    0.005407    0.006560    0.008376    0.012775    0.018054
     0.018651    0.018677    0.019042    0.033610    0.034591    0.037072
     0.041066    0.046592    0.048162    0.049493    0.050142    0.053390
     0.056519    0.060833    0.066651    0.080982    0.082752    0.082982
     0.085572    0.087172    0.089974    0.096067    0.124538    0.124890
     0.139174    0.159119    0.160000    0.162683    0.172956    0.213045
     0.220010    0.220236    0.268980    0.271008    0.272947    0.282129
     0.284145    0.285211    0.330973    0.334522    0.336922    0.337577
     0.344187    0.345335    0.346174    0.346647    0.347861    0.350043
     0.351115    0.351977    0.376029    0.466943    0.496029    0.953470

 Minimum search - taking simple RFO step
 Searching for Lamda that Minimizes Along All modes
 Value Taken    Lamda =  -0.02471023
 Calculated Step too Large.  Step scaled by  0.540275
 Step Taken.  Stepsize is  0.300000

                             Maximum     Tolerance    Cnvgd?
         Gradient           0.023694      0.000100      NO
         Displacement       0.182949      0.000100      NO
         Energy change     *********      0.000000      NO


 New Cartesian Coordinates Obtained by Inverse Iteration

 Displacement from previous Coordinates is:  0.267044
 ----------------------------------------------------------------
             Standard Nuclear Orientation (Angstroms)
    I     Atom           X                Y                Z
 ----------------------------------------------------------------
    1      C       0.5514880259    11.8426042764    20.4041899987
    2      C       0.4305762867    10.4213317237    19.8312104358
    3      C       1.5290625080     9.5322502028    20.4535970204
    4      C       1.4379100185     9.5176723551    21.9896874210
    5      C       1.3994256049    10.9216718439    22.6312405039
    6      C       0.4159526649    11.8824429503    21.9422872010
    7      H       1.4701750404     8.5048675093    20.0608534701
    8      H      -0.5271271927    10.0119838923    20.1567364569
    9      H       1.4044604808    12.4402792861    20.0661281041
   10      H      -0.3040946133    12.4344211012    20.0395312179
   11      H       0.5319494921     8.9811491339    22.2856853575
   12      H       2.3069307035     8.9681579497    22.3671306248
   13      H       1.2804220515    10.8440045592    23.7141336642
   14      H       2.4026209002    11.3384509888    22.4828490127
   15      H      -0.6235163756    11.5916372514    22.1590029465
   16      H       0.5570528985    12.8966996241    22.3256846982
   17      H       2.5170149346     9.8611016249    20.1078439919
   18      N       0.5398974602    10.4257617786    18.3798663007
   19      H       1.3920690759    10.7968857886    17.9838032859
   20      C      -0.4644180816    10.1067066798    17.5096339029
   21      H      -0.1563043639    10.2842069987    16.4643715637
   22      O      -1.5615475193     9.6657124813    17.8345328213
 ----------------------------------------------------------------
 Nuclear Repulsion Energy =         465.45818547 hartrees
 There are       35 alpha and       35 beta electrons
 Discretize the solute cavity surface with Lebedev spheres
	Using 302 Lebedev grid points for each H atom
	Using 302 Lebedev grid points for other atoms
	Atomic van der Waals radii will be scaled by 1.20
 Remove points where switching function is < 1.0e-08
 Keep 2736 surface tesserae and discard 3908 interior tesserae
 Molecular Surface Area = 182.934 Angst**2
 Applying Cartesian multipole field
    Component          Value
    ---------          -----
     (2,0,0)        1.00000E-11
     (0,2,0)        2.00000E-12
     (0,0,2)       -3.00000E-13
 Nucleus-field energy     =     0.0000000281 hartrees
 Requested basis set is 6-31+G(d)
 There are 71 shells and 197 basis functions
 A cutoff of  1.0D-14 yielded   2411 shell pairs
 There are     18991 function pairs
 Smallest overlap matrix eigenvalue = 2.36E-05
 Guess MOs from SCF MO coefficient file

 -----------------------------------------------------------------------
  General SCF calculation program by
  Eric Jon Sundstrom, Paul Horn, Yuezhi Mao, Dmitri Zuev, Alec White,
  David Stuck, Shaama M.S., Shane Yost, Joonho Lee, David Small,
  Daniel Levine, Susi Lehtola, Hugh Burton, Evgeny Epifanovsky,
  Bang C. Huynh
 -----------------------------------------------------------------------
 Exchange:     0.2000 Hartree-Fock + 0.0800 Slater + 0.7200 B88
 Correlation:  0.1900 VWN1RPA + 0.8100 LYP
 Using Euler-Maclaurin-Lebedev (99,590) quadrature formula
 using 16 threads for integral computing
 -------------------------------------------------------
 OpenMP Integral computing Module                
 Release: version 2.0, May 2017, Q-Chem Inc. Pleasanton 
 -------------------------------------------------------
 A restricted SCF calculation will be
 performed using Roothaan-Hall, DIIS
 SCF converges when DIIS error is below 1.0e-08
 ---------------------------------------
  Cycle       Energy         DIIS error
 ---------------------------------------
    1    -404.5736314998      7.28e-04  Roothaan Step
 ---------------------------------------
  Cycle       Energy         DIIS error
 ---------------------------------------
    1    -404.5826031462      1.24e-03  
    2    -404.5660989946      2.68e-03  
    3    -404.5932207545      2.09e-04  
    4    -404.5933759098      1.22e-04  
    5    -404.5934334186      3.58e-05  
    6    -404.5934387076      9.36e-06  
    7    -404.5934390568      2.95e-06  
    8    -404.5934390984      5.50e-07  
    9    -404.5934390997      2.45e-07  
   10    -404.5934391000      4.47e-08  
   11    -404.5934391000      1.32e-08  
   12    -404.5934391000      3.03e-09  Convergence criterion met
 ---------------------------------------
 SCF time:   CPU 863.51s  wall 60.00s 

************** Final PCM Free Energy Summary **************
 G_electrostatic  =      -0.01858664 hartree =     -11.66329249 kcal/mol
 G_cavitation     =       0.00000000 hartree =       0.00000000 kcal/mol
 G_dispersion     =       0.00000000 hartree =       0.00000000 kcal/mol
 G_repulsion      =       0.00000000 hartree =       0.00000000 kcal/mol
 --------------------------------------------------
 Non-electrostatic Free Energy =       0.00000000 hartree =       0.00000000 kcal/mol
 Total                         =      -0.01858664 hartree =     -11.66329249 kcal/mol
 --------------------------------------------------
 SCF Energy (H0 + V/2)                       =    -404.59343910 
 Solute Internal Energy (H0)                 =    -404.57485246 
 Total Free Energy (H0 + V/2 + non-elec)     =    -404.59343910 hartree
                                             = -253886.21493971 kcal/mol
***********************************************************

 SCF   energy in the final basis set =     -404.5934391000
 Total energy in the final basis set =     -404.5934391000
 
 --------------------------------------------------------------
 
                    Orbital Energies (a.u.)
 --------------------------------------------------------------
 
 Alpha MOs
 -- Occupied --
-19.1390 -14.3697 -10.2962 -10.2264 -10.1811 -10.1807 -10.1799 -10.1783
-10.1757  -1.0472  -0.9313  -0.8208  -0.7409  -0.7404  -0.6381  -0.6106
 -0.5924  -0.5609  -0.5271  -0.4848  -0.4593  -0.4428  -0.4390  -0.4216
 -0.4194  -0.3963  -0.3780  -0.3699  -0.3476  -0.3438  -0.3193  -0.3084
 -0.3062  -0.2750  -0.2584
 -- Virtual --
  0.0058   0.0094   0.0183   0.0244   0.0262   0.0414   0.0492   0.0493
  0.0590   0.0687   0.0707   0.0843   0.0868   0.0970   0.1020   0.1053
  0.1123   0.1168   0.1293   0.1343   0.1411   0.1516   0.1561   0.1633
  0.1709   0.1803   0.1818   0.1868   0.2012   0.2028   0.2107   0.2111
  0.2215   0.2273   0.2328   0.2457   0.2506   0.2562   0.2647   0.2719
  0.2760   0.2806   0.2843   0.2903   0.3022   0.3047   0.3153   0.3269
  0.3341   0.3364   0.3527   0.3752   0.3803   0.3834   0.4168   0.4245
  0.4390   0.4549   0.4845   0.6112   0.6433   0.6605   0.6644   0.6729
  0.6894   0.7028   0.7265   0.7320   0.7483   0.7525   0.7712   0.7789
  0.7968   0.8062   0.8270   0.8389   0.8650   0.9035   0.9518   0.9733
  0.9849   0.9966   1.0236   1.0282   1.0379   1.0603   1.0788   1.1109
  1.1201   1.1271   1.1309   1.1418   1.1574   1.1682   1.1784   1.1861
  1.2411   1.2428   1.2822   1.3184   1.3291   1.3696   1.4115   1.4136
  1.4653   1.4875   1.4953   1.5600   1.5840   1.6190   1.6816   1.7189
  1.7370   1.7595   1.7739   1.7844   1.8275   1.8683   1.8980   1.9027
  1.9212   1.9478   1.9736   1.9992   2.0089   2.0388   2.0691   2.0840
  2.1078   2.1242   2.1934   2.2089   2.2801   2.3034   2.3127   2.3437
  2.3955   2.3996   2.4293   2.4329   2.4546   2.5588   2.5750   2.6157
  2.6844   2.6904   2.7027   2.7540   2.7735   2.8368   2.8691   3.0019
  3.1837   4.0865   4.1869   4.2274   4.2961   4.3410   4.4138   4.5952
  4.6070   4.6636
 --------------------------------------------------------------
 
          Ground-State Mulliken Net Atomic Charges

     Atom                 Charge (a.u.)
  ----------------------------------------
      1 C                    -0.320663
      2 C                    -0.415744
      3 C                    -0.302043
      4 C                    -0.449781
      5 C                    -0.364472
      6 C                    -0.454359
      7 H                     0.209550
      8 H                     0.231931
      9 H                     0.220339
     10 H                     0.209588
     11 H                     0.206304
     12 H                     0.203238
     13 H                     0.200791
     14 H                     0.199518
     15 H                     0.204501
     16 H                     0.205767
     17 H                     0.214066
     18 N                    -0.384638
     19 H                     0.453734
     20 C                     0.345387
     21 H                     0.186047
     22 O                    -0.599063
  ----------------------------------------
  Sum of atomic charges =     0.000000

 -----------------------------------------------------------------
                    Cartesian Multipole Moments
 -----------------------------------------------------------------
    Charge (ESU x 10^10)
                 0.0000
    Dipole Moment (Debye)
         X       5.1901      Y       2.2419      Z       0.8522
       Tot       5.7175
    Quadrupole Moments (Debye-Ang)
        XX     -61.1156     XY      51.8483     YY     -11.3413
        XZ      93.6741     YZ      49.4486     ZZ     -20.2595
    Octopole Moments (Debye-Ang^2)
       XXX     -70.7969    XXY    -634.3144    XYY     491.1471
       YYY   -1095.5523    XXZ   -1221.8848    XYZ     936.9203
       YYZ    -230.4850    XZZ    1663.6210    YZZ     519.4864
       ZZZ   -2287.9327
    Hexadecapole Moments (Debye-Ang^3)
      XXXX    -517.2697   XXXY    -757.3370   XXYY   -6735.9888
      XYYY    4327.5916   YYYY  -28516.1185   XXXZ   -1681.9010
      XXYZ  -12732.4590   XYYZ    8755.7308   YYYZ  -22653.6993
      XXZZ  -24746.1484   XYZZ   16645.8967   YYZZ  -10767.8134
      XZZZ   28651.7029   YZZZ  -10864.0995   ZZZZ -108296.9244
 -----------------------------------------------------------------
 Calculating analytic gradient of the SCF energy
 Gradient of SCF Energy
            1           2           3           4           5           6
    1   0.0186691  -0.0233445  -0.0091022   0.0013158  -0.0210123   0.0058247
    2  -0.0301929  -0.0006517   0.0066286   0.0014539  -0.0020624   0.0115441
    3   0.0000510  -0.0102322   0.0079986  -0.0031527   0.0103379  -0.0046018
            7           8           9          10          11          12
    1   0.0069016   0.0064406  -0.0054183  -0.0002406   0.0004265   0.0044459
    2  -0.0021090   0.0007628   0.0148266   0.0037772   0.0044505   0.0011625
    3  -0.0027350   0.0098894  -0.0001238   0.0038375   0.0001122  -0.0034061
           13          14          15          16          17          18
    1   0.0066211  -0.0007510  -0.0024516   0.0013678   0.0036542   0.0095630
    2  -0.0010201  -0.0026623  -0.0006707   0.0005871  -0.0055729  -0.0012843
    3   0.0001239  -0.0022677  -0.0043650   0.0024442  -0.0054884   0.0127429
           19          20          21          22
    1   0.0103319  -0.0350682   0.0078801   0.0139461
    2   0.0043433  -0.0111288   0.0039569   0.0038613
    3  -0.0036952  -0.0037927  -0.0030144  -0.0006627
 Max gradient component =       3.507E-02
 RMS gradient           =       9.221E-03
 Computing fast CPCM-SWIG gradient
 Updating gradient with PCM contributions...
 -- total gradient after adding PCM contribution --
---------------------------------------------------
  Atom         X              Y              Z     
---------------------------------------------------
   1       0.022746      -0.021434      -0.003782
   2      -0.022624      -0.000753      -0.013144
   3      -0.000146       0.005487       0.003905
   4       0.001284      -0.003254       0.000301
   5      -0.015046      -0.000102       0.013542
   6       0.002098       0.014811      -0.001446
   7       0.005924      -0.000663      -0.002093
   8       0.004425      -0.000097       0.008386
   9      -0.010116       0.010855       0.002002
  10       0.000372       0.002312       0.004054
  11       0.002065       0.005011      -0.000380
  12       0.001576       0.002249      -0.004004
  13       0.006493      -0.000801      -0.002317
  14      -0.003834      -0.003805      -0.001355
  15      -0.000764      -0.000066      -0.004426
  16       0.000482      -0.002468       0.001501
  17      -0.001734      -0.007399      -0.003042
  18       0.020293       0.004063       0.008888
  19      -0.003062      -0.001643       0.002049
  20      -0.028058      -0.008504      -0.009300
  21       0.003472       0.001975       0.000488
  22       0.014156       0.004226       0.000173
---------------------------------------------------
 Number of fixed atoms: 0
 Gradient time:  CPU 126.73 s  wall 12.60 s
 Geometry Optimization Parameters
   NAtoms,    NIC,     NZ,  NCons,   NDum,   NFix, NCnnct, MaxDiis
       22     172       0       0       0       0       0       0

 Cartesian Hessian Update
 Hessian updated using BFGS update


** GEOMETRY OPTIMIZATION IN DELOCALIZED INTERNAL COORDINATES **
   Searching for a Minimum

   Optimization Cycle:   2

                       Coordinates (Angstroms)
     ATOM                X               Y               Z
      1  C         0.5514880259   11.8426042764   20.4041899987
      2  C         0.4305762867   10.4213317237   19.8312104358
      3  C         1.5290625080    9.5322502028   20.4535970204
      4  C         1.4379100185    9.5176723551   21.9896874210
      5  C         1.3994256049   10.9216718439   22.6312405039
      6  C         0.4159526649   11.8824429503   21.9422872010
      7  H         1.4701750404    8.5048675093   20.0608534701
      8  H        -0.5271271927   10.0119838923   20.1567364569
      9  H         1.4044604808   12.4402792861   20.0661281041
     10  H        -0.3040946133   12.4344211012   20.0395312179
     11  H         0.5319494921    8.9811491339   22.2856853575
     12  H         2.3069307035    8.9681579497   22.3671306248
     13  H         1.2804220515   10.8440045592   23.7141336642
     14  H         2.4026209002   11.3384509888   22.4828490127
     15  H        -0.6235163756   11.5916372514   22.1590029465
     16  H         0.5570528985   12.8966996241   22.3256846982
     17  H         2.5170149346    9.8611016249   20.1078439919
     18  N         0.5398974602   10.4257617786   18.3798663007
     19  H         1.3920690759   10.7968857886   17.9838032859
     20  C        -0.4644180816   10.1067066798   17.5096339029
     21  H        -0.1563043639   10.2842069987   16.4643715637
     22  O        -1.5615475193    9.6657124813   17.8345328213
   Point Group: c1    Number of degrees of freedom:    60


   Energy is   -404.593439100

 Hessian updated using BFGS update

 60 Hessian modes will be used to form the next step
  Hessian Eigenvalues:
     0.004847    0.005414    0.006557    0.008377    0.012772    0.017374
     0.018564    0.018771    0.019914    0.033191    0.035896    0.037093
     0.041539    0.046154    0.047340    0.049690    0.051186    0.053458
     0.057145    0.060705    0.066925    0.080926    0.082137    0.083335
     0.084317    0.087371    0.090015    0.093100    0.123593    0.125504
     0.139275    0.158063    0.159329    0.162701    0.178970    0.211984
     0.220070    0.220299    0.269244    0.272586    0.275325    0.281713
     0.284849    0.286891    0.330947    0.334419    0.336965    0.338685
     0.344130    0.345322    0.345897    0.346580    0.347707    0.349712
     0.351686    0.356312    0.376841    0.465961    0.484104    0.939161

 Minimum search - taking simple RFO step
 Searching for Lamda that Minimizes Along All modes
 Value Taken    Lamda =  -0.01337593
 Calculated Step too Large.  Step scaled by  0.584266
 Step Taken.  Stepsize is  0.300000

                             Maximum     Tolerance    Cnvgd?
         Gradient           0.015933      0.000100      NO
         Displacement       0.164898      0.000100      NO
         Energy change     -0.010797      0.000000      NO


 New Cartesian Coordinates Obtained by Inverse Iteration

 Displacement from previous Coordinates is:  0.250641
 ----------------------------------------------------------------
             Standard Nuclear Orientation (Angstroms)
    I     Atom           X                Y                Z
 ----------------------------------------------------------------
    1      C       0.5195414688    11.8493351160    20.4053232695
    2      C       0.4370808813    10.4243989162    19.8372967048
    3      C       1.5285673517     9.5340887215    20.4607097527
    4      C       1.4357468059     9.5141482867    21.9942438747
    5      C       1.4275681199    10.9262274312    22.6089203524
    6      C       0.4122676984    11.8676776483    21.9432117662
    7      H       1.4524384659     8.5126824967    20.0602803744
    8      H      -0.5335376062    10.0059741530    20.1165298165
    9      H       1.4089880214    12.3986738157    20.0701745476
   10      H      -0.3289594303    12.4334410822    20.0156021187
   11      H       0.5223658489     8.9837987538    22.2935806046
   12      H       2.2899430398     8.9501806094    22.3878748402
   13      H       1.2899437472    10.8671294967    23.6942389566
   14      H       2.4316317769    11.3495509873    22.4560988714
   15      H      -0.6135573686    11.5641857172    22.2018572800
   16      H       0.5501635153    12.8876415330    22.3190562899
   17      H       2.5187470578     9.8863332756    20.1363347690
   18      N       0.5452687586    10.4291430650    18.3829654770
   19      H       1.3974801351    10.8035528481    17.9819518084
   20      C      -0.4435620883    10.0998311262    17.5188407021
   21      H      -0.1536263548    10.2884579680    16.4713100607
   22      O      -1.5644998448     9.6935469521    17.8335977626
 ----------------------------------------------------------------
 Nuclear Repulsion Energy =         465.99889957 hartrees
 There are       35 alpha and       35 beta electrons
 Discretize the solute cavity surface with Lebedev spheres
	Using 302 Lebedev grid points for each H atom
	Using 302 Lebedev grid points for other atoms
	Atomic van der Waals radii will be scaled by 1.20
 Remove points where switching function is < 1.0e-08
 Keep 2747 surface tesserae and discard 3897 interior tesserae
 Molecular Surface Area = 182.744 Angst**2
 Applying Cartesian multipole field
    Component          Value
    ---------          -----
     (2,0,0)        1.00000E-11
     (0,2,0)        2.00000E-12
     (0,0,2)       -3.00000E-13
 Nucleus-field energy     =     0.0000000281 hartrees
 Requested basis set is 6-31+G(d)
 There are 71 shells and 197 basis functions
 A cutoff of  1.0D-14 yielded   2411 shell pairs
 There are     18991 function pairs
 Smallest overlap matrix eigenvalue = 2.39E-05
 Guess MOs from SCF MO coefficient file

 -----------------------------------------------------------------------
  General SCF calculation program by
  Eric Jon Sundstrom, Paul Horn, Yuezhi Mao, Dmitri Zuev, Alec White,
  David Stuck, Shaama M.S., Shane Yost, Joonho Lee, David Small,
  Daniel Levine, Susi Lehtola, Hugh Burton, Evgeny Epifanovsky,
  Bang C. Huynh
 -----------------------------------------------------------------------
 Exchange:     0.2000 Hartree-Fock + 0.0800 Slater + 0.7200 B88
 Correlation:  0.1900 VWN1RPA + 0.8100 LYP
 Using Euler-Maclaurin-Lebedev (99,590) quadrature formula
 using 16 threads for integral computing
 -------------------------------------------------------
 OpenMP Integral computing Module                
 Release: version 2.0, May 2017, Q-Chem Inc. Pleasanton 
 -------------------------------------------------------
 A restricted SCF calculation will be
 performed using Roothaan-Hall, DIIS
 SCF converges when DIIS error is below 1.0e-08
 ---------------------------------------
  Cycle       Energy         DIIS error
 ---------------------------------------
    1    -404.5782789493      7.76e-04  Roothaan Step
 ---------------------------------------
  Cycle       Energy         DIIS error
 ---------------------------------------
    1    -404.5876717784      1.29e-03  
    2    -404.5698049715      2.78e-03  
    3    -404.5989823354      2.18e-04  
    4    -404.5991508377      1.26e-04  
    5    -404.5992122322      3.66e-05  
    6    -404.5992177874      9.41e-06  
    7    -404.5992181319      3.17e-06  
    8    -404.5992181799      5.76e-07  
    9    -404.5992181813      2.52e-07  
   10    -404.5992181816      4.57e-08  
   11    -404.5992181816      1.28e-08  
   12    -404.5992181816      3.10e-09  Convergence criterion met
 ---------------------------------------
 SCF time:   CPU 889.86s  wall 61.00s 

************** Final PCM Free Energy Summary **************
 G_electrostatic  =      -0.01922665 hartree =     -12.06490335 kcal/mol
 G_cavitation     =       0.00000000 hartree =       0.00000000 kcal/mol
 G_dispersion     =       0.00000000 hartree =       0.00000000 kcal/mol
 G_repulsion      =       0.00000000 hartree =       0.00000000 kcal/mol
 --------------------------------------------------
 Non-electrostatic Free Energy =       0.00000000 hartree =       0.00000000 kcal/mol
 Total                         =      -0.01922665 hartree =     -12.06490335 kcal/mol
 --------------------------------------------------
 SCF Energy (H0 + V/2)                       =    -404.59921818 
 Solute Internal Energy (H0)                 =    -404.57999153 
 Total Free Energy (H0 + V/2 + non-elec)     =    -404.59921818 hartree
                                             = -253889.84136815 kcal/mol
***********************************************************

 SCF   energy in the final basis set =     -404.5992181816
 Total energy in the final basis set =     -404.5992181816
 
 --------------------------------------------------------------
 
                    Orbital Energies (a.u.)
 --------------------------------------------------------------
 
 Alpha MOs
 -- Occupied --
-19.1368 -14.3708 -10.2949 -10.2254 -10.1817 -10.1812 -10.1797 -10.1789
-10.1768  -1.0432  -0.9330  -0.8223  -0.7419  -0.7410  -0.6378  -0.6111
 -0.5921  -0.5613  -0.5263  -0.4845  -0.4596  -0.4427  -0.4382  -0.4208
 -0.4187  -0.3956  -0.3775  -0.3727  -0.3469  -0.3436  -0.3193  -0.3102
 -0.3084  -0.2731  -0.2597
 -- Virtual --
  0.0074   0.0087   0.0180   0.0241   0.0262   0.0415   0.0488   0.0493
  0.0593   0.0690   0.0706   0.0844   0.0870   0.0968   0.1015   0.1055
  0.1124   0.1172   0.1280   0.1342   0.1412   0.1519   0.1563   0.1626
  0.1707   0.1804   0.1820   0.1876   0.2002   0.2029   0.2105   0.2126
  0.2226   0.2271   0.2324   0.2464   0.2498   0.2560   0.2647   0.2720
  0.2768   0.2824   0.2849   0.2912   0.2999   0.3044   0.3148   0.3269
  0.3327   0.3346   0.3559   0.3747   0.3827   0.3858   0.4175   0.4223
  0.4399   0.4552   0.4837   0.6103   0.6417   0.6597   0.6648   0.6711
  0.6878   0.7014   0.7279   0.7327   0.7447   0.7552   0.7730   0.7795
  0.7982   0.8057   0.8246   0.8402   0.8637   0.9068   0.9531   0.9749
  0.9828   0.9947   1.0222   1.0284   1.0339   1.0589   1.0826   1.1072
  1.1208   1.1252   1.1294   1.1420   1.1650   1.1726   1.1818   1.1853
  1.2396   1.2452   1.2809   1.3203   1.3324   1.3721   1.4039   1.4146
  1.4713   1.4869   1.4902   1.5620   1.5847   1.6201   1.6883   1.7273
  1.7408   1.7592   1.7689   1.7923   1.8334   1.8717   1.9026   1.9100
  1.9187   1.9400   1.9723   2.0043   2.0098   2.0419   2.0648   2.0856
  2.1141   2.1186   2.2002   2.2104   2.2800   2.3008   2.3204   2.3422
  2.3994   2.4092   2.4211   2.4250   2.4506   2.5592   2.5800   2.6195
  2.6846   2.6889   2.7044   2.7565   2.7766   2.8385   2.8669   2.9970
  3.1865   4.0909   4.1901   4.2289   4.2968   4.3383   4.4142   4.6001
  4.6053   4.6676
 --------------------------------------------------------------
 
          Ground-State Mulliken Net Atomic Charges

     Atom                 Charge (a.u.)
  ----------------------------------------
      1 C                    -0.305936
      2 C                    -0.410000
      3 C                    -0.297455
      4 C                    -0.452628
      5 C                    -0.370896
      6 C                    -0.457723
      7 H                     0.210213
      8 H                     0.229248
      9 H                     0.217212
     10 H                     0.209908
     11 H                     0.206573
     12 H                     0.203615
     13 H                     0.199996
     14 H                     0.201040
     15 H                     0.205988
     16 H                     0.204845
     17 H                     0.213874
     18 N                    -0.381342
     19 H                     0.453271
     20 C                     0.345223
     21 H                     0.185011
     22 O                    -0.610038
  ----------------------------------------
  Sum of atomic charges =     0.000000

 -----------------------------------------------------------------
                    Cartesian Multipole Moments
 -----------------------------------------------------------------
    Charge (ESU x 10^10)
                 0.0000
    Dipole Moment (Debye)
         X       5.3509      Y       2.1891      Z       0.9880
       Tot       5.8652
    Quadrupole Moments (Debye-Ang)
        XX     -61.2117     XY      53.6013     YY     -12.3786
        XZ      96.6516     YZ      49.7914     ZZ     -15.0771
    Octopole Moments (Debye-Ang^2)
       XXX     -70.3827    XXY    -635.0723    XYY     509.8603
       YYY   -1111.8980    XXZ   -1223.2261    XYZ     969.3017
       YYZ    -237.0332    XZZ    1718.9041    YZZ     551.4529
       ZZZ   -2138.8100
    Hexadecapole Moments (Debye-Ang^3)
      XXXX    -518.9204   XXXY    -750.7513   XXYY   -6741.1906
      XYYY    4523.4251   YYYY  -28758.8856   XXXZ   -1674.0373
      XXYZ  -12740.7214   XYYZ    9100.5819   YYYZ  -22838.3092
      XXZZ  -24762.0139   XYZZ   17245.7401   YYZZ  -10645.9138
      XZZZ   29679.7319   YZZZ   -9766.8505   ZZZZ -104458.3958
 -----------------------------------------------------------------
 Calculating analytic gradient of the SCF energy
 Gradient of SCF Energy
            1           2           3           4           5           6
    1   0.0072497  -0.0108084  -0.0105779   0.0009015  -0.0151650   0.0050925
    2  -0.0202195   0.0007225   0.0044906   0.0033478  -0.0027188   0.0035164
    3   0.0024290  -0.0052921   0.0072162  -0.0041595   0.0027189  -0.0034973
            7           8           9          10          11          12
    1   0.0035536   0.0042265   0.0001999  -0.0014382  -0.0007929   0.0040369
    2  -0.0021401   0.0011011   0.0097501   0.0028283   0.0009620   0.0002873
    3  -0.0018463   0.0061548  -0.0015566   0.0014851   0.0005394  -0.0011351
           13          14          15          16          17          18
    1   0.0030466   0.0025634  -0.0023412   0.0017213   0.0054071  -0.0026181
    2  -0.0006833  -0.0003039  -0.0003671   0.0019001  -0.0014945  -0.0032849
    3   0.0017091  -0.0016563  -0.0021459   0.0014376  -0.0040209   0.0088423
           19          20          21          22
    1   0.0122399  -0.0177748   0.0051349   0.0061428
    2   0.0061522  -0.0138033   0.0056280   0.0043291
    3  -0.0049468   0.0012534  -0.0028403  -0.0006887
 Max gradient component =       2.022E-02
 RMS gradient           =       5.975E-03
 Computing fast CPCM-SWIG gradient
 Updating gradient with PCM contributions...
 -- total gradient after adding PCM contribution --
---------------------------------------------------
  Atom         X              Y              Z     
---------------------------------------------------
   1       0.012208      -0.012327      -0.001728
   2      -0.010390       0.000586      -0.008455
   3      -0.001280       0.003543       0.003215
   4       0.000794      -0.001794      -0.000450
   5      -0.009134      -0.000401       0.006143
   6       0.001199       0.006994      -0.000188
   7       0.002799      -0.000445      -0.001160
   8       0.001947       0.000199       0.004705
   9      -0.005106       0.006444       0.000652
  10      -0.000766       0.001381       0.001875
  11       0.000917       0.001680      -0.000005
  12       0.001161       0.001501      -0.001906
  13       0.003134      -0.000525      -0.000788
  14      -0.000863      -0.001648      -0.000695
  15      -0.000650       0.000287      -0.002456
  16       0.000809      -0.001129       0.000568
  17      -0.000178      -0.003763      -0.001757
  18       0.008232       0.002228       0.005077
  19      -0.001315      -0.000021       0.000813
  20      -0.010722      -0.011243      -0.003978
  21       0.000710       0.003633       0.000499
  22       0.006495       0.004819       0.000020
---------------------------------------------------
 Number of fixed atoms: 0
 Gradient time:  CPU 124.28 s  wall 11.51 s
 Geometry Optimization Parameters
   NAtoms,    NIC,     NZ,  NCons,   NDum,   NFix, NCnnct, MaxDiis
       22     172       0       0       0       0       0       0

 Cartesian Hessian Update
 Hessian updated using BFGS update


** GEOMETRY OPTIMIZATION IN DELOCALIZED INTERNAL COORDINATES **
   Searching for a Minimum

   Optimization Cycle:   3

                       Coordinates (Angstroms)
     ATOM                X               Y               Z
      1  C         0.5195414688   11.8493351160   20.4053232695
      2  C         0.4370808813   10.4243989162   19.8372967048
      3  C         1.5285673517    9.5340887215   20.4607097527
      4  C         1.4357468059    9.5141482867   21.9942438747
      5  C         1.4275681199   10.9262274312   22.6089203524
      6  C         0.4122676984   11.8676776483   21.9432117662
      7  H         1.4524384659    8.5126824967   20.0602803744
      8  H        -0.5335376062   10.0059741530   20.1165298165
      9  H         1.4089880214   12.3986738157   20.0701745476
     10  H        -0.3289594303   12.4334410822   20.0156021187
     11  H         0.5223658489    8.9837987538   22.2935806046
     12  H         2.2899430398    8.9501806094   22.3878748402
     13  H         1.2899437472   10.8671294967   23.6942389566
     14  H         2.4316317769   11.3495509873   22.4560988714
     15  H        -0.6135573686   11.5641857172   22.2018572800
     16  H         0.5501635153   12.8876415330   22.3190562899
     17  H         2.5187470578    9.8863332756   20.1363347690
     18  N         0.5452687586   10.4291430650   18.3829654770
     19  H         1.3974801351   10.8035528481   17.9819518084
     20  C        -0.4435620883   10.0998311262   17.5188407021
     21  H        -0.1536263548   10.2884579680   16.4713100607
     22  O        -1.5644998448    9.6935469521   17.8335977626
   Point Group: c1    Number of degrees of freedom:    60


   Energy is   -404.599218182

 Hessian updated using BFGS update

 60 Hessian modes will be used to form the next step
  Hessian Eigenvalues:
     0.004843    0.005405    0.006547    0.008377    0.012663    0.016747
     0.018531    0.018733    0.023168    0.034583    0.037047    0.037230
     0.043520    0.046561    0.048102    0.049740    0.051240    0.053384
     0.056991    0.060514    0.066950    0.080794    0.081183    0.083208
     0.084010    0.087331    0.090065    0.092080    0.123455    0.125697
     0.139232    0.157395    0.159284    0.162698    0.178152    0.211950
     0.219777    0.220264    0.269142    0.272583    0.275484    0.282038
     0.284849    0.287130    0.330931    0.334339    0.336977    0.338485
     0.344095    0.345416    0.345834    0.346545    0.347715    0.349701
     0.351656    0.356949    0.377533    0.466078    0.483445    0.931525

 Minimum search - taking simple RFO step
 Searching for Lamda that Minimizes Along All modes
 Value Taken    Lamda =  -0.00718058
 Calculated Step too Large.  Step scaled by  0.580113
 Step Taken.  Stepsize is  0.300000

                             Maximum     Tolerance    Cnvgd?
         Gradient           0.007790      0.000100      NO
         Displacement       0.131763      0.000100      NO
         Energy change     -0.005779      0.000000      NO


 New Cartesian Coordinates Obtained by Inverse Iteration

 Displacement from previous Coordinates is:  0.309842
 ----------------------------------------------------------------
             Standard Nuclear Orientation (Angstroms)
    I     Atom           X                Y                Z
 ----------------------------------------------------------------
    1      C       0.4966006366    11.8650821357    20.4181320197
    2      C       0.4317585459    10.4406812136    19.8435494071
    3      C       1.5170714404     9.5410931244    20.4563544122
    4      C       1.4275358786     9.5136850241    21.9894337053
    5      C       1.4553599405    10.9274379969    22.5915787838
    6      C       0.4146675876    11.8596261942    21.9545267622
    7      H       1.4225820163     8.5273451669    20.0451085098
    8      H      -0.5481119267    10.0161475183    20.0849650248
    9      H       1.4185101899    12.3674302795    20.0911011455
   10      H      -0.3392733058    12.4531170970    20.0145602219
   11      H       0.5032845157     9.0001869586    22.2921322547
   12      H       2.2637511685     8.9262071624    22.3897704621
   13      H       1.3104683280    10.8785939139    23.6786322833
   14      H       2.4588785069    11.3511363090    22.4300595437
   15      H      -0.5976697944    11.5437055398    22.2473540135
   16      H       0.5496412054    12.8811709936    22.3320808579
   17      H       2.5075843491     9.9085011010    20.1465359119
   18      N       0.5385766595    10.4586612601    18.3848747912
   19      H       1.3948992268    10.8269732897    17.9826299148
   20      C      -0.4375265092    10.1238776181    17.5221851854
   21      H      -0.1214581933    10.2196895465    16.4702135932
   22      O      -1.5371304665     9.6396505569    17.8242211961
 ----------------------------------------------------------------
 Nuclear Repulsion Energy =         466.34282636 hartrees
 There are       35 alpha and       35 beta electrons
 Discretize the solute cavity surface with Lebedev spheres
	Using 302 Lebedev grid points for each H atom
	Using 302 Lebedev grid points for other atoms
	Atomic van der Waals radii will be scaled by 1.20
 Remove points where switching function is < 1.0e-08
 Keep 2748 surface tesserae and discard 3896 interior tesserae
 Molecular Surface Area = 182.655 Angst**2
 Applying Cartesian multipole field
    Component          Value
    ---------          -----
     (2,0,0)        1.00000E-11
     (0,2,0)        2.00000E-12
     (0,0,2)       -3.00000E-13
 Nucleus-field energy     =     0.0000000281 hartrees
 Requested basis set is 6-31+G(d)
 There are 71 shells and 197 basis functions
 A cutoff of  1.0D-14 yielded   2412 shell pairs
 There are     18992 function pairs
 Smallest overlap matrix eigenvalue = 2.42E-05
 Guess MOs from SCF MO coefficient file

 -----------------------------------------------------------------------
  General SCF calculation program by
  Eric Jon Sundstrom, Paul Horn, Yuezhi Mao, Dmitri Zuev, Alec White,
  David Stuck, Shaama M.S., Shane Yost, Joonho Lee, David Small,
  Daniel Levine, Susi Lehtola, Hugh Burton, Evgeny Epifanovsky,
  Bang C. Huynh
 -----------------------------------------------------------------------
 Exchange:     0.2000 Hartree-Fock + 0.0800 Slater + 0.7200 B88
 Correlation:  0.1900 VWN1RPA + 0.8100 LYP
 Using Euler-Maclaurin-Lebedev (99,590) quadrature formula
 using 16 threads for integral computing
 -------------------------------------------------------
 OpenMP Integral computing Module                
 Release: version 2.0, May 2017, Q-Chem Inc. Pleasanton 
 -------------------------------------------------------
 A restricted SCF calculation will be
 performed using Roothaan-Hall, DIIS
 SCF converges when DIIS error is below 1.0e-08
 ---------------------------------------
  Cycle       Energy         DIIS error
 ---------------------------------------
    1    -404.5774306663      9.22e-04  Roothaan Step
 ---------------------------------------
  Cycle       Energy         DIIS error
 ---------------------------------------
    1    -404.5889314423      1.32e-03  
    2    -404.5700892402      2.85e-03  
    3    -404.6008368822      2.24e-04  
    4    -404.6010161134      1.29e-04  
    5    -404.6010807256      3.76e-05  
    6    -404.6010866129      9.55e-06  
    7    -404.6010869636      3.33e-06  
    8    -404.6010870169      5.96e-07  
    9    -404.6010870184      2.60e-07  
   10    -404.6010870187      4.73e-08  
   11    -404.6010870187      1.24e-08  
   12    -404.6010870187      3.27e-09  Convergence criterion met
 ---------------------------------------
 SCF time:   CPU 879.64s  wall 59.00s 

************** Final PCM Free Energy Summary **************
 G_electrostatic  =      -0.01978945 hartree =     -12.41806448 kcal/mol
 G_cavitation     =       0.00000000 hartree =       0.00000000 kcal/mol
 G_dispersion     =       0.00000000 hartree =       0.00000000 kcal/mol
 G_repulsion      =       0.00000000 hartree =       0.00000000 kcal/mol
 --------------------------------------------------
 Non-electrostatic Free Energy =       0.00000000 hartree =       0.00000000 kcal/mol
 Total                         =      -0.01978945 hartree =     -12.41806448 kcal/mol
 --------------------------------------------------
 SCF Energy (H0 + V/2)                       =    -404.60108702 
 Solute Internal Energy (H0)                 =    -404.58129757 
 Total Free Energy (H0 + V/2 + non-elec)     =    -404.60108702 hartree
                                             = -253891.01408112 kcal/mol
***********************************************************

 SCF   energy in the final basis set =     -404.6010870187
 Total energy in the final basis set =     -404.6010870187
 
 --------------------------------------------------------------
 
                    Orbital Energies (a.u.)
 --------------------------------------------------------------
 
 Alpha MOs
 -- Occupied --
-19.1351 -14.3717 -10.2939 -10.2250 -10.1819 -10.1818 -10.1794 -10.1794
-10.1773  -1.0400  -0.9338  -0.8236  -0.7428  -0.7414  -0.6375  -0.6115
 -0.5920  -0.5618  -0.5260  -0.4841  -0.4602  -0.4426  -0.4379  -0.4197
 -0.4185  -0.3949  -0.3775  -0.3741  -0.3466  -0.3437  -0.3198  -0.3111
 -0.3094  -0.2712  -0.2607
 -- Virtual --
  0.0063   0.0099   0.0179   0.0240   0.0263   0.0416   0.0484   0.0493
  0.0595   0.0694   0.0707   0.0843   0.0871   0.0964   0.1012   0.1055
  0.1125   0.1175   0.1269   0.1342   0.1413   0.1520   0.1566   0.1620
  0.1705   0.1802   0.1823   0.1884   0.2008   0.2019   0.2104   0.2136
  0.2226   0.2268   0.2317   0.2456   0.2497   0.2566   0.2643   0.2720
  0.2774   0.2832   0.2864   0.2921   0.2969   0.3039   0.3141   0.3268
  0.3313   0.3336   0.3581   0.3737   0.3840   0.3872   0.4191   0.4208
  0.4402   0.4567   0.4826   0.6099   0.6405   0.6584   0.6668   0.6695
  0.6863   0.6998   0.7290   0.7329   0.7487   0.7512   0.7748   0.7792
  0.7999   0.8058   0.8225   0.8424   0.8636   0.9103   0.9545   0.9759
  0.9813   0.9935   1.0217   1.0278   1.0312   1.0583   1.0869   1.1057
  1.1211   1.1240   1.1287   1.1426   1.1659   1.1728   1.1855   1.1881
  1.2376   1.2485   1.2799   1.3196   1.3385   1.3660   1.3976   1.4152
  1.4667   1.4901   1.4998   1.5627   1.5835   1.6179   1.6968   1.7316
  1.7448   1.7550   1.7671   1.7996   1.8431   1.8700   1.9064   1.9116
  1.9148   1.9378   1.9726   2.0088   2.0126   2.0444   2.0606   2.0861
  2.1070   2.1267   2.2055   2.2131   2.2783   2.3073   2.3188   2.3416
  2.3968   2.4148   2.4186   2.4237   2.4505   2.5593   2.5826   2.6204
  2.6808   2.6895   2.7052   2.7583   2.7804   2.8377   2.8661   2.9911
  3.1850   4.0934   4.1928   4.2283   4.2974   4.3359   4.4137   4.6044
  4.6046   4.6708
 --------------------------------------------------------------
 
          Ground-State Mulliken Net Atomic Charges

     Atom                 Charge (a.u.)
  ----------------------------------------
      1 C                    -0.288090
      2 C                    -0.414029
      3 C                    -0.294230
      4 C                    -0.455178
      5 C                    -0.375948
      6 C                    -0.460495
      7 H                     0.211067
      8 H                     0.227598
      9 H                     0.215045
     10 H                     0.210390
     11 H                     0.207096
     12 H                     0.203843
     13 H                     0.199626
     14 H                     0.202618
     15 H                     0.207071
     16 H                     0.204014
     17 H                     0.214339
     18 N                    -0.379165
     19 H                     0.452999
     20 C                     0.345382
     21 H                     0.184348
     22 O                    -0.618300
  ----------------------------------------
  Sum of atomic charges =     0.000000

 -----------------------------------------------------------------
                    Cartesian Multipole Moments
 -----------------------------------------------------------------
    Charge (ESU x 10^10)
                 0.0000
    Dipole Moment (Debye)
         X       5.4117      Y       2.3218      Z       1.1157
       Tot       5.9935
    Quadrupole Moments (Debye-Ang)
        XX     -60.9771     XY      53.9508     YY      -9.9175
        XZ      97.7631     YZ      53.4465     ZZ     -10.2251
    Octopole Moments (Debye-Ang^2)
       XXX     -70.6201    XXY    -632.1750    XYY     510.7820
       YYY   -1078.7440    XXZ   -1218.6618    XYZ     975.8494
       YYZ    -180.1617    XZZ    1739.4979    YZZ     642.2090
       ZZZ   -1999.6204
    Hexadecapole Moments (Debye-Ang^3)
      XXXX    -513.8241   XXXY    -754.7964   XXYY   -6706.4576
      XYYY    4503.3674   YYYY  -28383.4060   XXXZ   -1677.2490
      XXYZ  -12685.1694   XYYZ    9120.3899   YYYZ  -22120.8485
      XXZZ  -24672.2185   XYZZ   17369.8630   YYZZ   -9378.7556
      XZZZ   30065.2639   YZZZ   -7635.0214   ZZZZ -100885.7063
 -----------------------------------------------------------------
 Calculating analytic gradient of the SCF energy
 Gradient of SCF Energy
            1           2           3           4           5           6
    1  -0.0023505  -0.0014056  -0.0107281   0.0003377  -0.0098252   0.0049307
    2  -0.0113747   0.0001404   0.0022628   0.0052019  -0.0031273  -0.0023586
    3   0.0034463  -0.0000568   0.0059781  -0.0045564  -0.0025799  -0.0034911
            7           8           9          10          11          12
    1   0.0012015   0.0026983   0.0042519  -0.0016721  -0.0012795   0.0034877
    2  -0.0016359   0.0013378   0.0049773   0.0017034  -0.0008072  -0.0005198
    3  -0.0013398   0.0031963  -0.0019038   0.0002782   0.0008800   0.0004242
           13          14          15          16          17          18
    1   0.0002415   0.0039304  -0.0020384   0.0017177   0.0060586  -0.0093330
    2  -0.0001422   0.0008946  -0.0001788   0.0028339   0.0014012  -0.0091499
    3   0.0025264  -0.0011532  -0.0004634   0.0007994  -0.0026755   0.0049040
           19          20          21          22
    1   0.0137525  -0.0138553   0.0063115   0.0035677
    2   0.0055288   0.0090863  -0.0019794  -0.0040948
    3  -0.0058140   0.0055416  -0.0030785  -0.0008620
 Max gradient component =       1.386E-02
 RMS gradient           =       4.805E-03
 Computing fast CPCM-SWIG gradient
 Updating gradient with PCM contributions...
 -- total gradient after adding PCM contribution --
---------------------------------------------------
  Atom         X              Y              Z     
---------------------------------------------------
   1       0.003390      -0.003917      -0.000851
   2      -0.001313      -0.000072      -0.003359
   3      -0.001373       0.001624       0.001918
   4       0.000164      -0.000202      -0.000707
   5      -0.003695      -0.000576       0.000984
   6       0.000728       0.001287       0.000102
   7       0.000566       0.000095      -0.000655
   8       0.000283       0.000281       0.001778
   9      -0.001519       0.002285       0.000288
  10      -0.000734       0.000158       0.000881
  11       0.000469      -0.000055       0.000274
  12       0.000655       0.000817      -0.000465
  13       0.000507      -0.000039      -0.000029
  14       0.000220      -0.000611      -0.000119
  15      -0.000274       0.000540      -0.000976
  16       0.000808      -0.000206      -0.000046
  17       0.000289      -0.001237      -0.000544
  18       0.001749      -0.003904       0.001174
  19      -0.000056      -0.000466      -0.000087
  20      -0.006797       0.011797       0.000581
  21       0.001775      -0.003739       0.000117
  22       0.004159      -0.003859      -0.000257
---------------------------------------------------
 Number of fixed atoms: 0
 Gradient time:  CPU 126.23 s  wall 11.61 s
 Geometry Optimization Parameters
   NAtoms,    NIC,     NZ,  NCons,   NDum,   NFix, NCnnct, MaxDiis
       22     172       0       0       0       0       0       0

 Cartesian Hessian Update
 Hessian updated using BFGS update


** GEOMETRY OPTIMIZATION IN DELOCALIZED INTERNAL COORDINATES **
   Searching for a Minimum

   Optimization Cycle:   4

                       Coordinates (Angstroms)
     ATOM                X               Y               Z
      1  C         0.4966006366   11.8650821357   20.4181320197
      2  C         0.4317585459   10.4406812136   19.8435494071
      3  C         1.5170714404    9.5410931244   20.4563544122
      4  C         1.4275358786    9.5136850241   21.9894337053
      5  C         1.4553599405   10.9274379969   22.5915787838
      6  C         0.4146675876   11.8596261942   21.9545267622
      7  H         1.4225820163    8.5273451669   20.0451085098
      8  H        -0.5481119267   10.0161475183   20.0849650248
      9  H         1.4185101899   12.3674302795   20.0911011455
     10  H        -0.3392733058   12.4531170970   20.0145602219
     11  H         0.5032845157    9.0001869586   22.2921322547
     12  H         2.2637511685    8.9262071624   22.3897704621
     13  H         1.3104683280   10.8785939139   23.6786322833
     14  H         2.4588785069   11.3511363090   22.4300595437
     15  H        -0.5976697944   11.5437055398   22.2473540135
     16  H         0.5496412054   12.8811709936   22.3320808579
     17  H         2.5075843491    9.9085011010   20.1465359119
     18  N         0.5385766595   10.4586612601   18.3848747912
     19  H         1.3948992268   10.8269732897   17.9826299148
     20  C        -0.4375265092   10.1238776181   17.5221851854
     21  H        -0.1214581933   10.2196895465   16.4702135932
     22  O        -1.5371304665    9.6396505569   17.8242211961
   Point Group: c1    Number of degrees of freedom:    60


   Energy is   -404.601087019

 Hessian updated using BFGS update

 60 Hessian modes will be used to form the next step
  Hessian Eigenvalues:
     0.004830    0.005383    0.006546    0.008377    0.012695    0.017714
     0.018549    0.018760    0.032668    0.035879    0.037094    0.041168
     0.045203    0.047321    0.049636    0.050934    0.053317    0.056696
     0.060058    0.066744    0.071727    0.080448    0.081337    0.083096
     0.083958    0.087312    0.090103    0.091354    0.123556    0.125713
     0.139397    0.157206    0.159272    0.162717    0.178398    0.211800
     0.219422    0.220250    0.269076    0.272577    0.275498    0.282270
     0.284850    0.287428    0.330921    0.334325    0.336969    0.338420
     0.344069    0.345372    0.345814    0.346517    0.347744    0.349687
     0.351632    0.356672    0.377304    0.466257    0.485901    0.927633

 Minimum search - taking simple RFO step
 Searching for Lamda that Minimizes Along All modes
 Value Taken    Lamda =  -0.00236737
 Calculated Step too Large.  Step scaled by  0.939624
 Step Taken.  Stepsize is  0.300000

                             Maximum     Tolerance    Cnvgd?
         Gradient           0.007579      0.000100      NO
         Displacement       0.157750      0.000100      NO
         Energy change     -0.001869      0.000000      NO


 New Cartesian Coordinates Obtained by Inverse Iteration

 Displacement from previous Coordinates is:  0.286187
 ----------------------------------------------------------------
             Standard Nuclear Orientation (Angstroms)
    I     Atom           X                Y                Z
 ----------------------------------------------------------------
    1      C       0.4779745616    11.8600986938    20.4218697713
    2      C       0.4293289454    10.4325759139    19.8479106350
    3      C       1.5172940604     9.5359738805    20.4625766289
    4      C       1.4280819847     9.5208141185    21.9969335165
    5      C       1.4831404282    10.9424976865    22.5764862205
    6      C       0.4048510451    11.8447767706    21.9586777377
    7      H       1.4202042468     8.5207829117    20.0577938839
    8      H      -0.5533164195     9.9983567178    20.0613586204
    9      H       1.4236750661    12.3260943000    20.1056029991
   10      H      -0.3422728036    12.4520946748    19.9977489021
   11      H       0.4900797264     9.0320453264    22.3015907040
   12      H       2.2442425556     8.9133290628    22.4098882887
   13      H       1.3499875351    10.9075719183    23.6663201283
   14      H       2.4776550621    11.3770452175    22.3909519524
   15      H      -0.5892972479    11.4953589513    22.2752636245
   16      H       0.5111150788    12.8700888071    22.3372208095
   17      H       2.5048297860     9.9163989434    20.1587061712
   18      N       0.5431810810    10.4565036993    18.3855406211
   19      H       1.4044828953    10.8201646163    17.9881417863
   20      C      -0.4203093514    10.1083420394    17.5171385565
   21      H      -0.1198004218    10.2451775993    16.4654277617
   22      O      -1.5551278144     9.6939081506    17.8068506802
 ----------------------------------------------------------------
 Nuclear Repulsion Energy =         466.28593212 hartrees
 There are       35 alpha and       35 beta electrons
 Discretize the solute cavity surface with Lebedev spheres
	Using 302 Lebedev grid points for each H atom
	Using 302 Lebedev grid points for other atoms
	Atomic van der Waals radii will be scaled by 1.20
 Remove points where switching function is < 1.0e-08
 Keep 2735 surface tesserae and discard 3909 interior tesserae
 Molecular Surface Area = 182.634 Angst**2
 Applying Cartesian multipole field
    Component          Value
    ---------          -----
     (2,0,0)        1.00000E-11
     (0,2,0)        2.00000E-12
     (0,0,2)       -3.00000E-13
 Nucleus-field energy     =     0.0000000282 hartrees
 Requested basis set is 6-31+G(d)
 There are 71 shells and 197 basis functions
 A cutoff of  1.0D-14 yielded   2410 shell pairs
 There are     18985 function pairs
 Smallest overlap matrix eigenvalue = 2.46E-05
 Guess MOs from SCF MO coefficient file

 -----------------------------------------------------------------------
  General SCF calculation program by
  Eric Jon Sundstrom, Paul Horn, Yuezhi Mao, Dmitri Zuev, Alec White,
  David Stuck, Shaama M.S., Shane Yost, Joonho Lee, David Small,
  Daniel Levine, Susi Lehtola, Hugh Burton, Evgeny Epifanovsky,
  Bang C. Huynh
 -----------------------------------------------------------------------
 Exchange:     0.2000 Hartree-Fock + 0.0800 Slater + 0.7200 B88
 Correlation:  0.1900 VWN1RPA + 0.8100 LYP
 Using Euler-Maclaurin-Lebedev (99,590) quadrature formula
 using 16 threads for integral computing
 -------------------------------------------------------
 OpenMP Integral computing Module                
 Release: version 2.0, May 2017, Q-Chem Inc. Pleasanton 
 -------------------------------------------------------
 A restricted SCF calculation will be
 performed using Roothaan-Hall, DIIS
 SCF converges when DIIS error is below 1.0e-08
 ---------------------------------------
  Cycle       Energy         DIIS error
 ---------------------------------------
    1    -404.5783319202      8.96e-04  Roothaan Step
 ---------------------------------------
  Cycle       Energy         DIIS error
 ---------------------------------------
    1    -404.5895571079      1.33e-03  
    2    -404.5705321425      2.87e-03  
    3    -404.6016823971      2.27e-04  
    4    -404.6018696707      1.30e-04  
    5    -404.6019348248      3.82e-05  
    6    -404.6019408930      9.90e-06  
    7    -404.6019412650      3.49e-06  
    8    -404.6019413237      6.26e-07  
    9    -404.6019413253      2.65e-07  
   10    -404.6019413257      4.74e-08  
   11    -404.6019413257      1.24e-08  
   12    -404.6019413257      3.39e-09  Convergence criterion met
 ---------------------------------------
 SCF time:   CPU 888.37s  wall 61.00s 

************** Final PCM Free Energy Summary **************
 G_electrostatic  =      -0.02006237 hartree =     -12.58932517 kcal/mol
 G_cavitation     =       0.00000000 hartree =       0.00000000 kcal/mol
 G_dispersion     =       0.00000000 hartree =       0.00000000 kcal/mol
 G_repulsion      =       0.00000000 hartree =       0.00000000 kcal/mol
 --------------------------------------------------
 Non-electrostatic Free Energy =       0.00000000 hartree =       0.00000000 kcal/mol
 Total                         =      -0.02006237 hartree =     -12.58932517 kcal/mol
 --------------------------------------------------
 SCF Energy (H0 + V/2)                       =    -404.60194133 
 Solute Internal Energy (H0)                 =    -404.58187896 
 Total Free Energy (H0 + V/2 + non-elec)     =    -404.60194133 hartree
                                             = -253891.55016685 kcal/mol
***********************************************************

 SCF   energy in the final basis set =     -404.6019413257
 Total energy in the final basis set =     -404.6019413257
 
 --------------------------------------------------------------
 
                    Orbital Energies (a.u.)
 --------------------------------------------------------------
 
 Alpha MOs
 -- Occupied --
-19.1346 -14.3721 -10.2939 -10.2252 -10.1824 -10.1823 -10.1796 -10.1795
-10.1776  -1.0380  -0.9335  -0.8242  -0.7429  -0.7409  -0.6369  -0.6113
 -0.5918  -0.5626  -0.5260  -0.4838  -0.4607  -0.4420  -0.4374  -0.4190
 -0.4181  -0.3949  -0.3782  -0.3738  -0.3470  -0.3433  -0.3211  -0.3116
 -0.3094  -0.2707  -0.2611
 -- Virtual --
  0.0086   0.0086   0.0178   0.0236   0.0262   0.0416   0.0480   0.0494
  0.0596   0.0699   0.0705   0.0840   0.0871   0.0957   0.1006   0.1054
  0.1127   0.1175   0.1260   0.1342   0.1410   0.1523   0.1567   0.1615
  0.1702   0.1796   0.1834   0.1894   0.1994   0.2027   0.2105   0.2141
  0.2216   0.2268   0.2310   0.2447   0.2488   0.2561   0.2643   0.2704
  0.2769   0.2822   0.2892   0.2907   0.2951   0.3030   0.3116   0.3263
  0.3301   0.3326   0.3596   0.3728   0.3851   0.3880   0.4174   0.4215
  0.4394   0.4593   0.4832   0.6100   0.6399   0.6568   0.6676   0.6680
  0.6850   0.6985   0.7308   0.7334   0.7458   0.7539   0.7761   0.7790
  0.8011   0.8059   0.8204   0.8496   0.8638   0.9132   0.9543   0.9762
  0.9801   0.9935   1.0223   1.0280   1.0300   1.0576   1.0904   1.1043
  1.1194   1.1245   1.1284   1.1432   1.1639   1.1724   1.1860   1.1924
  1.2388   1.2449   1.2807   1.3262   1.3426   1.3720   1.3907   1.4168
  1.4788   1.4872   1.4939   1.5672   1.5783   1.6162   1.6925   1.7328
  1.7370   1.7544   1.7684   1.8051   1.8512   1.8717   1.9030   1.9086
  1.9126   1.9393   1.9785   2.0096   2.0195   2.0449   2.0569   2.0856
  2.0950   2.1301   2.2037   2.2151   2.2774   2.3092   2.3172   2.3445
  2.3949   2.4118   2.4212   2.4262   2.4482   2.5599   2.5859   2.6206
  2.6742   2.6842   2.7057   2.7627   2.7812   2.8345   2.8629   2.9885
  3.1861   4.0941   4.1934   4.2284   4.2966   4.3339   4.4143   4.6041
  4.6097   4.6734
 --------------------------------------------------------------
 
          Ground-State Mulliken Net Atomic Charges

     Atom                 Charge (a.u.)
  ----------------------------------------
      1 C                    -0.276747
      2 C                    -0.423923
      3 C                    -0.283993
      4 C                    -0.453988
      5 C                    -0.381138
      6 C                    -0.461334
      7 H                     0.211170
      8 H                     0.226316
      9 H                     0.214340
     10 H                     0.210791
     11 H                     0.207632
     12 H                     0.203370
     13 H                     0.199376
     14 H                     0.203870
     15 H                     0.207918
     16 H                     0.203312
     17 H                     0.214418
     18 N                    -0.381701
     19 H                     0.452735
     20 C                     0.345961
     21 H                     0.184718
     22 O                    -0.623102
  ----------------------------------------
  Sum of atomic charges =     0.000000

 -----------------------------------------------------------------
                    Cartesian Multipole Moments
 -----------------------------------------------------------------
[...]

 Mode:                40                     41                     42
 Frequency:      1403.96                1493.93                1496.01
 Force Cnst:      1.7071                 1.4309                 1.4340
 Red. Mass:       1.4700                 1.0882                 1.0875
 IR Active:          YES                    YES                    YES
 IR Intens:        0.560                  0.096                  5.722
 Raman Active:       YES                    YES                    YES
               X      Y      Z        X      Y      Z        X      Y      Z
 C         -0.010  0.056  0.093    0.011  0.037 -0.031    0.001  0.012  0.006
 C         -0.021 -0.011 -0.098   -0.007  0.016 -0.000    0.001  0.000 -0.007
 C          0.037 -0.044  0.098   -0.033  0.016  0.029    0.010 -0.008  0.006
 C         -0.011  0.041  0.024   -0.008 -0.022  0.023   -0.007 -0.026  0.008
 C         -0.008 -0.004 -0.011    0.006 -0.014 -0.000   -0.052 -0.023 -0.045
 C          0.024 -0.034  0.026    0.022 -0.009 -0.023   -0.024  0.012  0.008
 H         -0.089  0.146 -0.373    0.370  0.034 -0.151   -0.055 -0.003  0.011
 H          0.079  0.049  0.466    0.032 -0.072  0.000    0.006  0.003  0.024
 H         -0.030 -0.140 -0.284    0.229 -0.270  0.210    0.026 -0.061 -0.019
 H          0.051 -0.167 -0.359   -0.290 -0.261  0.160   -0.035 -0.034  0.008
 H          0.014 -0.043 -0.038   -0.155  0.167 -0.160   -0.139  0.195 -0.074
 H          0.000 -0.127 -0.255    0.193  0.174 -0.110    0.170  0.143 -0.115
 H         -0.064 -0.026 -0.023    0.003 -0.001  0.000    0.552  0.245  0.044
 H         -0.023 -0.011 -0.061   -0.028  0.065  0.002    0.072  0.039  0.597
 H         -0.025  0.040 -0.045   -0.021  0.235  0.158    0.050 -0.232 -0.067
 H         -0.092  0.080 -0.252   -0.264 -0.024  0.109    0.218  0.027 -0.112
 H         -0.126  0.070 -0.301    0.044 -0.337 -0.194   -0.029  0.065 -0.018
 N          0.005  0.003 -0.032   -0.000 -0.000 -0.000    0.000  0.000 -0.001
 H          0.058  0.023  0.102    0.001 -0.000  0.001    0.004  0.001  0.007
 C          0.002  0.001  0.026    0.000 -0.000  0.000    0.000  0.000  0.001
 H         -0.005 -0.002  0.036   -0.000  0.001  0.000   -0.000 -0.000  0.001
 O          0.003  0.001 -0.005   -0.000  0.000 -0.000   -0.000 -0.000 -0.000
 TransDip   0.001 -0.003  0.024    0.003 -0.009  0.002    0.069  0.031  0.009

 Mode:                43                     44                     45
 Frequency:      1499.29                1499.99                1512.05
 Force Cnst:      1.4550                 1.4490                 1.4832
 Red. Mass:       1.0986                 1.0930                 1.1011
 IR Active:          YES                    YES                    YES
 IR Intens:        7.778                 10.721                  0.661
 Raman Active:       YES                    YES                    YES
               X      Y      Z        X      Y      Z        X      Y      Z
 C         -0.001 -0.039  0.022   -0.006 -0.035  0.014   -0.000 -0.035  0.016
 C         -0.002  0.004  0.003    0.000 -0.000  0.015   -0.004 -0.001  0.013
 C          0.018 -0.017 -0.015   -0.039  0.028  0.020   -0.027  0.024  0.015
 C         -0.004 -0.046  0.034   -0.002 -0.024  0.014   -0.000  0.036 -0.019
 C          0.002  0.003  0.003    0.015  0.006  0.018   -0.024 -0.011 -0.033
 C          0.029 -0.022 -0.027   -0.030  0.023  0.023    0.027 -0.024 -0.018
 H         -0.186 -0.035  0.091    0.402  0.034 -0.140    0.293  0.038 -0.118
 H          0.003 -0.012 -0.004   -0.010 -0.004 -0.020   -0.010 -0.006 -0.018
 H         -0.190  0.254 -0.144   -0.177  0.231 -0.129   -0.172  0.236 -0.119
 H          0.243  0.197 -0.135    0.219  0.209 -0.098    0.220  0.182 -0.116
 H         -0.253  0.312 -0.215   -0.132  0.154 -0.122    0.173 -0.226  0.132
 H          0.317  0.256 -0.184    0.160  0.152 -0.066   -0.224 -0.180  0.115
 H         -0.015 -0.042 -0.000   -0.151 -0.061 -0.003    0.281  0.125  0.008
 H         -0.010  0.011 -0.031   -0.021 -0.013 -0.163    0.041  0.023  0.315
 H         -0.052  0.317  0.159    0.045 -0.316 -0.174   -0.052  0.284  0.128
 H         -0.315 -0.052  0.153    0.334  0.033 -0.117   -0.286 -0.042  0.114
 H         -0.038  0.195  0.087    0.072 -0.390 -0.167    0.061 -0.296 -0.116
 N          0.000 -0.001 -0.000   -0.000  0.000 -0.001    0.005  0.002  0.008
 H         -0.001  0.000 -0.002   -0.005 -0.002 -0.013   -0.020 -0.008 -0.055
 C         -0.000 -0.000 -0.000   -0.001 -0.000 -0.000   -0.006 -0.002 -0.006
 H         -0.000  0.001 -0.000    0.001  0.000 -0.000    0.003  0.001 -0.006
 O          0.000  0.000 -0.000    0.001  0.000 -0.000    0.002  0.001  0.000
 TransDip  -0.026  0.084 -0.015    0.067  0.013 -0.080   -0.012 -0.003 -0.023

 Mode:                46                     47                     48
 Frequency:      1555.43                1667.40                2242.49
 Force Cnst:      2.5191                14.0289                 7.0934
 Red. Mass:       1.7672                 8.5644                 2.3941
 IR Active:          YES                    YES                    YES
 IR Intens:      268.966                923.746                 98.737
 Raman Active:       YES                    YES                    YES
               X      Y      Z        X      Y      Z        X      Y      Z
 C         -0.003 -0.004  0.009   -0.005 -0.007  0.019   -0.000 -0.000 -0.000
 C          0.057  0.023  0.057    0.015  0.006 -0.032    0.000  0.000  0.003
 C         -0.005  0.001  0.010   -0.009  0.001  0.019   -0.000  0.000 -0.000
 C         -0.001 -0.001 -0.008    0.006 -0.004 -0.006   -0.000  0.000 -0.000
 C         -0.001 -0.001  0.000   -0.001 -0.000  0.001   -0.000 -0.000 -0.000
 C         -0.001 -0.001 -0.008    0.000  0.007 -0.006    0.000 -0.000 -0.000
 H          0.028  0.004  0.002    0.013  0.017 -0.020    0.001 -0.000  0.000
 H         -0.008 -0.008 -0.335    0.051  0.021  0.052    0.000 -0.000  0.007
 H         -0.009 -0.022 -0.049   -0.019 -0.019 -0.027   -0.000 -0.000  0.000
 H          0.023  0.023  0.004    0.023 -0.001 -0.019    0.000  0.001  0.001
 H          0.016 -0.009  0.029    0.007  0.002  0.002   -0.000 -0.000 -0.000
 H         -0.021 -0.006  0.023   -0.014  0.007  0.043    0.000 -0.000 -0.000
 H          0.022  0.010  0.003    0.012  0.005  0.001   -0.000 -0.000 -0.000
 H          0.002  0.001  0.018   -0.001 -0.000  0.005    0.000  0.000 -0.000
 H          0.003  0.019  0.027    0.006  0.005  0.004   -0.000 -0.000 -0.000
 H         -0.019 -0.011  0.021   -0.005 -0.014  0.044    0.000  0.000 -0.000
 H         -0.024  0.009 -0.053   -0.026 -0.001 -0.025   -0.000 -0.000  0.000
 N         -0.100 -0.039 -0.173   -0.115 -0.044 -0.017    0.005  0.002  0.014
 H          0.287  0.113  0.837   -0.260 -0.096 -0.382   -0.014 -0.005 -0.056
 C          0.042  0.016  0.093    0.629  0.236 -0.010    0.059  0.021 -0.184
 H         -0.032 -0.011  0.133   -0.091 -0.037 -0.368   -0.261 -0.092  0.939
 O          0.008  0.003 -0.013   -0.351 -0.131  0.092   -0.014 -0.005  0.009
 TransDip   0.321  0.124  0.397    0.880  0.333  0.249    0.154  0.056 -0.273

 Mode:                49                     50                     51
 Frequency:      3014.18                3015.25                3018.77
 Force Cnst:      5.7227                 5.7217                 5.7214
 Red. Mass:       1.0691                 1.0681                 1.0656
 IR Active:          YES                    YES                    YES
 IR Intens:       34.532                 50.581                 14.731
 Raman Active:       YES                    YES                    YES
               X      Y      Z        X      Y      Z        X      Y      Z
 C         -0.001  0.005 -0.003    0.023  0.022 -0.015    0.015  0.006 -0.004
 C         -0.001 -0.001  0.000    0.001 -0.001  0.000   -0.003 -0.001 -0.000
 C          0.006 -0.003 -0.004   -0.037 -0.002  0.017    0.033  0.002 -0.015
 C          0.019  0.010 -0.005    0.026  0.023 -0.015   -0.015 -0.014  0.009
 C         -0.059 -0.026 -0.009   -0.003 -0.002 -0.000   -0.012 -0.006 -0.019
 C          0.024  0.008 -0.007   -0.031 -0.002  0.014   -0.045  0.005  0.023
 H          0.009  0.070  0.024   -0.026 -0.152 -0.057    0.022  0.141  0.051
 H          0.018  0.008 -0.004   -0.005 -0.001  0.001    0.039  0.018 -0.008
 H         -0.036 -0.017  0.009   -0.388 -0.188  0.124   -0.169 -0.085  0.054
 H          0.048 -0.034  0.021    0.112 -0.071  0.052   -0.015  0.014 -0.008
 H         -0.237 -0.120  0.077   -0.418 -0.207  0.134    0.253  0.126 -0.080
 H         -0.000  0.003 -0.007    0.102 -0.064  0.045   -0.069  0.045 -0.032
 H         -0.044 -0.016  0.272   -0.004  0.004  0.012   -0.035 -0.011  0.273
 H          0.760  0.334 -0.168    0.038  0.019 -0.009    0.171  0.074 -0.043
 H         -0.291 -0.109  0.089    0.399  0.154 -0.122    0.580  0.225 -0.175
 H          0.004  0.010 -0.002   -0.021 -0.128 -0.046   -0.037 -0.276 -0.100
 H         -0.076 -0.030  0.021    0.468  0.184 -0.145   -0.420 -0.164  0.128
 N         -0.000 -0.000 -0.000   -0.000  0.000 -0.000    0.000  0.000  0.000
 H         -0.000 -0.000  0.001   -0.000  0.001 -0.000    0.000 -0.000  0.002
 C          0.000  0.000  0.000    0.000  0.000 -0.000   -0.001 -0.000  0.000
 H         -0.000  0.000 -0.000    0.000 -0.000 -0.000    0.000  0.000  0.000
 O         -0.000 -0.000 -0.000   -0.000  0.000  0.000    0.000  0.000 -0.000
 TransDip  -0.071 -0.045 -0.169   -0.108  0.201  0.000   -0.118 -0.032 -0.006

 Mode:                52                     53                     54
 Frequency:      3019.35                3021.17                3062.17
 Force Cnst:      5.7028                 5.7127                 6.0478
 Red. Mass:       1.0617                 1.0623                 1.0947
 IR Active:          YES                    YES                    YES
 IR Intens:        9.141                149.364                121.380
 Raman Active:       YES                    YES                    YES
               X      Y      Z        X      Y      Z        X      Y      Z
 C          0.018  0.026 -0.017   -0.024 -0.035  0.023   -0.018  0.004 -0.002
 C         -0.000 -0.000 -0.000    0.006  0.003 -0.000    0.006  0.003 -0.001
 C         -0.022  0.009  0.014   -0.032  0.004  0.017   -0.009 -0.017 -0.002
 C         -0.021 -0.038  0.024    0.001 -0.016  0.010   -0.011  0.013 -0.008
 C         -0.006 -0.003 -0.009   -0.013 -0.006 -0.011    0.029  0.012 -0.074
 C          0.013 -0.006 -0.008   -0.014  0.014  0.012    0.001 -0.018 -0.008
 H         -0.029 -0.225 -0.083   -0.029 -0.209 -0.077    0.016  0.165  0.063
 H          0.006  0.001 -0.001   -0.082 -0.036  0.018   -0.079 -0.035  0.018
 H         -0.389 -0.186  0.123    0.527  0.254 -0.166    0.089  0.046 -0.030
 H          0.177 -0.119  0.083   -0.233  0.159 -0.109    0.122 -0.090  0.061
 H          0.528  0.258 -0.166    0.145  0.069 -0.044   -0.034 -0.015  0.008
 H         -0.272  0.189 -0.125   -0.160  0.116 -0.075    0.172 -0.129  0.085
 H         -0.015 -0.007  0.130   -0.022 -0.008  0.178   -0.087 -0.028  0.833
 H          0.087  0.040 -0.022    0.179  0.078 -0.042   -0.262 -0.115  0.045
 H         -0.168 -0.068  0.052    0.194  0.078 -0.057   -0.029 -0.013  0.007
 H          0.016  0.135  0.048   -0.026 -0.244 -0.088    0.021  0.231  0.086
 H          0.285  0.115 -0.087    0.416  0.164 -0.127    0.095  0.034 -0.030
 N          0.000  0.000  0.000   -0.000 -0.000 -0.000   -0.000 -0.000 -0.000
 H         -0.000  0.001  0.000    0.000 -0.000 -0.004    0.001  0.000 -0.001
 C         -0.000 -0.000 -0.000    0.001  0.000 -0.000    0.000  0.000  0.000
 H          0.000 -0.000  0.000   -0.000 -0.000 -0.000   -0.000 -0.000 -0.000
 O          0.000  0.000 -0.000   -0.000 -0.000  0.000   -0.000 -0.000  0.000
 TransDip  -0.071 -0.061  0.024   -0.304 -0.140  0.203   -0.021 -0.020 -0.352

 Mode:                55                     56                     57
 Frequency:      3063.43                3067.03                3068.46
 Force Cnst:      6.0641                 6.0782                 6.0870
 Red. Mass:       1.0967                 1.0967                 1.0973
 IR Active:          YES                    YES                    YES
 IR Intens:      131.562                 76.741                102.075
 Raman Active:       YES                    YES                    YES
               X      Y      Z        X      Y      Z        X      Y      Z
 C          0.009 -0.010  0.007    0.013 -0.013  0.008   -0.045  0.016 -0.011
 C         -0.000  0.001  0.000   -0.004 -0.002  0.002    0.023  0.010 -0.006
 C          0.001 -0.013 -0.006    0.000  0.020  0.008   -0.022 -0.052 -0.012
 C          0.056 -0.020  0.014   -0.054  0.018 -0.012   -0.021 -0.003  0.002
 C         -0.001 -0.000  0.001   -0.021 -0.009  0.012   -0.016 -0.007  0.027
 C         -0.024 -0.056 -0.013   -0.022 -0.051 -0.011   -0.014 -0.011  0.002
 H          0.018  0.167  0.066   -0.025 -0.244 -0.095    0.055  0.540  0.212
 H         -0.000  0.001 -0.000    0.053  0.023 -0.012   -0.294 -0.129  0.069
 H          0.025  0.010 -0.008    0.020  0.007 -0.006    0.167  0.089 -0.061
 H         -0.139  0.101 -0.071   -0.182  0.133 -0.093    0.370 -0.270  0.190
 H         -0.208 -0.112  0.073    0.209  0.114 -0.072    0.171  0.089 -0.057
 H         -0.465  0.348 -0.232    0.433 -0.325  0.214    0.079 -0.060  0.040
 H          0.002 -0.000 -0.015    0.011  0.003 -0.108    0.030  0.010 -0.285
 H          0.009  0.002 -0.002    0.230  0.101 -0.046    0.160  0.070 -0.029
 H          0.233  0.080 -0.075    0.222  0.076 -0.071    0.159  0.058 -0.049
 H          0.053  0.593  0.225    0.046  0.528  0.198    0.006  0.078  0.030
 H         -0.023 -0.011  0.007    0.013  0.008 -0.004    0.213  0.074 -0.071
 N          0.000 -0.000 -0.000   -0.000 -0.000 -0.000   -0.000  0.000  0.000
 H          0.000 -0.000 -0.000   -0.001 -0.000 -0.000    0.004  0.001 -0.002
 C          0.000 -0.000  0.000    0.000  0.000 -0.000    0.000  0.000  0.000
 H         -0.000  0.000  0.000   -0.000 -0.000 -0.000   -0.000  0.000 -0.000
 O         -0.000  0.000 -0.000   -0.000 -0.000 -0.000   -0.000 -0.000  0.000
 TransDip   0.143 -0.338  0.009   -0.260 -0.106  0.004   -0.291 -0.142 -0.005

 Mode:                58                     59                     60
 Frequency:      3070.33                3096.66                3578.89
 Force Cnst:      6.1133                 6.1470                 8.1387
 Red. Mass:       1.1007                 1.0880                 1.0785
 IR Active:          YES                    YES                    YES
 IR Intens:       46.805                 65.064                 69.447
 Raman Active:       YES                    YES                    YES
               X      Y      Z        X      Y      Z        X      Y      Z
 C          0.063 -0.018  0.014   -0.023  0.003 -0.002    0.000  0.000 -0.000
 C         -0.002 -0.001  0.001   -0.071 -0.031  0.016   -0.001 -0.000 -0.001
 C         -0.025 -0.052 -0.011   -0.013 -0.019 -0.002    0.000  0.000 -0.000
 C         -0.016 -0.000 -0.000   -0.004 -0.002  0.001    0.000  0.000 -0.000
 C          0.000  0.001 -0.001   -0.001 -0.000  0.002    0.000  0.000 -0.000
 C          0.012  0.012 -0.000   -0.004 -0.002  0.001    0.000  0.000 -0.000
 H          0.054  0.532  0.209    0.017  0.176  0.067    0.000 -0.000  0.000
 H          0.024  0.009 -0.005    0.835  0.366 -0.185    0.009  0.004 -0.006
 H         -0.260 -0.137  0.091    0.133  0.072 -0.043   -0.000  0.001  0.001
 H         -0.489  0.359 -0.252    0.142 -0.105  0.071   -0.000  0.000 -0.000
 H          0.111  0.057 -0.038    0.042  0.021 -0.016   -0.000 -0.000 -0.000
 H          0.078 -0.059  0.039    0.005 -0.003  0.002   -0.000  0.000  0.000
 H         -0.001 -0.002  0.014    0.002  0.001 -0.017   -0.000 -0.000  0.000
 H         -0.008 -0.002  0.001    0.010  0.004 -0.001   -0.000 -0.000  0.000
 H         -0.134 -0.049  0.043    0.044  0.016 -0.016   -0.000 -0.000 -0.000
 H         -0.009 -0.101 -0.038    0.001  0.006  0.001   -0.000 -0.000 -0.000
 H          0.244  0.087 -0.080    0.141  0.048 -0.042    0.000 -0.001  0.001
 N         -0.000  0.000 -0.000    0.001  0.000  0.001   -0.064 -0.024  0.027
 H         -0.000  0.000  0.000   -0.010 -0.004 -0.001    0.860  0.326 -0.385
 C          0.000 -0.000 -0.000   -0.002 -0.001 -0.000    0.000  0.000  0.002
 H         -0.000  0.000  0.000    0.000  0.000  0.001   -0.000 -0.000 -0.003
 O         -0.000  0.000 -0.000    0.000  0.000 -0.001    0.001  0.000 -0.000
 TransDip   0.107 -0.191  0.005   -0.225 -0.103  0.074    0.249  0.093 -0.027

 STANDARD THERMODYNAMIC QUANTITIES AT   298.18 K  AND     1.00 ATM

   This Molecule has  1 Imaginary Frequencies
   Zero point vibrational energy:      121.837 kcal/mol

   Atom    1 Element C  Has Mass   12.00000
   Atom    2 Element C  Has Mass   12.00000
   Atom    3 Element C  Has Mass   12.00000
   Atom    4 Element C  Has Mass   12.00000
   Atom    5 Element C  Has Mass   12.00000
   Atom    6 Element C  Has Mass   12.00000
   Atom    7 Element H  Has Mass    1.00783
   Atom    8 Element H  Has Mass    1.00783
   Atom    9 Element H  Has Mass    1.00783
   Atom   10 Element H  Has Mass    1.00783
   Atom   11 Element H  Has Mass    1.00783
   Atom   12 Element H  Has Mass    1.00783
   Atom   13 Element H  Has Mass    1.00783
   Atom   14 Element H  Has Mass    1.00783
   Atom   15 Element H  Has Mass    1.00783
   Atom   16 Element H  Has Mass    1.00783
   Atom   17 Element H  Has Mass    1.00783
   Atom   18 Element N  Has Mass   14.00307
   Atom   19 Element H  Has Mass    1.00783
   Atom   20 Element C  Has Mass   12.00000
   Atom   21 Element H  Has Mass    2.01410
   Atom   22 Element O  Has Mass   15.99491
   Molecular Mass:   128.106042 amu
   Principal axes and moments of inertia in amu*Bohr^2:
                             1           2           3
    Eigenvalues --      537.68649  2029.83307  2230.74923
          X               0.39031    -0.42612     0.81614
          Y               0.16165     0.90439     0.39489
          Z               0.90638     0.02220    -0.42188
   Rotational Symmetry Number is   1
   The Molecule is an Asymmetric Top
   Translational Enthalpy:        0.889 kcal/mol
   Rotational Enthalpy:           0.889 kcal/mol
   Vibrational Enthalpy:        125.118 kcal/mol
   gas constant (RT):             0.593 kcal/mol
   Translational Entropy:        40.457  cal/mol.K
   Rotational Entropy:           29.278  cal/mol.K
   Vibrational Entropy:          18.121  cal/mol.K

   Total Enthalpy:              127.488 kcal/mol
   Total Entropy:                87.855  cal/mol.K
Archival summary:
1\1\node026\FREQ\ProcedureUnspecified\6-31+G*\11713\ymao90\ThuApr815:35:572021ThuApr815:35:572021\0\\#,FREQ,ProcedureUnspecified,6-31+G*,\\0,1\N\H,1,1.01544\C,1,1.34452,2,116.74\H,3,1.10224,1,112.69,2,0.523682,0\O,3,1.24061,1,125.984,2,-179.559,0\C,1,1.46683,2,117.541,3,-179.328,0\H,6,1.09469,1,106.009,2,-177.159,0\C,6,1.5389,1,110.539,2,-59.1091,0\H,8,1.09745,6,109.444,1,-59.0117,0\H,8,1.10068,6,108.741,1,57.6616,0\C,8,1.53784,6,111.352,1,178.4,0\H,11,1.0977,8,109.602,6,-177.617,0\H,11,1.10043,8,109.16,6,65.8964,0\C,11,1.53688,8,111.638,6,-54.9603,0\H,14,1.09798,11,110.122,8,177.213,0\H,14,1.10062,11,109.241,8,-65.8157,0\C,14,1.53689,11,111.216,8,54.8323,0\H,17,1.09771,14,110.417,11,-177.074,0\H,17,1.10046,14,109.229,11,65.9295,0\C,17,1.53779,14,111.59,11,-54.8724,0\H,20,1.09744,17,110.624,14,176.951,0\H,20,1.10056,17,109.546,14,-65.2107,0\\\@

 Total job time:  890.58s(wall), 12325.50s(cpu) 
 Thu Apr  8 15:35:57 2021

        *************************************************************
        *                                                           *
        *  Thank you very much for using Q-Chem.  Have a nice day.  *
        *                                                           *
        *************************************************************


