                  Welcome to Q-Chem
     A Quantum Leap Into The Future Of Chemistry


 Q-Chem 5.2 (devel), Q-Chem, Inc., Pleasanton, CA (2019)

 Yihan Shao,  Zhengting Gan,  E. Epifanovsky,  A. T. B. Gilbert,  M. Wormit,  
 J. Kussmann,  A. W. Lange,  A. Behn,  Jia Deng,  Xintian Feng,  D. Ghosh,  
 M. Goldey,  P. R. Horn,  L. D. Jacobson,  I. Kaliman,  T. Kus,  A. Landau,  
 Jie Liu,  E. I. Proynov,  R. M. Richard,  R. P. Steele,  E. J. Sundstrom,  
 H. L. Woodcock III,  P. M. Zimmerman,  D. Zuev,  B. Alam,  B. Albrecht,  
 E. Alguire,  S. A. Baeppler,  D. Barton,  Z. Benda,  Y. A. Bernard,  
 E. J. Berquist,  K. B. Bravaya,  H. Burton,  K. Carter-Fenk,  D. Casanova,  
 Chun-Min Chang,  Yunqing Chen,  A. Chien,  K. D. Closser,  M. P. Coons,  
 S. Coriani,  S. Dasgupta,  A. L. Dempwolff,  M. Diedenhofen,  Hainam Do,  
 R. G. Edgar,  Po-Tung Fang,  S. Faraji,  S. Fatehi,  Qingguo Feng,  
 J. Fosso-Tande,  J. Gayvert,  Qinghui Ge,  A. Ghysels,  G. Gidofalvi,  
 J. Gomes,  J. Gonthier,  A. Gunina,  D. Hait,  M. W. D. Hanson-Heine,  
 P. H. P. Harbach,  A. W. Hauser,  M. F. Herbst,  J. E. Herr,  
 E. G. Hohenstein,  Z. C. Holden,  Kerwin Hui,  B. C. Huynh,  T.-C. Jagau,  
 Hyunjun Ji,  B. Kaduk,  K. Khistyaev,  Jaehoon Kim,  P. Klunzinger,  K. Koh,  
 D. Kosenkov,  L. Koulias,  T. Kowalczyk,  C. M. Krauter,  A. Kunitsa,  
 Ka Un Lao,  A. Laurent,  K. V. Lawler,  Joonho Lee,  D. Lefrancois,  
 S. Lehtola,  D. S. Levine,  Yi-Pei Li,  You-Sheng Lin,  Fenglai Liu,  
 Kuan-Yu Liu,  E. Livshits,  M. Loipersberger,  A. Luenser,  P. Manohar,  
 E. Mansoor,  S. F. Manzer,  Shan-Ping Mao,  Yuezhi Mao,  N. Mardirossian,  
 A. V. Marenich,  T. Markovich,  L. A. Martinez-Martinez,  S. A. Maurer,  
 N. J. Mayhall,  S. C. McKenzie,  J.-M. Mewes,  P. Morgante,  A. F. Morrison,  
 J. W. Mullinax,  K. Nanda,  T. S. Nguyen-Beck,  R. Olivares-Amaya,  
 J. A. Parkhill,  S. K. Paul,  F. Pavosevic,  Zheng Pei,  T. M. Perrine,  
 F. Plasser,  P. Pokhilko,  S. Prager,  A. Prociuk,  E. Ramos,  B. Rana,  
 D. R. Rehn,  F. Rob,  M. Scheurer,  M. Schneider,  N. Sergueev,  
 S. M. Sharada,  S. Sharma,  D. W. Small,  T. Stauch,  C. J. Stein,  
 T. Stein,  Yu-Chuan Su,  S. P. Veccham,  Zhen Tao,  A. J. W. Thom,  
 A. Tkatchenko,  T. Tsuchimochi,  N. M. Tubman,  L. Vogt,  M. L. Vidal,  
 O. Vydrov,  M. A. Watson,  J. Wenzel,  M. de Wergifosse,  T. A. Wesolowski,  
 A. White,  J. Witte,  A. Yamada,  Jun Yang,  K. Yao,  S. Yeganeh,  
 S. R. Yost,  Zhi-Qiang You,  A. Zech,  Igor Ying Zhang,  Xing Zhang,  
 Yan Zhao,  Ying Zhu,  B. R. Brooks,  G. K. L. Chan,  C. J. Cramer,  
 M. S. Gordon,  W. J. Hehre,  A. Klamt,  M. W. Schmidt,  C. D. Sherrill,  
 D. G. Truhlar,  A. Aspuru-Guzik,  R. Baer,  A. T. Bell,  N. A. Besley,  
 Jeng-Da Chai,  A. E. DePrince, III,  R. A. DiStasio Jr.,  A. Dreuw,  
 B. D. Dunietz,  T. R. Furlani,  Chao-Ping Hsu,  Yousung Jung,  Jing Kong,  
 D. S. Lambrecht,  WanZhen Liang,  C. Ochsenfeld,  V. A. Rassolov,  
 L. V. Slipchenko,  J. E. Subotnik,  T. Van Voorhis,  J. M. Herbert,  
 A. I. Krylov,  P. M. W. Gill,  M. Head-Gordon

 Contributors to earlier versions of Q-Chem not listed above: 
 R. D. Adamson,  B. Austin,  J. Baker,  G. J. O. Beran,  K. Brandhorst,  
 S. T. Brown,  E. F. C. Byrd,  A. K. Chakraborty,  C.-L. Cheng,  
 Siu Hung Chien,  D. M. Chipman,  D. L. Crittenden,  H. Dachsel,  
 R. J. Doerksen,  A. D. Dutoi,  L. Fusti-Molnar,  W. A. Goddard III,  
 A. Golubeva-Zadorozhnaya,  S. R. Gwaltney,  G. Hawkins,  A. Heyden,  
 S. Hirata,  G. Kedziora,  F. J. Keil,  C. Kelley,  Jihan Kim,  R. A. King,  
 R. Z. Khaliullin,  P. P. Korambath,  W. Kurlancheek,  A. M. Lee,  M. S. Lee,  
 S. V. Levchenko,  Ching Yeh Lin,  D. Liotard,  R. C. Lochan,  I. Lotan,  
 P. E. Maslen,  N. Nair,  D. P. O'Neill,  D. Neuhauser,  E. Neuscamman,  
 C. M. Oana,  R. Olson,  B. Peters,  R. Peverati,  P. A. Pieniazek,  
 Y. M. Rhee,  J. Ritchie,  M. A. Rohrdanz,  E. Rosta,  N. J. Russ,  
 H. F. Schaefer III,  N. E. Schultz,  N. Shenvi,  A. C. Simmonett,  A. Sodt,  
 D. Stuck,  K. S. Thanthiriwatte,  V. Vanovschi,  Tao Wang,  A. Warshel,  
 C. F. Williams,  Q. Wu,  X. Xu,  W. Zhang

 Please cite Q-Chem as follows:
 Y. Shao et al., Mol. Phys. 113, 184-215 (2015)
 DOI: 10.1080/00268976.2014.952696

 Q-Chem 5.2.2 for Intel X86 EM64T Linux

 Parts of Q-Chem use Armadillo 9.800.1 (Horizon Scraper).
 http://arma.sourceforge.net/

 Q-Chem begins on Thu Apr  8 15:08:49 2021  

Host: node026
0

     Scratch files written to /home/ymao90/scratch/probe_b3lyp_DMF20210408150848//
Symmetry turned off for PCM/SM12/SMD calculation

Checking the input file for inconsistencies... 	...done.

--------------------------------------------------------------
User input:
--------------------------------------------------------------
$molecule
0 1
C    0.58000    11.83000   20.41000  
C    0.42000    10.41000   19.83000  
C    1.53000    9.53000    20.44000  
C    1.44000    9.53000    21.98000  
C    1.37000    10.92000   22.65000  
C    0.42000    11.90000   21.94000  
H    1.49000    8.50000    20.05000  
H    -0.52000   10.00000   20.20000  
H    1.40000    12.47000   20.08000  
H    -0.28000   12.43000   20.08000  
H    0.54000    9.00000    22.28000  
H    2.32000    8.99000    22.34000  
H    1.27000    10.83000   23.73000  
H    2.37000    11.32000   22.50000  
H    -0.63000   11.62000   22.11000  
H    0.56000    12.91000   22.33000  
H    2.51000    9.84000    20.07000  
N    0.54000    10.41000   18.38000  
H    1.39000    10.78000   17.99000  
C    -0.47000   10.09000   17.50000  
H    -0.16000   10.30000   16.46000  
O    -1.56000   9.66000    17.84000  
$end

$rem
JOBTYPE  OPT
METHOD  B3LYP
BASIS  6-31+G(D)
SYMMETRY  FALSE
SYM_IGNORE  FALSE
MEM_TOTAL  8000
MEM_STATIC  2000
MAX_SUB_FILE_NUM  16000
BASIS_LIN_DEP_THRESH  6
THRESH  14
SCF_CONVERGENCE  8
GEN_SCFMAN  TRUE
SCF_GUESS  SAD
FD_MAT_VEC_PROD  FALSE
XC_GRID  000099000590
NL_GRID  1
MAX_SCF_CYCLES  200
GEOM_OPT_TOL_GRADIENT  100
GEOM_OPT_TOL_DISPLACEMENT  100
GEOM_OPT_TOL_ENERGY  10
SOLVENT_METHOD       PCM
$end

$PCM
THEORY                     CPCM
METHOD                     SWIG
SOLVER                     INVERSION
HPOINTS                    302
HEAVYPOINTS                302
$END

$SOLVENT
DIELECTRIC                 37.22
$END

--------------------------------------------------------------
 ----------------------------------------------------------------
             Standard Nuclear Orientation (Angstroms)
    I     Atom           X                Y                Z
 ----------------------------------------------------------------
    1      C       0.5800000000    11.8300000000    20.4100000000
    2      C       0.4200000000    10.4100000000    19.8300000000
    3      C       1.5300000000     9.5300000000    20.4400000000
    4      C       1.4400000000     9.5300000000    21.9800000000
    5      C       1.3700000000    10.9200000000    22.6500000000
    6      C       0.4200000000    11.9000000000    21.9400000000
    7      H       1.4900000000     8.5000000000    20.0500000000
    8      H      -0.5200000000    10.0000000000    20.2000000000
    9      H       1.4000000000    12.4700000000    20.0800000000
   10      H      -0.2800000000    12.4300000000    20.0800000000
   11      H       0.5400000000     9.0000000000    22.2800000000
   12      H       2.3200000000     8.9900000000    22.3400000000
   13      H       1.2700000000    10.8300000000    23.7300000000
   14      H       2.3700000000    11.3200000000    22.5000000000
   15      H      -0.6300000000    11.6200000000    22.1100000000
   16      H       0.5600000000    12.9100000000    22.3300000000
   17      H       2.5100000000     9.8400000000    20.0700000000
   18      N       0.5400000000    10.4100000000    18.3800000000
   19      H       1.3900000000    10.7800000000    17.9900000000
   20      C      -0.4700000000    10.0900000000    17.5000000000
   21      H      -0.1600000000    10.3000000000    16.4600000000
   22      O      -1.5600000000     9.6600000000    17.8400000000
 ----------------------------------------------------------------
 Nuclear Repulsion Energy =         465.59151226 hartrees
 There are       35 alpha and       35 beta electrons
 Requested basis set is 6-31+G(d)
 There are 71 shells and 197 basis functions

 Total QAlloc Memory Limit   8000 MB
 Mega-Array Size      1956 MB
 MEM_STATIC part      2000 MB
 Discretize the solute cavity surface with Lebedev spheres
	Using 302 Lebedev grid points for each H atom
	Using 302 Lebedev grid points for other atoms
	Atomic van der Waals radii will be scaled by 1.20
 Remove points where switching function is < 1.0e-08
 Keep 2715 surface tesserae and discard 3929 interior tesserae
 Molecular Surface Area = 182.762 Angst**2
 A cutoff of  1.0D-14 yielded   2410 shell pairs
 There are     18990 function pairs
 Smallest overlap matrix eigenvalue = 2.31E-05

 Scale SEOQF with 1.000000e-01/1.000000e-02/1.000000e-03

 Standard Electronic Orientation quadrupole field applied
 Nucleus-field energy     =     0.0000000281 hartrees
 Guess from superposition of atomic densities
 Warning:  Energy on first SCF cycle will be non-variational
 SAD guess density has 70.000000 electrons

 -----------------------------------------------------------------------
  General SCF calculation program by
  Eric Jon Sundstrom, Paul Horn, Yuezhi Mao, Dmitri Zuev, Alec White,
  David Stuck, Shaama M.S., Shane Yost, Joonho Lee, David Small,
  Daniel Levine, Susi Lehtola, Hugh Burton, Evgeny Epifanovsky,
  Bang C. Huynh
 -----------------------------------------------------------------------
 Exchange:     0.2000 Hartree-Fock + 0.0800 Slater + 0.7200 B88
 Correlation:  0.1900 VWN1RPA + 0.8100 LYP
 Using Euler-Maclaurin-Lebedev (99,590) quadrature formula
 using 16 threads for integral computing
 -------------------------------------------------------
 OpenMP Integral computing Module                
 Release: version 2.0, May 2017, Q-Chem Inc. Pleasanton 
 -------------------------------------------------------
 A restricted SCF calculation will be
 performed using DIIS
 SCF converges when DIIS error is below 1.0e-08
 ---------------------------------------
  Cycle       Energy         DIIS error
 ---------------------------------------
    1    -406.2393373780      5.09e-02  
    2    -404.3912881609      6.42e-03  
    3    -404.1770639209      9.84e-03  
    4    -404.5672148944      1.95e-03  
    5    -404.5813326449      5.32e-04  
    6    -404.5824339383      1.54e-04  
    7    -404.5825266468      5.49e-05  
    8    -404.5825393928      9.70e-06  
    9    -404.5825397850      2.30e-06  
   10    -404.5825398074      5.39e-07  
   11    -404.5825398086      1.85e-07  
   12    -404.5825398088      2.26e-08  
   13    -404.5825398088      5.67e-09  Convergence criterion met
 ---------------------------------------
 SCF time:   CPU 897.16s  wall 67.00s 

************** Final PCM Free Energy Summary **************
 G_electrostatic  =      -0.01793958 hartree =     -11.25725877 kcal/mol
 G_cavitation     =       0.00000000 hartree =       0.00000000 kcal/mol
 G_dispersion     =       0.00000000 hartree =       0.00000000 kcal/mol
 G_repulsion      =       0.00000000 hartree =       0.00000000 kcal/mol
 --------------------------------------------------
 Non-electrostatic Free Energy =       0.00000000 hartree =       0.00000000 kcal/mol
 Total                         =      -0.01793958 hartree =     -11.25725877 kcal/mol
 --------------------------------------------------
 SCF Energy (H0 + V/2)                       =    -404.58253981 
 Solute Internal Energy (H0)                 =    -404.56460022 
 Total Free Energy (H0 + V/2 + non-elec)     =    -404.58253981 hartree
                                             = -253879.37553123 kcal/mol
***********************************************************

 SCF   energy in the final basis set =     -404.5825398088
 Total energy in the final basis set =     -404.5825398088
 
 --------------------------------------------------------------
 
                    Orbital Energies (a.u.)
 --------------------------------------------------------------
 
 Alpha MOs
 -- Occupied --
-19.1405 -14.3682 -10.2971 -10.2278 -10.1799 -10.1796 -10.1796 -10.1771
-10.1737  -1.0508  -0.9295  -0.8208  -0.7421  -0.7396  -0.6386  -0.6102
 -0.5929  -0.5608  -0.5286  -0.4852  -0.4598  -0.4438  -0.4407  -0.4234
 -0.4194  -0.3978  -0.3786  -0.3666  -0.3481  -0.3449  -0.3200  -0.3051
 -0.3035  -0.2764  -0.2564
 -- Virtual --
  0.0051   0.0092   0.0184   0.0247   0.0261   0.0414   0.0491   0.0498
  0.0588   0.0685   0.0705   0.0842   0.0866   0.0967   0.1025   0.1053
  0.1124   0.1166   0.1308   0.1344   0.1408   0.1513   0.1561   0.1647
  0.1710   0.1804   0.1819   0.1863   0.2012   0.2038   0.2099   0.2114
  0.2200   0.2269   0.2334   0.2443   0.2511   0.2560   0.2656   0.2710
  0.2756   0.2793   0.2843   0.2913   0.3025   0.3062   0.3163   0.3274
  0.3350   0.3398   0.3505   0.3749   0.3793   0.3819   0.4163   0.4280
  0.4393   0.4562   0.4861   0.6127   0.6449   0.6611   0.6640   0.6746
  0.6921   0.7050   0.7259   0.7324   0.7485   0.7528   0.7698   0.7787
  0.7952   0.8079   0.8300   0.8394   0.8688   0.8992   0.9506   0.9721
  0.9868   0.9986   1.0256   1.0281   1.0410   1.0619   1.0764   1.1148
  1.1200   1.1284   1.1352   1.1415   1.1457   1.1649   1.1763   1.1920
  1.2390   1.2441   1.2846   1.3159   1.3291   1.3712   1.4090   1.4192
  1.4687   1.4882   1.4962   1.5583   1.5856   1.6173   1.6711   1.7084
  1.7378   1.7596   1.7771   1.7799   1.8254   1.8692   1.8917   1.9009
  1.9231   1.9583   1.9747   2.0055   2.0066   2.0394   2.0722   2.0846
  2.0990   2.1406   2.1873   2.2109   2.2828   2.3035   2.3159   2.3431
  2.3883   2.3973   2.4371   2.4474   2.4615   2.5602   2.5729   2.6125
  2.6791   2.6962   2.7047   2.7522   2.7774   2.8342   2.8739   3.0073
  3.1827   4.0835   4.1858   4.2283   4.2979   4.3453   4.4124   4.5909
  4.6109   4.6593
 --------------------------------------------------------------
 
          Ground-State Mulliken Net Atomic Charges

     Atom                 Charge (a.u.)
  ----------------------------------------
      1 C                    -0.335678
      2 C                    -0.429903
      3 C                    -0.295810
      4 C                    -0.449547
      5 C                    -0.357529
      6 C                    -0.451917
      7 H                     0.209505
      8 H                     0.235962
      9 H                     0.223842
     10 H                     0.210629
     11 H                     0.206219
     12 H                     0.202425
     13 H                     0.201835
     14 H                     0.198771
     15 H                     0.203014
     16 H                     0.207112
     17 H                     0.214916
     18 N                    -0.388810
     19 H                     0.453883
     20 C                     0.342333
     21 H                     0.187667
     22 O                    -0.588919
  ----------------------------------------
  Sum of atomic charges =     0.000000

 -----------------------------------------------------------------
                    Cartesian Multipole Moments
 -----------------------------------------------------------------
    Charge (ESU x 10^10)
                 0.0000
    Dipole Moment (Debye)
         X       5.0477      Y       2.2355      Z       0.7142
       Tot       5.5666
    Quadrupole Moments (Debye-Ang)
        XX     -61.0747     XY      50.3707     YY     -11.4191
        XZ      90.9900     YZ      48.1377     ZZ     -25.5412
    Octopole Moments (Debye-Ang^2)
       XXX     -71.2302    XXY    -634.2275    XYY     475.8922
       YYY   -1094.5011    XXZ   -1221.6162    XYZ     909.1456
       YYZ    -241.7085    XZZ    1612.5759    YZZ     472.2775
       ZZZ   -2440.5645
    Hexadecapole Moments (Debye-Ang^3)
      XXXX    -514.8889   XXXY    -763.4888   XXYY   -6738.3075
      XYYY    4171.5004   YYYY  -28450.1096   XXXZ   -1689.1089
      XXYZ  -12737.2912   XYYZ    8470.0883   YYYZ  -22706.8927
      XXZZ  -24751.1823   XYZZ   16119.6432   YYZZ  -11156.2681
      XZZZ   27674.5149   YZZZ  -12190.3308   ZZZZ -112242.7181
 -----------------------------------------------------------------
 Calculating analytic gradient of the SCF energy
 Gradient of SCF Energy
            1           2           3           4           5           6
    1   0.0281385  -0.0362890  -0.0065068   0.0011745  -0.0258375   0.0074780
    2  -0.0383454  -0.0032096   0.0080226   0.0025748  -0.0026865   0.0210096
    3  -0.0003315  -0.0123716   0.0052433  -0.0022195   0.0178760  -0.0084810
            7           8           9          10          11          12
    1   0.0101744   0.0085555  -0.0111939   0.0023597   0.0031508   0.0044573
    2  -0.0009316  -0.0004959   0.0186257   0.0033299   0.0105551   0.0019556
    3  -0.0046811   0.0136460   0.0036718   0.0088655   0.0002828  -0.0064694
           13          14          15          16          17          18
    1   0.0096060  -0.0069858  -0.0015185   0.0007056   0.0005149   0.0214290
    2  -0.0003497  -0.0077852  -0.0008112  -0.0003539  -0.0100535   0.0018443
    3  -0.0018273  -0.0032573  -0.0080899   0.0036903  -0.0066307   0.0159119
           19          20          21          22
    1   0.0065549  -0.0456117   0.0090174   0.0206267
    2   0.0025822  -0.0197215   0.0066015   0.0076427
    3  -0.0026148  -0.0096046  -0.0030075   0.0003986
 Max gradient component =       4.561E-02
 RMS gradient           =       1.291E-02
 Computing fast CPCM-SWIG gradient
 Updating gradient with PCM contributions...
 -- total gradient after adding PCM contribution --
---------------------------------------------------
  Atom         X              Y              Z     
---------------------------------------------------
   1       0.031346      -0.028875      -0.003623
   2      -0.035305      -0.003199      -0.015067
   3       0.002212       0.006701       0.001004
   4       0.001107      -0.001738       0.001063
   5      -0.019916      -0.001077       0.020780
   6       0.003882       0.024026      -0.005460
   7       0.008994       0.000312      -0.003961
   8       0.006766      -0.001249       0.012067
   9      -0.015297       0.014136       0.005467
  10       0.002899       0.001868       0.008762
  11       0.004724       0.010865      -0.000198
  12       0.001648       0.002917      -0.006858
  13       0.009318      -0.000125      -0.004205
  14      -0.009741      -0.008638      -0.002325
  15       0.000135      -0.000259      -0.007858
  16      -0.000127      -0.003467       0.002674
  17      -0.004681      -0.011486      -0.003963
  18       0.031834       0.007015       0.011916
  19      -0.006535      -0.003235       0.003102
  20      -0.038712      -0.017035      -0.015365
  21       0.004676       0.004498       0.000651
  22       0.020775       0.008044       0.001399
---------------------------------------------------
 Number of fixed atoms: 0
 Gradient time:  CPU 127.79 s  wall 11.73 s
 Geometry Optimization Parameters
   NAtoms,    NIC,     NZ,  NCons,   NDum,   NFix, NCnnct, MaxDiis
       22     172       0       0       0       0       0       0


** GEOMETRY OPTIMIZATION IN DELOCALIZED INTERNAL COORDINATES **
   Searching for a Minimum

   Optimization Cycle:   1

                       Coordinates (Angstroms)
     ATOM                X               Y               Z
      1  C         0.5800000000   11.8300000000   20.4100000000
      2  C         0.4200000000   10.4100000000   19.8300000000
      3  C         1.5300000000    9.5300000000   20.4400000000
      4  C         1.4400000000    9.5300000000   21.9800000000
      5  C         1.3700000000   10.9200000000   22.6500000000
      6  C         0.4200000000   11.9000000000   21.9400000000
      7  H         1.4900000000    8.5000000000   20.0500000000
      8  H        -0.5200000000   10.0000000000   20.2000000000
      9  H         1.4000000000   12.4700000000   20.0800000000
     10  H        -0.2800000000   12.4300000000   20.0800000000
     11  H         0.5400000000    9.0000000000   22.2800000000
     12  H         2.3200000000    8.9900000000   22.3400000000
     13  H         1.2700000000   10.8300000000   23.7300000000
     14  H         2.3700000000   11.3200000000   22.5000000000
     15  H        -0.6300000000   11.6200000000   22.1100000000
     16  H         0.5600000000   12.9100000000   22.3300000000
     17  H         2.5100000000    9.8400000000   20.0700000000
     18  N         0.5400000000   10.4100000000   18.3800000000
     19  H         1.3900000000   10.7800000000   17.9900000000
     20  C        -0.4700000000   10.0900000000   17.5000000000
     21  H        -0.1600000000   10.3000000000   16.4600000000
     22  O        -1.5600000000    9.6600000000   17.8400000000
   Point Group: c1    Number of degrees of freedom:    60


   Energy is   -404.582539809


 Attempting to generate delocalized internal coordinates
 Initial Hessian constructed with Jon Baker's OPTIMIZE code

 60 Hessian modes will be used to form the next step
  Hessian Eigenvalues:
     0.004850    0.005407    0.006560    0.008376    0.012775    0.018054
     0.018651    0.018677    0.019042    0.033610    0.034591    0.037072
     0.041066    0.046592    0.048162    0.049493    0.050142    0.053390
     0.056519    0.060833    0.066651    0.080982    0.082752    0.082982
     0.085572    0.087172    0.089974    0.096067    0.124538    0.124890
     0.139174    0.159119    0.160000    0.162683    0.172956    0.213045
     0.220010    0.220236    0.268980    0.271008    0.272947    0.282129
     0.284145    0.285211    0.330973    0.334522    0.336922    0.337577
     0.344187    0.345335    0.346174    0.346647    0.347861    0.350043
     0.351115    0.351977    0.376029    0.466943    0.496029    0.953470

 Minimum search - taking simple RFO step
 Searching for Lamda that Minimizes Along All modes
 Value Taken    Lamda =  -0.02470287
 Calculated Step too Large.  Step scaled by  0.540188
 Step Taken.  Stepsize is  0.300000

                             Maximum     Tolerance    Cnvgd?
         Gradient           0.023609      0.000100      NO
         Displacement       0.182957      0.000100      NO
         Energy change     *********      0.000000      NO


 New Cartesian Coordinates Obtained by Inverse Iteration

 Displacement from previous Coordinates is:  0.267021
 ----------------------------------------------------------------
             Standard Nuclear Orientation (Angstroms)
    I     Atom           X                Y                Z
 ----------------------------------------------------------------
    1      C       0.5515095853    11.8426093568    20.4041881079
    2      C       0.4306090984    10.4213401694    19.8311895575
    3      C       1.5290836709     9.5322555718    20.4535957409
    4      C       1.4379066848     9.5176733404    21.9896857181
    5      C       1.3994106690    10.9216684359    22.6312495887
    6      C       0.4159494137    11.8824425268    21.9422839463
    7      H       1.4701989763     8.5048777847    20.0608453631
    8      H      -0.5271016023    10.0119889934    20.1566814975
    9      H       1.4044868533    12.4403017095    20.0661554225
   10      H      -0.3040648389    12.4344245998    20.0395156896
   11      H       0.5319425525     8.9811495532    22.2856596803
   12      H       2.3069134678     8.9681507662    22.3671475603
   13      H       1.2803861594    10.8439923829    23.7141379849
   14      H       2.4026090960    11.3384498810    22.4828865403
   15      H      -0.6235220458    11.5916359115    22.1589747994
   16      H       0.5570341321    12.8966949654    22.3256980613
   17      H       2.5170531992     9.8610987819    20.1078694648
   18      N       0.5399241418    10.4257649918    18.3798493730
   19      H       1.3920818197    10.7968890459    17.9837782222
   20      C      -0.4644660190    10.1066886214    17.5096446632
   21      H      -0.1564098569    10.2841813609    16.4643510377
   22      O      -1.5615351573     9.6657212495    17.8346119807
 ----------------------------------------------------------------
 Nuclear Repulsion Energy =         465.45866415 hartrees
 There are       35 alpha and       35 beta electrons
 Discretize the solute cavity surface with Lebedev spheres
	Using 302 Lebedev grid points for each H atom
	Using 302 Lebedev grid points for other atoms
	Atomic van der Waals radii will be scaled by 1.20
 Remove points where switching function is < 1.0e-08
 Keep 2736 surface tesserae and discard 3908 interior tesserae
 Molecular Surface Area = 182.933 Angst**2
 Applying Cartesian multipole field
    Component          Value
    ---------          -----
     (2,0,0)        1.00000E-11
     (0,2,0)        2.00000E-12
     (0,0,2)       -3.00000E-13
 Nucleus-field energy     =     0.0000000281 hartrees
 Requested basis set is 6-31+G(d)
 There are 71 shells and 197 basis functions
 A cutoff of  1.0D-14 yielded   2411 shell pairs
 There are     18991 function pairs
 Smallest overlap matrix eigenvalue = 2.36E-05
 Guess MOs from SCF MO coefficient file

 -----------------------------------------------------------------------
  General SCF calculation program by
  Eric Jon Sundstrom, Paul Horn, Yuezhi Mao, Dmitri Zuev, Alec White,
  David Stuck, Shaama M.S., Shane Yost, Joonho Lee, David Small,
  Daniel Levine, Susi Lehtola, Hugh Burton, Evgeny Epifanovsky,
  Bang C. Huynh
 -----------------------------------------------------------------------
 Exchange:     0.2000 Hartree-Fock + 0.0800 Slater + 0.7200 B88
 Correlation:  0.1900 VWN1RPA + 0.8100 LYP
 Using Euler-Maclaurin-Lebedev (99,590) quadrature formula
 using 16 threads for integral computing
 -------------------------------------------------------
 OpenMP Integral computing Module                
 Release: version 2.0, May 2017, Q-Chem Inc. Pleasanton 
 -------------------------------------------------------
 A restricted SCF calculation will be
 performed using Roothaan-Hall, DIIS
 SCF converges when DIIS error is below 1.0e-08
 ---------------------------------------
  Cycle       Energy         DIIS error
 ---------------------------------------
    1    -404.5736869013      7.24e-04  Roothaan Step
 ---------------------------------------
  Cycle       Energy         DIIS error
 ---------------------------------------
    1    -404.5826431733      1.24e-03  
    2    -404.5663131758      2.67e-03  
    3    -404.5931171011      2.08e-04  
    4    -404.5932703033      1.21e-04  
    5    -404.5933266308      3.55e-05  
    6    -404.5933318320      9.28e-06  
    7    -404.5933321754      2.93e-06  
    8    -404.5933322163      5.46e-07  
    9    -404.5933322175      2.43e-07  
   10    -404.5933322178      4.44e-08  
   11    -404.5933322178      1.31e-08  
   12    -404.5933322178      3.00e-09  Convergence criterion met
 ---------------------------------------
 SCF time:   CPU 883.83s  wall 62.00s 

************** Final PCM Free Energy Summary **************
 G_electrostatic  =      -0.01842021 hartree =     -11.55885599 kcal/mol
 G_cavitation     =       0.00000000 hartree =       0.00000000 kcal/mol
 G_dispersion     =       0.00000000 hartree =       0.00000000 kcal/mol
 G_repulsion      =       0.00000000 hartree =       0.00000000 kcal/mol
 --------------------------------------------------
 Non-electrostatic Free Energy =       0.00000000 hartree =       0.00000000 kcal/mol
 Total                         =      -0.01842021 hartree =     -11.55885599 kcal/mol
 --------------------------------------------------
 SCF Energy (H0 + V/2)                       =    -404.59333222 
 Solute Internal Energy (H0)                 =    -404.57491201 
 Total Free Energy (H0 + V/2 + non-elec)     =    -404.59333222 hartree
                                             = -253886.14787013 kcal/mol
***********************************************************

 SCF   energy in the final basis set =     -404.5933322178
 Total energy in the final basis set =     -404.5933322178
 
 --------------------------------------------------------------
 
                    Orbital Energies (a.u.)
 --------------------------------------------------------------
 
 Alpha MOs
 -- Occupied --
-19.1389 -14.3697 -10.2962 -10.2265 -10.1812 -10.1807 -10.1800 -10.1784
-10.1758  -1.0471  -0.9313  -0.8209  -0.7410  -0.7404  -0.6382  -0.6106
 -0.5924  -0.5609  -0.5272  -0.4848  -0.4593  -0.4429  -0.4390  -0.4216
 -0.4194  -0.3964  -0.3781  -0.3700  -0.3477  -0.3439  -0.3194  -0.3085
 -0.3063  -0.2749  -0.2584
 -- Virtual --
  0.0058   0.0094   0.0182   0.0244   0.0261   0.0414   0.0491   0.0493
  0.0590   0.0687   0.0706   0.0843   0.0867   0.0969   0.1019   0.1053
  0.1123   0.1168   0.1292   0.1342   0.1411   0.1516   0.1560   0.1633
  0.1709   0.1803   0.1818   0.1867   0.2011   0.2027   0.2107   0.2111
  0.2215   0.2272   0.2328   0.2456   0.2505   0.2562   0.2647   0.2719
  0.2760   0.2805   0.2842   0.2903   0.3022   0.3047   0.3152   0.3268
  0.3340   0.3364   0.3527   0.3751   0.3803   0.3833   0.4167   0.4244
  0.4389   0.4549   0.4845   0.6111   0.6433   0.6605   0.6644   0.6728
  0.6894   0.7027   0.7265   0.7320   0.7482   0.7525   0.7712   0.7789
  0.7967   0.8061   0.8269   0.8388   0.8649   0.9035   0.9518   0.9732
  0.9848   0.9966   1.0235   1.0282   1.0379   1.0602   1.0787   1.1108
  1.1200   1.1271   1.1308   1.1418   1.1573   1.1682   1.1783   1.1860
  1.2411   1.2429   1.2822   1.3185   1.3291   1.3696   1.4114   1.4135
  1.4653   1.4875   1.4953   1.5600   1.5839   1.6190   1.6816   1.7188
  1.7369   1.7595   1.7738   1.7843   1.8276   1.8682   1.8979   1.9026
  1.9212   1.9477   1.9736   1.9991   2.0088   2.0387   2.0690   2.0840
  2.1077   2.1241   2.1934   2.2088   2.2800   2.3034   2.3126   2.3436
  2.3954   2.3995   2.4292   2.4329   2.4545   2.5588   2.5750   2.6157
  2.6843   2.6904   2.7026   2.7539   2.7734   2.8368   2.8691   3.0020
  3.1837   4.0864   4.1869   4.2274   4.2960   4.3409   4.4138   4.5951
  4.6069   4.6635
 --------------------------------------------------------------
 
          Ground-State Mulliken Net Atomic Charges

     Atom                 Charge (a.u.)
  ----------------------------------------
      1 C                    -0.320572
      2 C                    -0.416221
      3 C                    -0.301893
      4 C                    -0.449612
      5 C                    -0.364508
      6 C                    -0.454189
      7 H                     0.209587
      8 H                     0.232068
      9 H                     0.220174
     10 H                     0.209635
     11 H                     0.206320
     12 H                     0.203200
     13 H                     0.200784
     14 H                     0.199466
     15 H                     0.204519
     16 H                     0.205723
     17 H                     0.213895
     18 N                    -0.384605
     19 H                     0.453334
     20 C                     0.345316
     21 H                     0.185747
     22 O                    -0.598169
  ----------------------------------------
  Sum of atomic charges =     0.000000

 -----------------------------------------------------------------
                    Cartesian Multipole Moments
 -----------------------------------------------------------------
    Charge (ESU x 10^10)
                -0.0000
    Dipole Moment (Debye)
         X       5.1780      Y       2.2368      Z       0.8526
       Tot       5.7045
    Quadrupole Moments (Debye-Ang)
        XX     -61.1135     XY      51.7241     YY     -11.4461
        XZ      93.4494     YZ      49.3578     ZZ     -20.2448
    Octopole Moments (Debye-Ang^2)
       XXX     -70.8571    XXY    -634.3071    XYY     489.8608
       YYY   -1097.1819    XXZ   -1221.8648    XYZ     934.6123
       YYZ    -232.3939    XZZ    1659.4349    YZZ     517.8568
       ZZZ   -2287.5322
    Hexadecapole Moments (Debye-Ang^3)
      XXXX    -517.2699   XXXY    -757.9468   XXYY   -6736.0632
      XYYY    4314.0890   YYYY  -28538.8731   XXXZ   -1683.0293
      XXYZ  -12732.5205   XYYZ    8731.7195   YYYZ  -22683.6618
      XXZZ  -24746.1525   XYZZ   16602.7244   YYZZ  -10802.8858
      XZZZ   28573.2327   YZZZ  -10893.5279   ZZZZ -108286.7065
 -----------------------------------------------------------------
 Calculating analytic gradient of the SCF energy
 Gradient of SCF Energy
            1           2           3           4           5           6
    1   0.0187200  -0.0233416  -0.0090187   0.0013210  -0.0209647   0.0058063
    2  -0.0301238  -0.0006537   0.0066317   0.0014242  -0.0020454   0.0115690
    3   0.0000184  -0.0102540   0.0079636  -0.0031296   0.0103582  -0.0045806
            7           8           9          10          11          12
    1   0.0068926   0.0064175  -0.0054617  -0.0002419   0.0004305   0.0044262
    2  -0.0021034   0.0007527   0.0147904   0.0037679   0.0044529   0.0011704
    3  -0.0027296   0.0098898  -0.0001051   0.0038404   0.0001106  -0.0034113
           13          14          15          16          17          18
    1   0.0066183  -0.0007777  -0.0024472   0.0013618   0.0036035   0.0096017
    2  -0.0010199  -0.0026726  -0.0006703   0.0005658  -0.0055892  -0.0012543
    3   0.0001104  -0.0022613  -0.0043649   0.0024371  -0.0054676   0.0126808
           19          20          21          22
    1   0.0102307  -0.0348838   0.0078379   0.0138692
    2   0.0042969  -0.0110604   0.0039385   0.0038325
    3  -0.0036539  -0.0038331  -0.0029808  -0.0006373
 Max gradient component =       3.488E-02
 RMS gradient           =       9.197E-03
 Computing fast CPCM-SWIG gradient
 Updating gradient with PCM contributions...
 -- total gradient after adding PCM contribution --
---------------------------------------------------
  Atom         X              Y              Z     
---------------------------------------------------
   1       0.022752      -0.021428      -0.003784
   2      -0.022624      -0.000754      -0.013140
   3      -0.000138       0.005487       0.003903
   4       0.001281      -0.003255       0.000301
   5      -0.015044      -0.000101       0.013543
   6       0.002095       0.014811      -0.001445
   7       0.005924      -0.000665      -0.002093
   8       0.004425      -0.000097       0.008392
   9      -0.010118       0.010851       0.002002
  10       0.000370       0.002313       0.004055
  11       0.002063       0.005012      -0.000379
  12       0.001577       0.002250      -0.004006
  13       0.006492      -0.000802      -0.002317
  14      -0.003836      -0.003806      -0.001357
  15      -0.000765      -0.000068      -0.004426
  16       0.000483      -0.002468       0.001500
  17      -0.001739      -0.007399      -0.003043
  18       0.020243       0.004050       0.008861
  19      -0.003057      -0.001642       0.002045
  20      -0.027922      -0.008454      -0.009302
  21       0.003466       0.001973       0.000495
  22       0.014069       0.004191       0.000194
---------------------------------------------------
 Number of fixed atoms: 0
 Gradient time:  CPU 126.68 s  wall 12.64 s
 Geometry Optimization Parameters
   NAtoms,    NIC,     NZ,  NCons,   NDum,   NFix, NCnnct, MaxDiis
       22     172       0       0       0       0       0       0

 Cartesian Hessian Update
 Hessian updated using BFGS update


** GEOMETRY OPTIMIZATION IN DELOCALIZED INTERNAL COORDINATES **
   Searching for a Minimum

   Optimization Cycle:   2

                       Coordinates (Angstroms)
     ATOM                X               Y               Z
      1  C         0.5515095853   11.8426093568   20.4041881079
      2  C         0.4306090984   10.4213401694   19.8311895575
      3  C         1.5290836709    9.5322555718   20.4535957409
      4  C         1.4379066848    9.5176733404   21.9896857181
      5  C         1.3994106690   10.9216684359   22.6312495887
      6  C         0.4159494137   11.8824425268   21.9422839463
      7  H         1.4701989763    8.5048777847   20.0608453631
      8  H        -0.5271016023   10.0119889934   20.1566814975
      9  H         1.4044868533   12.4403017095   20.0661554225
     10  H        -0.3040648389   12.4344245998   20.0395156896
     11  H         0.5319425525    8.9811495532   22.2856596803
     12  H         2.3069134678    8.9681507662   22.3671475603
     13  H         1.2803861594   10.8439923829   23.7141379849
     14  H         2.4026090960   11.3384498810   22.4828865403
     15  H        -0.6235220458   11.5916359115   22.1589747994
     16  H         0.5570341321   12.8966949654   22.3256980613
     17  H         2.5170531992    9.8610987819   20.1078694648
     18  N         0.5399241418   10.4257649918   18.3798493730
     19  H         1.3920818197   10.7968890459   17.9837782222
     20  C        -0.4644660190   10.1066886214   17.5096446632
     21  H        -0.1564098569   10.2841813609   16.4643510377
     22  O        -1.5615351573    9.6657212495   17.8346119807
   Point Group: c1    Number of degrees of freedom:    60


   Energy is   -404.593332218

 Hessian updated using BFGS update

 60 Hessian modes will be used to form the next step
  Hessian Eigenvalues:
     0.004847    0.005414    0.006557    0.008377    0.012772    0.017374
     0.018564    0.018771    0.019914    0.033191    0.035896    0.037093
     0.041537    0.046154    0.047340    0.049690    0.051186    0.053458
     0.057145    0.060705    0.066925    0.080926    0.082138    0.083335
     0.084316    0.087372    0.090015    0.093099    0.123592    0.125504
     0.139275    0.158068    0.159331    0.162701    0.178970    0.211982
     0.220076    0.220294    0.269244    0.272586    0.275326    0.281713
     0.284850    0.286893    0.330948    0.334419    0.336965    0.338685
     0.344130    0.345321    0.345898    0.346579    0.347707    0.349713
     0.351686    0.356310    0.376842    0.465973    0.484188    0.939343

 Minimum search - taking simple RFO step
 Searching for Lamda that Minimizes Along All modes
 Value Taken    Lamda =  -0.01336815
 Calculated Step too Large.  Step scaled by  0.584242
 Step Taken.  Stepsize is  0.300000

                             Maximum     Tolerance    Cnvgd?
         Gradient           0.015873      0.000100      NO
         Displacement       0.164916      0.000100      NO
         Energy change     -0.010792      0.000000      NO


 New Cartesian Coordinates Obtained by Inverse Iteration

 Displacement from previous Coordinates is:  0.250600
 ----------------------------------------------------------------
             Standard Nuclear Orientation (Angstroms)
    I     Atom           X                Y                Z
 ----------------------------------------------------------------
    1      C       0.5195843011    11.8493469566    20.4053175756
    2      C       0.4371530696    10.4244204746    19.8372520418
    3      C       1.5286119980     9.5341014378    20.4607068169
    4      C       1.4357386356     9.5141494103    21.9942393675
    5      C       1.4275382796    10.9262192666    22.6089381593
    6      C       0.4122580306    11.8676732765    21.9432039417
    7      H       1.4524923464     8.5127045789    20.0602615581
    8      H      -0.5334793580    10.0059908991    20.1164163139
    9      H       1.4090436673    12.3987216281    20.0702335190
   10      H      -0.3288987018    12.4334531770    20.0155695595
   11      H       0.5223453805     8.9838026122    22.2935267697
   12      H       2.2899041597     8.9501627642    22.3879091739
   13      H       1.2898728160    10.8671018347    23.6942477595
   14      H       2.4316093336    11.3495488622    22.4561751320
   15      H      -0.6135734867    11.5641735308    22.2017996182
   16      H       0.5501185526    12.8876295480    22.3190814592
   17      H       2.5188260301     9.8863276739    20.1363879323
   18      N       0.5453294051    10.4291531235    18.3829301757
   19      H       1.3975066739    10.8035594271    17.9818786013
   20      C      -0.4436712183    10.0998002794    17.5188687724
   21      H      -0.1538255305    10.2883906919    16.4712817859
   22      O      -1.5644843845     9.6935685468    17.8337739666
 ----------------------------------------------------------------
 Nuclear Repulsion Energy =         465.99982907 hartrees
 There are       35 alpha and       35 beta electrons
 Discretize the solute cavity surface with Lebedev spheres
	Using 302 Lebedev grid points for each H atom
	Using 302 Lebedev grid points for other atoms
	Atomic van der Waals radii will be scaled by 1.20
 Remove points where switching function is < 1.0e-08
 Keep 2747 surface tesserae and discard 3897 interior tesserae
 Molecular Surface Area = 182.743 Angst**2
 Applying Cartesian multipole field
    Component          Value
    ---------          -----
     (2,0,0)        1.00000E-11
     (0,2,0)        2.00000E-12
     (0,0,2)       -3.00000E-13
 Nucleus-field energy     =     0.0000000281 hartrees
 Requested basis set is 6-31+G(d)
 There are 71 shells and 197 basis functions
 A cutoff of  1.0D-14 yielded   2411 shell pairs
 There are     18991 function pairs
 Smallest overlap matrix eigenvalue = 2.39E-05
 Guess MOs from SCF MO coefficient file

 -----------------------------------------------------------------------
  General SCF calculation program by
  Eric Jon Sundstrom, Paul Horn, Yuezhi Mao, Dmitri Zuev, Alec White,
  David Stuck, Shaama M.S., Shane Yost, Joonho Lee, David Small,
  Daniel Levine, Susi Lehtola, Hugh Burton, Evgeny Epifanovsky,
  Bang C. Huynh
 -----------------------------------------------------------------------
 Exchange:     0.2000 Hartree-Fock + 0.0800 Slater + 0.7200 B88
 Correlation:  0.1900 VWN1RPA + 0.8100 LYP
 Using Euler-Maclaurin-Lebedev (99,590) quadrature formula
 using 16 threads for integral computing
 -------------------------------------------------------
 OpenMP Integral computing Module                
 Release: version 2.0, May 2017, Q-Chem Inc. Pleasanton 
 -------------------------------------------------------
 A restricted SCF calculation will be
 performed using Roothaan-Hall, DIIS
 SCF converges when DIIS error is below 1.0e-08
 ---------------------------------------
  Cycle       Energy         DIIS error
 ---------------------------------------
    1    -404.5783409133      7.73e-04  Roothaan Step
 ---------------------------------------
  Cycle       Energy         DIIS error
 ---------------------------------------
    1    -404.5877221445      1.28e-03  
    2    -404.5700528815      2.76e-03  
    3    -404.5988755823      2.16e-04  
    4    -404.5990418266      1.25e-04  
    5    -404.5991019876      3.63e-05  
    6    -404.5991074477      9.33e-06  
    7    -404.5991077864      3.14e-06  
    8    -404.5991078335      5.71e-07  
    9    -404.5991078349      2.50e-07  
   10    -404.5991078352      4.54e-08  
   11    -404.5991078352      1.27e-08  
   12    -404.5991078352      3.08e-09  Convergence criterion met
 ---------------------------------------
 SCF time:   CPU 903.79s  wall 62.00s 

************** Final PCM Free Energy Summary **************
 G_electrostatic  =      -0.01904898 hartree =     -11.95341443 kcal/mol
 G_cavitation     =       0.00000000 hartree =       0.00000000 kcal/mol
 G_dispersion     =       0.00000000 hartree =       0.00000000 kcal/mol
 G_repulsion      =       0.00000000 hartree =       0.00000000 kcal/mol
 --------------------------------------------------
 Non-electrostatic Free Energy =       0.00000000 hartree =       0.00000000 kcal/mol
 Total                         =      -0.01904898 hartree =     -11.95341443 kcal/mol
 --------------------------------------------------
 SCF Energy (H0 + V/2)                       =    -404.59910784 
 Solute Internal Energy (H0)                 =    -404.58005886 
 Total Free Energy (H0 + V/2 + non-elec)     =    -404.59910784 hartree
                                             = -253889.77212472 kcal/mol
***********************************************************

 SCF   energy in the final basis set =     -404.5991078352
 Total energy in the final basis set =     -404.5991078352
 
 --------------------------------------------------------------
 
                    Orbital Energies (a.u.)
 --------------------------------------------------------------
 
 Alpha MOs
 -- Occupied --
-19.1367 -14.3708 -10.2948 -10.2255 -10.1818 -10.1813 -10.1797 -10.1790
-10.1769  -1.0431  -0.9330  -0.8223  -0.7419  -0.7411  -0.6379  -0.6112
 -0.5921  -0.5613  -0.5264  -0.4845  -0.4596  -0.4428  -0.4382  -0.4208
 -0.4187  -0.3956  -0.3775  -0.3728  -0.3470  -0.3437  -0.3194  -0.3103
 -0.3084  -0.2730  -0.2597
 -- Virtual --
  0.0074   0.0087   0.0179   0.0241   0.0262   0.0415   0.0488   0.0492
  0.0593   0.0690   0.0706   0.0843   0.0869   0.0967   0.1015   0.1054
  0.1123   0.1172   0.1279   0.1342   0.1412   0.1518   0.1562   0.1626
  0.1707   0.1804   0.1820   0.1875   0.2002   0.2029   0.2105   0.2126
  0.2225   0.2271   0.2325   0.2463   0.2498   0.2559   0.2647   0.2720
  0.2769   0.2824   0.2849   0.2912   0.2998   0.3045   0.3148   0.3269
  0.3326   0.3345   0.3559   0.3746   0.3826   0.3857   0.4174   0.4222
  0.4398   0.4551   0.4838   0.6102   0.6417   0.6596   0.6647   0.6710
  0.6878   0.7013   0.7278   0.7326   0.7447   0.7552   0.7730   0.7795
  0.7982   0.8057   0.8245   0.8402   0.8636   0.9067   0.9530   0.9748
  0.9828   0.9946   1.0221   1.0283   1.0339   1.0588   1.0825   1.1071
  1.1208   1.1251   1.1293   1.1420   1.1649   1.1726   1.1817   1.1852
  1.2396   1.2453   1.2810   1.3204   1.3323   1.3721   1.4039   1.4145
  1.4713   1.4868   1.4902   1.5620   1.5846   1.6201   1.6883   1.7272
  1.7408   1.7592   1.7689   1.7923   1.8334   1.8717   1.9025   1.9099
  1.9187   1.9400   1.9723   2.0042   2.0097   2.0419   2.0648   2.0856
  2.1140   2.1186   2.2002   2.2103   2.2800   2.3007   2.3203   2.3421
  2.3994   2.4092   2.4210   2.4250   2.4506   2.5592   2.5800   2.6196
  2.6846   2.6888   2.7043   2.7564   2.7765   2.8384   2.8669   2.9972
  3.1865   4.0908   4.1901   4.2290   4.2967   4.3383   4.4142   4.6000
  4.6052   4.6675
 --------------------------------------------------------------
 
          Ground-State Mulliken Net Atomic Charges

     Atom                 Charge (a.u.)
  ----------------------------------------
      1 C                    -0.305828
      2 C                    -0.410476
      3 C                    -0.297327
      4 C                    -0.452440
      5 C                    -0.370941
      6 C                    -0.457539
      7 H                     0.210244
      8 H                     0.229399
      9 H                     0.217035
     10 H                     0.209954
     11 H                     0.206588
     12 H                     0.203578
     13 H                     0.199992
     14 H                     0.200980
     15 H                     0.206005
     16 H                     0.204805
     17 H                     0.213696
     18 N                    -0.381370
     19 H                     0.452860
     20 C                     0.345134
     21 H                     0.184709
     22 O                    -0.609056
  ----------------------------------------
  Sum of atomic charges =     0.000000

 -----------------------------------------------------------------
                    Cartesian Multipole Moments
 -----------------------------------------------------------------
    Charge (ESU x 10^10)
                 0.0000
    Dipole Moment (Debye)
         X       5.3375      Y       2.1837      Z       0.9877
       Tot       5.8509
    Quadrupole Moments (Debye-Ang)
        XX     -61.2091     XY      53.4641     YY     -12.4884
        XZ      96.4037     YZ      49.6887     ZZ     -15.0910
    Octopole Moments (Debye-Ang^2)
       XXX     -70.4486    XXY    -635.0613    XYY     508.4382
       YYY   -1113.6056    XXZ   -1223.2015    XYZ     966.7556
       YYZ    -239.1084    XZZ    1714.2950    YZZ     549.4618
       ZZZ   -2139.2101
    Hexadecapole Moments (Debye-Ang^3)
      XXXX    -518.9244   XXXY    -751.4210   XXYY   -6741.2374
      XYYY    4508.5030   YYYY  -28782.7433   XXXZ   -1675.2713
      XXYZ  -12740.7523   XYYZ    9074.0996   YYYZ  -22870.4656
      XXZZ  -24762.0016   XYZZ   17198.2149   YYZZ  -10685.4663
      XZZZ   29593.4943   YZZZ   -9805.6544   ZZZZ -104468.2483
 -----------------------------------------------------------------
 Calculating analytic gradient of the SCF energy
 Gradient of SCF Energy
            1           2           3           4           5           6
    1   0.0073058  -0.0108096  -0.0104921   0.0009066  -0.0151147   0.0050734
    2  -0.0201563   0.0007177   0.0044934   0.0033154  -0.0026987   0.0035433
    3   0.0023933  -0.0053176   0.0071814  -0.0041340   0.0027413  -0.0034746
            7           8           9          10          11          12
    1   0.0035456   0.0042016   0.0001521  -0.0014384  -0.0007869   0.0040159
    2  -0.0021309   0.0010908   0.0097204   0.0028186   0.0009654   0.0002957
    3  -0.0018403   0.0061511  -0.0015358   0.0014890   0.0005368  -0.0011407
           13          14          15          16          17          18
    1   0.0030449   0.0025339  -0.0023359   0.0017141   0.0053561  -0.0025478
    2  -0.0006835  -0.0003158  -0.0003654   0.0018783  -0.0015147  -0.0032432
    3   0.0016940  -0.0016486  -0.0021475   0.0014316  -0.0040004   0.0087970
           19          20          21          22
    1   0.0121329  -0.0176642   0.0050941   0.0061126
    2   0.0061018  -0.0137615   0.0056091   0.0043201
    3  -0.0049010   0.0012152  -0.0028130  -0.0006771
 Max gradient component =       2.016E-02
 RMS gradient           =       5.949E-03
 Computing fast CPCM-SWIG gradient
 Updating gradient with PCM contributions...
 -- total gradient after adding PCM contribution --
---------------------------------------------------
  Atom         X              Y              Z     
---------------------------------------------------
   1       0.012211      -0.012323      -0.001730
   2      -0.010392       0.000583      -0.008452
   3      -0.001275       0.003542       0.003213
   4       0.000791      -0.001794      -0.000449
   5      -0.009132      -0.000399       0.006144
   6       0.001198       0.006994      -0.000187
   7       0.002799      -0.000446      -0.001159
   8       0.001948       0.000199       0.004707
   9      -0.005107       0.006441       0.000652
  10      -0.000766       0.001382       0.001876
  11       0.000917       0.001681      -0.000005
  12       0.001162       0.001501      -0.001907
  13       0.003133      -0.000526      -0.000788
  14      -0.000864      -0.001649      -0.000696
  15      -0.000650       0.000287      -0.002456
  16       0.000809      -0.001129       0.000568
  17      -0.000181      -0.003762      -0.001757
  18       0.008212       0.002225       0.005065
  19      -0.001312      -0.000021       0.000813
  20      -0.010660      -0.011219      -0.003980
  21       0.000707       0.003631       0.000501
  22       0.006452       0.004803       0.000029
---------------------------------------------------
 Number of fixed atoms: 0
 Gradient time:  CPU 124.67 s  wall 12.54 s
 Geometry Optimization Parameters
   NAtoms,    NIC,     NZ,  NCons,   NDum,   NFix, NCnnct, MaxDiis
       22     172       0       0       0       0       0       0

 Cartesian Hessian Update
 Hessian updated using BFGS update


** GEOMETRY OPTIMIZATION IN DELOCALIZED INTERNAL COORDINATES **
   Searching for a Minimum

   Optimization Cycle:   3

                       Coordinates (Angstroms)
     ATOM                X               Y               Z
      1  C         0.5195843011   11.8493469566   20.4053175756
      2  C         0.4371530696   10.4244204746   19.8372520418
      3  C         1.5286119980    9.5341014378   20.4607068169
      4  C         1.4357386356    9.5141494103   21.9942393675
      5  C         1.4275382796   10.9262192666   22.6089381593
      6  C         0.4122580306   11.8676732765   21.9432039417
      7  H         1.4524923464    8.5127045789   20.0602615581
      8  H        -0.5334793580   10.0059908991   20.1164163139
      9  H         1.4090436673   12.3987216281   20.0702335190
     10  H        -0.3288987018   12.4334531770   20.0155695595
     11  H         0.5223453805    8.9838026122   22.2935267697
     12  H         2.2899041597    8.9501627642   22.3879091739
     13  H         1.2898728160   10.8671018347   23.6942477595
     14  H         2.4316093336   11.3495488622   22.4561751320
     15  H        -0.6135734867   11.5641735308   22.2017996182
     16  H         0.5501185526   12.8876295480   22.3190814592
     17  H         2.5188260301    9.8863276739   20.1363879323
     18  N         0.5453294051   10.4291531235   18.3829301757
     19  H         1.3975066739   10.8035594271   17.9818786013
     20  C        -0.4436712183   10.0998002794   17.5188687724
     21  H        -0.1538255305   10.2883906919   16.4712817859
     22  O        -1.5644843845    9.6935685468   17.8337739666
   Point Group: c1    Number of degrees of freedom:    60


   Energy is   -404.599107835

 Hessian updated using BFGS update

 60 Hessian modes will be used to form the next step
  Hessian Eigenvalues:
     0.004843    0.005405    0.006547    0.008377    0.012663    0.016745
     0.018531    0.018733    0.023167    0.034583    0.037047    0.037230
     0.043522    0.046561    0.048103    0.049740    0.051240    0.053384
     0.056990    0.060513    0.066950    0.080793    0.081183    0.083208
     0.084009    0.087331    0.090066    0.092078    0.123454    0.125698
     0.139232    0.157403    0.159286    0.162698    0.178150    0.211948
     0.219783    0.220260    0.269142    0.272584    0.275485    0.282038
     0.284850    0.287132    0.330932    0.334339    0.336977    0.338483
     0.344094    0.345415    0.345835    0.346545    0.347715    0.349701
     0.351656    0.356946    0.377537    0.466091    0.483527    0.931791

 Minimum search - taking simple RFO step
 Searching for Lamda that Minimizes Along All modes
 Value Taken    Lamda =  -0.00717712
 Calculated Step too Large.  Step scaled by  0.580130
 Step Taken.  Stepsize is  0.300000

                             Maximum     Tolerance    Cnvgd?
         Gradient           0.007763      0.000100      NO
         Displacement       0.131795      0.000100      NO
         Energy change     -0.005776      0.000000      NO


 New Cartesian Coordinates Obtained by Inverse Iteration

 Displacement from previous Coordinates is:  0.309746
 ----------------------------------------------------------------
             Standard Nuclear Orientation (Angstroms)
    I     Atom           X                Y                Z
 ----------------------------------------------------------------
    1      C       0.4966592020    11.8650949256    20.4181173594
    2      C       0.4318692604    10.4407095273    19.8434851634
    3      C       1.5171385643     9.5411095753    20.4563555444
    4      C       1.4275245816     9.5136836145    21.9894315434
    5      C       1.4553171069    10.9274262892    22.5916015409
    6      C       0.4146496588    11.8596148431    21.9545093214
    7      H       1.4226646107     8.5273739775    20.0450863809
    8      H      -0.5480212509    10.0161720432    20.0848027508
    9      H       1.4185900433    12.3674899301    20.0911765264
   10      H      -0.3391890969    12.4531260928    20.0145000466
   11      H       0.5032527791     9.0001890420    22.2920602394
   12      H       2.2636942444     8.9261801667    22.3898274251
   13      H       1.3103663841    10.8785622617    23.6786440628
   14      H       2.4588478812    11.3511360811    22.4301654521
   15      H      -0.5976973503    11.5436775841    22.2472710923
   16      H       0.5495695437    12.8811513981    22.3321058059
   17      H       2.5077001965     9.9084921915    20.1466204788
   18      N       0.5386698202    10.4586679144    18.3848235036
   19      H       1.3949314754    10.8269847262    17.9824997126
   20      C      -0.4376803505    10.1238388897    17.5222354763
   21      H      -0.1217349448    10.2196097583    16.4701907722
   22      O      -1.5371223593     9.6397091674    17.8244898012
 ----------------------------------------------------------------
 Nuclear Repulsion Energy =         466.34451907 hartrees
 There are       35 alpha and       35 beta electrons
 Discretize the solute cavity surface with Lebedev spheres
	Using 302 Lebedev grid points for each H atom
	Using 302 Lebedev grid points for other atoms
	Atomic van der Waals radii will be scaled by 1.20
 Remove points where switching function is < 1.0e-08
 Keep 2748 surface tesserae and discard 3896 interior tesserae
 Molecular Surface Area = 182.654 Angst**2
 Applying Cartesian multipole field
    Component          Value
    ---------          -----
     (2,0,0)        1.00000E-11
     (0,2,0)        2.00000E-12
     (0,0,2)       -3.00000E-13
 Nucleus-field energy     =     0.0000000281 hartrees
 Requested basis set is 6-31+G(d)
 There are 71 shells and 197 basis functions
 A cutoff of  1.0D-14 yielded   2412 shell pairs
 There are     18992 function pairs
 Smallest overlap matrix eigenvalue = 2.42E-05
 Guess MOs from SCF MO coefficient file

 -----------------------------------------------------------------------
  General SCF calculation program by
  Eric Jon Sundstrom, Paul Horn, Yuezhi Mao, Dmitri Zuev, Alec White,
  David Stuck, Shaama M.S., Shane Yost, Joonho Lee, David Small,
  Daniel Levine, Susi Lehtola, Hugh Burton, Evgeny Epifanovsky,
  Bang C. Huynh
 -----------------------------------------------------------------------
 Exchange:     0.2000 Hartree-Fock + 0.0800 Slater + 0.7200 B88
 Correlation:  0.1900 VWN1RPA + 0.8100 LYP
 Using Euler-Maclaurin-Lebedev (99,590) quadrature formula
 using 16 threads for integral computing
 -------------------------------------------------------
 OpenMP Integral computing Module                
 Release: version 2.0, May 2017, Q-Chem Inc. Pleasanton 
 -------------------------------------------------------
 A restricted SCF calculation will be
 performed using Roothaan-Hall, DIIS
 SCF converges when DIIS error is below 1.0e-08
 ---------------------------------------
  Cycle       Energy         DIIS error
 ---------------------------------------
    1    -404.5775028888      9.19e-04  Roothaan Step
 ---------------------------------------
  Cycle       Energy         DIIS error
 ---------------------------------------
    1    -404.5889922419      1.31e-03  
    2    -404.5703658638      2.84e-03  
    3    -404.6007293027      2.22e-04  
    4    -404.6009060069      1.28e-04  
    5    -404.6009693292      3.73e-05  
    6    -404.6009751142      9.47e-06  
    7    -404.6009754590      3.30e-06  
    8    -404.6009755113      5.92e-07  
    9    -404.6009755127      2.58e-07  
   10    -404.6009755130      4.70e-08  
   11    -404.6009755131      1.23e-08  
   12    -404.6009755131      3.24e-09  Convergence criterion met
 ---------------------------------------
 SCF time:   CPU 875.54s  wall 60.00s 

************** Final PCM Free Energy Summary **************
 G_electrostatic  =      -0.01960258 hartree =     -12.30080181 kcal/mol
 G_cavitation     =       0.00000000 hartree =       0.00000000 kcal/mol
 G_dispersion     =       0.00000000 hartree =       0.00000000 kcal/mol
 G_repulsion      =       0.00000000 hartree =       0.00000000 kcal/mol
 --------------------------------------------------
 Non-electrostatic Free Energy =       0.00000000 hartree =       0.00000000 kcal/mol
 Total                         =      -0.01960258 hartree =     -12.30080181 kcal/mol
 --------------------------------------------------
 SCF Energy (H0 + V/2)                       =    -404.60097551 
 Solute Internal Energy (H0)                 =    -404.58137294 
 Total Free Energy (H0 + V/2 + non-elec)     =    -404.60097551 hartree
                                             = -253890.94411028 kcal/mol
***********************************************************

 SCF   energy in the final basis set =     -404.6009755131
 Total energy in the final basis set =     -404.6009755131
 
 --------------------------------------------------------------
 
                    Orbital Energies (a.u.)
 --------------------------------------------------------------
 
 Alpha MOs
 -- Occupied --
-19.1350 -14.3717 -10.2939 -10.2251 -10.1820 -10.1819 -10.1795 -10.1794
-10.1774  -1.0400  -0.9338  -0.8237  -0.7428  -0.7415  -0.6375  -0.6116
 -0.5920  -0.5619  -0.5260  -0.4841  -0.4603  -0.4427  -0.4379  -0.4197
 -0.4185  -0.3950  -0.3775  -0.3742  -0.3466  -0.3438  -0.3199  -0.3112
 -0.3094  -0.2712  -0.2607
 -- Virtual --
  0.0063   0.0098   0.0178   0.0240   0.0262   0.0415   0.0484   0.0493
  0.0595   0.0693   0.0706   0.0843   0.0870   0.0963   0.1011   0.1055
  0.1124   0.1175   0.1268   0.1342   0.1413   0.1519   0.1565   0.1620
  0.1704   0.1802   0.1822   0.1884   0.2007   0.2019   0.2104   0.2136
  0.2225   0.2267   0.2317   0.2456   0.2496   0.2565   0.2642   0.2719
  0.2775   0.2832   0.2864   0.2921   0.2969   0.3039   0.3140   0.3268
  0.3313   0.3336   0.3580   0.3736   0.3840   0.3871   0.4190   0.4207
  0.4402   0.4567   0.4827   0.6099   0.6404   0.6583   0.6667   0.6694
  0.6862   0.6997   0.7289   0.7328   0.7486   0.7511   0.7747   0.7792
  0.7998   0.8057   0.8224   0.8423   0.8635   0.9103   0.9545   0.9758
  0.9812   0.9934   1.0216   1.0278   1.0312   1.0582   1.0868   1.1056
  1.1210   1.1239   1.1286   1.1426   1.1659   1.1727   1.1854   1.1880
  1.2375   1.2486   1.2800   1.3197   1.3384   1.3660   1.3976   1.4151
  1.4666   1.4900   1.4998   1.5627   1.5834   1.6179   1.6969   1.7315
  1.7447   1.7550   1.7671   1.7996   1.8431   1.8700   1.9063   1.9115
  1.9148   1.9378   1.9726   2.0087   2.0125   2.0444   2.0606   2.0861
  2.1070   2.1266   2.2054   2.2131   2.2782   2.3072   2.3188   2.3416
  2.3968   2.4147   2.4185   2.4237   2.4505   2.5593   2.5826   2.6204
  2.6807   2.6894   2.7051   2.7582   2.7803   2.8377   2.8661   2.9912
  3.1850   4.0933   4.1928   4.2284   4.2973   4.3359   4.4138   4.6043
  4.6045   4.6707
 --------------------------------------------------------------
 
          Ground-State Mulliken Net Atomic Charges

     Atom                 Charge (a.u.)
  ----------------------------------------
      1 C                    -0.287981
      2 C                    -0.414519
      3 C                    -0.294090
      4 C                    -0.454978
      5 C                    -0.376004
      6 C                    -0.460294
      7 H                     0.211100
      8 H                     0.227760
      9 H                     0.214860
     10 H                     0.210424
     11 H                     0.207110
     12 H                     0.203806
     13 H                     0.199623
     14 H                     0.202550
     15 H                     0.207085
     16 H                     0.203977
     17 H                     0.214151
     18 N                    -0.379233
     19 H                     0.452579
     20 C                     0.345280
     21 H                     0.184046
     22 O                    -0.617251
  ----------------------------------------
  Sum of atomic charges =     0.000000

 -----------------------------------------------------------------
                    Cartesian Multipole Moments
 -----------------------------------------------------------------
    Charge (ESU x 10^10)
                -0.0000
    Dipole Moment (Debye)
         X       5.3975      Y       2.3157      Z       1.1147
       Tot       5.9782
    Quadrupole Moments (Debye-Ang)
        XX     -60.9748     XY      53.8065     YY     -10.0406
        XZ      97.5020     YZ      53.3247     ZZ     -10.2640
    Octopole Moments (Debye-Ang^2)
       XXX     -70.6888    XXY    -632.1682    XYY     509.2919
       YYY   -1080.6507    XXZ   -1218.6440    XYZ     973.1773
       YYZ    -182.5492    XZZ    1734.6520    YZZ     639.7409
       ZZZ   -2000.7197
    Hexadecapole Moments (Debye-Ang^3)
      XXXX    -513.8362   XXXY    -755.4922   XXYY   -6706.5660
      XYYY    4487.7809   YYYY  -28409.9559   XXXZ   -1678.5332
      XXYZ  -12685.3030   XYYZ    9092.6860   YYYZ  -22157.3845
      XXZZ  -24672.3800   XYZZ   17320.0669   YYZZ   -9425.3606
      XZZZ   29974.7538   YZZZ   -7685.0206   ZZZZ -100912.9941
 -----------------------------------------------------------------
 Calculating analytic gradient of the SCF energy
 Gradient of SCF Energy
            1           2           3           4           5           6
    1  -0.0022920  -0.0014098  -0.0106424   0.0003439  -0.0097731   0.0049098
    2  -0.0113139   0.0001353   0.0022686   0.0051682  -0.0031057  -0.0023310
    3   0.0034103  -0.0000847   0.0059429  -0.0045299  -0.0025574  -0.0034663
            7           8           9          10          11          12
    1   0.0011940   0.0026716   0.0042014  -0.0016694  -0.0012732   0.0034661
    2  -0.0016260   0.0013272   0.0049527   0.0016916  -0.0008042  -0.0005111
    3  -0.0013338   0.0031892  -0.0018827   0.0002830   0.0008769   0.0004188
           13          14          15          16          17          18
    1   0.0002408   0.0038993  -0.0020317   0.0017097   0.0060071  -0.0092396
    2  -0.0001427   0.0008821  -0.0001762   0.0028118   0.0013777  -0.0091038
    3   0.0025106  -0.0011441  -0.0004659   0.0007939  -0.0026551   0.0048718
           19          20          21          22
    1   0.0136399  -0.0137952   0.0062712   0.0035715
    2   0.0054793   0.0091090  -0.0019947  -0.0040942
    3  -0.0057678   0.0055031  -0.0030547  -0.0008581
 Max gradient component =       1.380E-02
 RMS gradient           =       4.776E-03
 Computing fast CPCM-SWIG gradient
 Updating gradient with PCM contributions...
 -- total gradient after adding PCM contribution --
---------------------------------------------------
  Atom         X              Y              Z     
---------------------------------------------------
   1       0.003388      -0.003914      -0.000853
   2      -0.001314      -0.000073      -0.003357
   3      -0.001371       0.001623       0.001917
   4       0.000163      -0.000202      -0.000707
   5      -0.003692      -0.000575       0.000984
   6       0.000728       0.001286       0.000103
   7       0.000566       0.000095      -0.000654
   8       0.000283       0.000282       0.001777
   9      -0.001519       0.002283       0.000288
  10      -0.000734       0.000157       0.000881
  11       0.000469      -0.000055       0.000274
  12       0.000655       0.000817      -0.000465
  13       0.000506      -0.000040      -0.000029
  14       0.000219      -0.000611      -0.000120
  15      -0.000274       0.000540      -0.000976
  16       0.000808      -0.000206      -0.000047
  17       0.000289      -0.001236      -0.000544
  18       0.001749      -0.003901       0.001175
  19      -0.000055      -0.000466      -0.000086
  20      -0.006786       0.011801       0.000576
  21       0.001774      -0.003739       0.000117
  22       0.004148      -0.003865      -0.000255
---------------------------------------------------
 Number of fixed atoms: 0
 Gradient time:  CPU 124.38 s  wall 11.54 s
 Geometry Optimization Parameters
   NAtoms,    NIC,     NZ,  NCons,   NDum,   NFix, NCnnct, MaxDiis
       22     172       0       0       0       0       0       0

 Cartesian Hessian Update
 Hessian updated using BFGS update


** GEOMETRY OPTIMIZATION IN DELOCALIZED INTERNAL COORDINATES **
   Searching for a Minimum

   Optimization Cycle:   4

                       Coordinates (Angstroms)
     ATOM                X               Y               Z
      1  C         0.4966592020   11.8650949256   20.4181173594
      2  C         0.4318692604   10.4407095273   19.8434851634
      3  C         1.5171385643    9.5411095753   20.4563555444
      4  C         1.4275245816    9.5136836145   21.9894315434
      5  C         1.4553171069   10.9274262892   22.5916015409
      6  C         0.4146496588   11.8596148431   21.9545093214
      7  H         1.4226646107    8.5273739775   20.0450863809
      8  H        -0.5480212509   10.0161720432   20.0848027508
      9  H         1.4185900433   12.3674899301   20.0911765264
     10  H        -0.3391890969   12.4531260928   20.0145000466
     11  H         0.5032527791    9.0001890420   22.2920602394
     12  H         2.2636942444    8.9261801667   22.3898274251
     13  H         1.3103663841   10.8785622617   23.6786440628
     14  H         2.4588478812   11.3511360811   22.4301654521
     15  H        -0.5976973503   11.5436775841   22.2472710923
     16  H         0.5495695437   12.8811513981   22.3321058059
     17  H         2.5077001965    9.9084921915   20.1466204788
     18  N         0.5386698202   10.4586679144   18.3848235036
     19  H         1.3949314754   10.8269847262   17.9824997126
     20  C        -0.4376803505   10.1238388897   17.5222354763
     21  H        -0.1217349448   10.2196097583   16.4701907722
     22  O        -1.5371223593    9.6397091674   17.8244898012
   Point Group: c1    Number of degrees of freedom:    60


   Energy is   -404.600975513

 Hessian updated using BFGS update

 60 Hessian modes will be used to form the next step
  Hessian Eigenvalues:
     0.004830    0.005383    0.006546    0.008377    0.012695    0.017714
     0.018549    0.018760    0.032668    0.035879    0.037094    0.041164
     0.045203    0.047321    0.049636    0.050934    0.053317    0.056695
     0.060056    0.066744    0.071731    0.080447    0.081337    0.083096
     0.083957    0.087312    0.090103    0.091352    0.123555    0.125713
     0.139397    0.157215    0.159274    0.162717    0.178395    0.211798
     0.219428    0.220248    0.269076    0.272577    0.275499    0.282269
     0.284851    0.287429    0.330922    0.334324    0.336969    0.338419
     0.344069    0.345370    0.345814    0.346516    0.347745    0.349688
     0.351632    0.356669    0.377308    0.466266    0.485967    0.927942

 Minimum search - taking simple RFO step
 Searching for Lamda that Minimizes Along All modes
 Value Taken    Lamda =  -0.00236616
 Calculated Step too Large.  Step scaled by  0.939894
 Step Taken.  Stepsize is  0.300000

                             Maximum     Tolerance    Cnvgd?
         Gradient           0.007578      0.000100      NO
         Displacement       0.157774      0.000100      NO
         Energy change     -0.001868      0.000000      NO


 New Cartesian Coordinates Obtained by Inverse Iteration

 Displacement from previous Coordinates is:  0.286193
 ----------------------------------------------------------------
             Standard Nuclear Orientation (Angstroms)
    I     Atom           X                Y                Z
 ----------------------------------------------------------------
    1      C       0.4780462422    11.8601081110    20.4218474806
    2      C       0.4294674620    10.4326041618    19.8478337207
    3      C       1.5173783004     9.5359913482    20.4625814987
    4      C       1.4280711756     9.5208094091    21.9969343395
    5      C       1.4830846093    10.9424836501    22.5765141968
    6      C       0.4048238160    11.8447595235    21.9586511780
    7      H       1.4203089416     8.5208140782    20.0577706540
    8      H      -0.5531962143     9.9983755552    20.0611752781
    9      H       1.4237675486    12.3261633799    20.1056816426
   10      H      -0.3421697023    12.4520951099    19.9976661896
   11      H       0.4900446898     9.0320407006    22.3015066864
   12      H       2.2441770985     8.9132982318    22.4099605779
   13      H       1.3498676824    10.9075443239    23.6663382396
   14      H       2.4776141167    11.3770501096    22.3910764515
   15      H      -0.5893360910    11.4953145323    22.2751584313
   16      H       0.5110169778    12.8700618782    22.3372426807
   17      H       2.5049713594     9.9163871988    20.1588116639
   18      N       0.5432924360    10.4564987788    18.3854769136
   19      H       1.4045096961    10.8201753073    17.9879602480
   20      C      -0.4204891767    10.1083075440    17.5172084193
   21      H      -0.1201228123    10.2451035894    16.4654158670
   22      O      -1.5551281559     9.6940134783    17.8071876425
 ----------------------------------------------------------------
 Nuclear Repulsion Energy =         466.28848680 hartrees
 There are       35 alpha and       35 beta electrons
 Discretize the solute cavity surface with Lebedev spheres
	Using 302 Lebedev grid points for each H atom
	Using 302 Lebedev grid points for other atoms
	Atomic van der Waals radii will be scaled by 1.20
 Remove points where switching function is < 1.0e-08
 Keep 2735 surface tesserae and discard 3909 interior tesserae
 Molecular Surface Area = 182.632 Angst**2
 Applying Cartesian multipole field
    Component          Value
    ---------          -----
     (2,0,0)        1.00000E-11
     (0,2,0)        2.00000E-12
     (0,0,2)       -3.00000E-13
 Nucleus-field energy     =     0.0000000282 hartrees
 Requested basis set is 6-31+G(d)
 There are 71 shells and 197 basis functions
 A cutoff of  1.0D-14 yielded   2410 shell pairs
 There are     18985 function pairs
 Smallest overlap matrix eigenvalue = 2.46E-05
 Guess MOs from SCF MO coefficient file

 -----------------------------------------------------------------------
  General SCF calculation program by
  Eric Jon Sundstrom, Paul Horn, Yuezhi Mao, Dmitri Zuev, Alec White,
  David Stuck, Shaama M.S., Shane Yost, Joonho Lee, David Small,
  Daniel Levine, Susi Lehtola, Hugh Burton, Evgeny Epifanovsky,
  Bang C. Huynh
 -----------------------------------------------------------------------
 Exchange:     0.2000 Hartree-Fock + 0.0800 Slater + 0.7200 B88
 Correlation:  0.1900 VWN1RPA + 0.8100 LYP
 Using Euler-Maclaurin-Lebedev (99,590) quadrature formula
 using 16 threads for integral computing
 -------------------------------------------------------
 OpenMP Integral computing Module                
 Release: version 2.0, May 2017, Q-Chem Inc. Pleasanton 
 -------------------------------------------------------
 A restricted SCF calculation will be
 performed using Roothaan-Hall, DIIS
 SCF converges when DIIS error is below 1.0e-08
 ---------------------------------------
  Cycle       Energy         DIIS error
 ---------------------------------------
    1    -404.5784064358      8.93e-04  Roothaan Step
 ---------------------------------------
  Cycle       Energy         DIIS error
 ---------------------------------------
    1    -404.5896223719      1.32e-03  
    2    -404.5708196016      2.85e-03  
    3    -404.6015743535      2.25e-04  
    4    -404.6017589562      1.29e-04  
    5    -404.6018228194      3.79e-05  
    6    -404.6018287791      9.81e-06  
    7    -404.6018291447      3.46e-06  
    8    -404.6018292023      6.21e-07  
    9    -404.6018292039      2.63e-07  
   10    -404.6018292042      4.70e-08  
   11    -404.6018292042      1.23e-08  
   12    -404.6018292042      3.36e-09  Convergence criterion met
 ---------------------------------------
 SCF time:   CPU 922.84s  wall 63.00s 

************** Final PCM Free Energy Summary **************
 G_electrostatic  =      -0.01987118 hartree =     -12.46935162 kcal/mol
 G_cavitation     =       0.00000000 hartree =       0.00000000 kcal/mol
 G_dispersion     =       0.00000000 hartree =       0.00000000 kcal/mol
 G_repulsion      =       0.00000000 hartree =       0.00000000 kcal/mol
 --------------------------------------------------
 Non-electrostatic Free Energy =       0.00000000 hartree =       0.00000000 kcal/mol
 Total                         =      -0.01987118 hartree =     -12.46935162 kcal/mol
 --------------------------------------------------
 SCF Energy (H0 + V/2)                       =    -404.60182920 
 Solute Internal Energy (H0)                 =    -404.58195803 
 Total Free Energy (H0 + V/2 + non-elec)     =    -404.60182920 hartree
                                             = -253891.47980958 kcal/mol
***********************************************************

 SCF   energy in the final basis set =     -404.6018292042
 Total energy in the final basis set =     -404.6018292042
 
 --------------------------------------------------------------
 
                    Orbital Energies (a.u.)
 --------------------------------------------------------------
 
 Alpha MOs
 -- Occupied --
-19.1346 -14.3721 -10.2939 -10.2253 -10.1825 -10.1824 -10.1797 -10.1796
-10.1777  -1.0380  -0.9335  -0.8243  -0.7430  -0.7410  -0.6369  -0.6113
 -0.5919  -0.5627  -0.5260  -0.4838  -0.4607  -0.4421  -0.4375  -0.4190
 -0.4181  -0.3949  -0.3783  -0.3738  -0.3470  -0.3433  -0.3212  -0.3117
 -0.3094  -0.2706  -0.2610
 -- Virtual --
  0.0085   0.0086   0.0177   0.0236   0.0261   0.0415   0.0480   0.0493
  0.0596   0.0698   0.0704   0.0839   0.0871   0.0956   0.1006   0.1053
  0.1126   0.1174   0.1259   0.1342   0.1410   0.1522   0.1566   0.1615
  0.1701   0.1796   0.1833   0.1894   0.1994   0.2026   0.2105   0.2141
  0.2215   0.2268   0.2310   0.2447   0.2488   0.2561   0.2643   0.2704
  0.2770   0.2821   0.2892   0.2907   0.2951   0.3031   0.3116   0.3262
  0.3300   0.3325   0.3596   0.3727   0.3851   0.3879   0.4173   0.4214
  0.4393   0.4592   0.4833   0.6099   0.6398   0.6567   0.6675   0.6679
  0.6850   0.6985   0.7307   0.7334   0.7457   0.7538   0.7761   0.7790
  0.8011   0.8058   0.8203   0.8495   0.8637   0.9131   0.9543   0.9761
  0.9801   0.9934   1.0222   1.0280   1.0300   1.0575   1.0904   1.1042
  1.1193   1.1244   1.1283   1.1432   1.1639   1.1723   1.1859   1.1923
  1.2388   1.2450   1.2808   1.3263   1.3425   1.3719   1.3906   1.4167
  1.4788   1.4872   1.4938   1.5672   1.5782   1.6162   1.6925   1.7327
  1.7370   1.7544   1.7683   1.8051   1.8512   1.8717   1.9030   1.9086
  1.9126   1.9393   1.9785   2.0096   2.0194   2.0449   2.0568   2.0856
  2.0949   2.1301   2.2036   2.2151   2.2774   2.3091   2.3172   2.3445
  2.3949   2.4117   2.4211   2.4262   2.4481   2.5599   2.5859   2.6207
  2.6742   2.6841   2.7056   2.7626   2.7811   2.8345   2.8629   2.9887
  3.1861   4.0940   4.1935   4.2285   4.2965   4.3338   4.4143   4.6041
  4.6096   4.6733
 --------------------------------------------------------------
 
          Ground-State Mulliken Net Atomic Charges

     Atom                 Charge (a.u.)
  ----------------------------------------
      1 C                    -0.276615
      2 C                    -0.424419
      3 C                    -0.283871
      4 C                    -0.453767
      5 C                    -0.381203
      6 C                    -0.461125
      7 H                     0.211195
      8 H                     0.226484
      9 H                     0.214148
     10 H                     0.210828
     11 H                     0.207641
     12 H                     0.203336
     13 H                     0.199373
     14 H                     0.203796
     15 H                     0.207931
     16 H                     0.203279
     17 H                     0.214226
     18 N                    -0.381784
     19 H                     0.452310
     20 C                     0.345852
     21 H                     0.184412
     22 O                    -0.622027
  ----------------------------------------
  Sum of atomic charges =     0.000000

 -----------------------------------------------------------------
                    Cartesian Multipole Moments
 -----------------------------------------------------------------
    Charge (ESU x 10^10)
[...]

 Mode:                40                     41                     42
 Frequency:      1403.98                1493.99                1496.10
 Force Cnst:      1.7073                 1.4310                 1.4342
 Red. Mass:       1.4700                 1.0882                 1.0876
 IR Active:          YES                    YES                    YES
 IR Intens:        0.567                  0.098                  5.693
 Raman Active:       YES                    YES                    YES
               X      Y      Z        X      Y      Z        X      Y      Z
 C         -0.010  0.056  0.093    0.011  0.037 -0.031    0.001  0.013  0.006
 C         -0.021 -0.011 -0.098   -0.007  0.016 -0.000    0.001  0.000 -0.007
 C          0.037 -0.044  0.098   -0.033  0.016  0.029    0.010 -0.008  0.006
 C         -0.011  0.041  0.024   -0.008 -0.021  0.023   -0.007 -0.026  0.008
 C         -0.008 -0.004 -0.011    0.006 -0.014 -0.000   -0.052 -0.023 -0.045
 C          0.024 -0.034  0.026    0.022 -0.009 -0.023   -0.023  0.012  0.008
 H         -0.089  0.146 -0.373    0.371  0.034 -0.151   -0.057 -0.003  0.011
 H          0.079  0.049  0.466    0.032 -0.072  0.000    0.006  0.003  0.024
 H         -0.030 -0.140 -0.284    0.229 -0.271  0.210    0.027 -0.062 -0.018
 H          0.051 -0.167 -0.359   -0.290 -0.261  0.160   -0.037 -0.036  0.009
 H          0.014 -0.043 -0.038   -0.155  0.167 -0.160   -0.138  0.193 -0.073
 H          0.000 -0.127 -0.255    0.192  0.173 -0.110    0.168  0.142 -0.115
 H         -0.064 -0.026 -0.023    0.003 -0.001  0.000    0.552  0.246  0.044
 H         -0.023 -0.011 -0.061   -0.028  0.065  0.002    0.072  0.039  0.598
 H         -0.025  0.040 -0.045   -0.021  0.234  0.158    0.050 -0.231 -0.067
 H         -0.092  0.080 -0.252   -0.263 -0.024  0.109    0.216  0.027 -0.112
 H         -0.126  0.070 -0.301    0.044 -0.337 -0.194   -0.029  0.067 -0.017
 N          0.005  0.003 -0.032   -0.000 -0.000 -0.000    0.000  0.000 -0.001
 H          0.058  0.023  0.102    0.001 -0.000  0.001    0.004  0.001  0.008
 C          0.002  0.001  0.026    0.000 -0.000  0.000    0.000  0.000  0.001
 H         -0.005 -0.002  0.036   -0.000  0.001  0.000   -0.000 -0.000  0.001
 O          0.003  0.001 -0.005   -0.000  0.000 -0.000   -0.000 -0.000 -0.000
 TransDip   0.001 -0.003  0.024    0.003 -0.009  0.002    0.069  0.031  0.010

 Mode:                43                     44                     45
 Frequency:      1499.36                1500.08                1512.15
 Force Cnst:      1.4551                 1.4490                 1.4834
 Red. Mass:       1.0986                 1.0929                 1.1011
 IR Active:          YES                    YES                    YES
 IR Intens:        7.759                 10.754                  0.662
 Raman Active:       YES                    YES                    YES
               X      Y      Z        X      Y      Z        X      Y      Z
 C         -0.001 -0.039  0.022   -0.006 -0.035  0.014   -0.000 -0.035  0.016
 C         -0.002  0.004  0.003    0.000 -0.000  0.015   -0.004 -0.001  0.013
 C          0.018 -0.017 -0.015   -0.039  0.028  0.020   -0.027  0.024  0.015
 C         -0.004 -0.046  0.034   -0.002 -0.024  0.014   -0.000  0.036 -0.019
 C          0.002  0.003  0.003    0.015  0.006  0.018   -0.024 -0.011 -0.033
 C          0.029 -0.022 -0.027   -0.030  0.023  0.023    0.027 -0.024 -0.018
 H         -0.187 -0.035  0.091    0.402  0.034 -0.140    0.293  0.038 -0.118
 H          0.003 -0.012 -0.004   -0.010 -0.004 -0.020   -0.010 -0.006 -0.018
 H         -0.189  0.253 -0.144   -0.177  0.231 -0.129   -0.172  0.236 -0.119
 H          0.242  0.196 -0.134    0.219  0.209 -0.099    0.220  0.182 -0.116
 H         -0.252  0.312 -0.215   -0.133  0.155 -0.123    0.173 -0.226  0.132
 H          0.317  0.256 -0.184    0.162  0.154 -0.067   -0.224 -0.181  0.115
 H         -0.014 -0.042 -0.000   -0.148 -0.060 -0.002    0.282  0.125  0.008
 H         -0.010  0.011 -0.030   -0.021 -0.012 -0.160    0.041  0.023  0.315
 H         -0.052  0.318  0.159    0.046 -0.317 -0.174   -0.052  0.284  0.128
 H         -0.316 -0.052  0.153    0.334  0.033 -0.117   -0.286 -0.042  0.114
 H         -0.039  0.195  0.087    0.072 -0.389 -0.167    0.061 -0.296 -0.116
 N          0.000 -0.001 -0.000   -0.000  0.000 -0.001    0.005  0.002  0.008
 H         -0.001  0.000 -0.002   -0.005 -0.002 -0.013   -0.020 -0.008 -0.056
 C         -0.000 -0.000 -0.000   -0.001 -0.000 -0.000   -0.006 -0.002 -0.006
 H         -0.000  0.001 -0.000    0.001  0.000 -0.000    0.003  0.001 -0.006
 O          0.000  0.000 -0.000    0.001  0.000 -0.000    0.002  0.001  0.000
 TransDip  -0.026  0.084 -0.015    0.067  0.014 -0.080   -0.012 -0.003 -0.023

 Mode:                46                     47                     48
 Frequency:      1555.30                1668.06                2242.16
 Force Cnst:      2.5184                14.0459                 7.0917
 Red. Mass:       1.7670                 8.5679                 2.3942
 IR Active:          YES                    YES                    YES
 IR Intens:      268.222                919.056                 98.836
 Raman Active:       YES                    YES                    YES
               X      Y      Z        X      Y      Z        X      Y      Z
 C         -0.003 -0.004  0.009   -0.005 -0.007  0.019   -0.000 -0.000 -0.000
 C          0.057  0.023  0.057    0.015  0.006 -0.032    0.000  0.000  0.003
 C         -0.005  0.001  0.010   -0.009  0.001  0.019   -0.000  0.000 -0.000
 C         -0.001 -0.001 -0.008    0.006 -0.004 -0.006   -0.000  0.000 -0.000
 C         -0.001 -0.001  0.000   -0.001 -0.000  0.001   -0.000 -0.000 -0.000
 C         -0.001 -0.001 -0.008    0.000  0.007 -0.006    0.000 -0.000 -0.000
 H          0.028  0.004  0.002    0.013  0.017 -0.020    0.001 -0.000  0.000
 H         -0.008 -0.008 -0.336    0.051  0.021  0.052    0.000 -0.000  0.007
 H         -0.009 -0.022 -0.049   -0.019 -0.019 -0.027   -0.000 -0.000  0.000
 H          0.023  0.023  0.004    0.023 -0.001 -0.019    0.000  0.001  0.001
 H          0.016 -0.009  0.029    0.007  0.002  0.002   -0.000 -0.000 -0.000
 H         -0.021 -0.006  0.023   -0.014  0.007  0.043    0.000 -0.000 -0.000
 H          0.022  0.011  0.003    0.012  0.005  0.001   -0.000 -0.000 -0.000
 H          0.002  0.001  0.018   -0.001 -0.000  0.005    0.000  0.000 -0.000
 H          0.003  0.019  0.027    0.006  0.005  0.004   -0.000 -0.000 -0.000
 H         -0.019 -0.011  0.021   -0.005 -0.014  0.044    0.000  0.000 -0.000
 H         -0.024  0.009 -0.053   -0.026 -0.001 -0.025   -0.000 -0.000  0.000
 N         -0.100 -0.039 -0.173   -0.115 -0.044 -0.017    0.005  0.002  0.014
 H          0.287  0.113  0.837   -0.260 -0.096 -0.381   -0.014 -0.005 -0.056
 C          0.042  0.016  0.093    0.629  0.236 -0.010    0.059  0.021 -0.184
 H         -0.032 -0.011  0.133   -0.090 -0.037 -0.369   -0.261 -0.092  0.939
 O          0.008  0.003 -0.013   -0.351 -0.131  0.092   -0.014 -0.005  0.009
 TransDip   0.320  0.124  0.397    0.878  0.333  0.249    0.153  0.056 -0.273

 Mode:                49                     50                     51
 Frequency:      3014.15                3015.19                3018.76
 Force Cnst:      5.7224                 5.7215                 5.7225
 Red. Mass:       1.0691                 1.0681                 1.0658
 IR Active:          YES                    YES                    YES
 IR Intens:       34.504                 49.936                 11.845
 Raman Active:       YES                    YES                    YES
               X      Y      Z        X      Y      Z        X      Y      Z
 C         -0.001  0.005 -0.003    0.023  0.022 -0.015    0.016  0.007 -0.004
 C         -0.001 -0.001  0.000    0.001 -0.001  0.000   -0.003 -0.001 -0.000
 C          0.006 -0.003 -0.004   -0.037 -0.002  0.017    0.034  0.001 -0.016
 C          0.019  0.010 -0.005    0.026  0.022 -0.015   -0.014 -0.013  0.009
 C         -0.060 -0.026 -0.009   -0.003 -0.002 -0.000   -0.011 -0.005 -0.019
 C          0.023  0.008 -0.007   -0.031 -0.002  0.014   -0.045  0.004  0.023
 H          0.009  0.071  0.024   -0.027 -0.157 -0.059    0.023  0.149  0.054
 H          0.018  0.008 -0.004   -0.005 -0.001  0.001    0.042  0.019 -0.008
 H         -0.037 -0.017  0.009   -0.395 -0.191  0.127   -0.183 -0.092  0.059
 H          0.047 -0.034  0.020    0.116 -0.073  0.054   -0.010  0.011 -0.006
 H         -0.234 -0.119  0.076   -0.411 -0.203  0.131    0.235  0.118 -0.074
 H         -0.001  0.004 -0.007    0.097 -0.061  0.043   -0.058  0.038 -0.027
 H         -0.044 -0.016  0.274   -0.004  0.004  0.012   -0.033 -0.010  0.263
 H          0.762  0.335 -0.169    0.040  0.019 -0.009    0.159  0.069 -0.040
 H         -0.288 -0.108  0.088    0.389  0.150 -0.119    0.582  0.226 -0.175
 H          0.004  0.009 -0.003   -0.020 -0.122 -0.044   -0.037 -0.272 -0.098
 H         -0.079 -0.032  0.022    0.478  0.188 -0.148   -0.433 -0.169  0.132
 N         -0.000 -0.000 -0.000   -0.000  0.000 -0.000    0.000  0.000  0.000
 H         -0.000 -0.000  0.001   -0.000  0.001 -0.000    0.000 -0.000  0.002
 C          0.000  0.000  0.000    0.000  0.000 -0.000   -0.001 -0.000  0.000
 H         -0.000  0.000 -0.000    0.000 -0.000 -0.000    0.000  0.000  0.000
 O         -0.000 -0.000 -0.000   -0.000  0.000  0.000    0.000  0.000 -0.000
 TransDip  -0.071 -0.046 -0.168   -0.108  0.199  0.000   -0.107 -0.024 -0.012

 Mode:                52                     53                     54
 Frequency:      3019.34                3021.10                3062.19
 Force Cnst:      5.7034                 5.7112                 6.0477
 Red. Mass:       1.0618                 1.0621                 1.0946
 IR Active:          YES                    YES                    YES
 IR Intens:        8.585                152.406                121.087
 Raman Active:       YES                    YES                    YES
               X      Y      Z        X      Y      Z        X      Y      Z
 C          0.018  0.026 -0.017   -0.023 -0.034  0.023   -0.018  0.004 -0.002
 C         -0.001 -0.000 -0.000    0.006  0.003 -0.000    0.006  0.003 -0.001
 C         -0.020  0.009  0.013   -0.032  0.004  0.017   -0.009 -0.017 -0.002
 C         -0.022 -0.038  0.025    0.000 -0.017  0.011   -0.011  0.013 -0.008
 C         -0.006 -0.003 -0.009   -0.013 -0.006 -0.012    0.029  0.012 -0.074
 C          0.013 -0.006 -0.008   -0.016  0.014  0.013    0.001 -0.018 -0.008
 H         -0.028 -0.216 -0.079   -0.028 -0.208 -0.076    0.016  0.165  0.063
 H          0.008  0.002 -0.001   -0.081 -0.035  0.018   -0.079 -0.035  0.018
 H         -0.392 -0.188  0.124    0.515  0.248 -0.163    0.088  0.046 -0.030
 H          0.178 -0.120  0.083   -0.230  0.157 -0.108    0.122 -0.090  0.061
 H          0.539  0.263 -0.170    0.161  0.077 -0.049   -0.033 -0.015  0.008
 H         -0.273  0.189 -0.125   -0.166  0.120 -0.078    0.173 -0.130  0.085
 H         -0.016 -0.008  0.131   -0.023 -0.008  0.189   -0.087 -0.028  0.833
 H          0.085  0.039 -0.022    0.185  0.081 -0.043   -0.261 -0.115  0.044
 H         -0.169 -0.068  0.052    0.211  0.085 -0.062   -0.029 -0.013  0.007
 H          0.016  0.137  0.048   -0.027 -0.251 -0.090    0.021  0.231  0.086
 H          0.261  0.106 -0.080    0.407  0.160 -0.124    0.095  0.034 -0.030
 N          0.000  0.000  0.000   -0.000 -0.000 -0.000   -0.000 -0.000 -0.000
 H         -0.000  0.001  0.000    0.000 -0.000 -0.004    0.001  0.000 -0.001
 C         -0.000 -0.000 -0.000    0.000  0.000 -0.000    0.000  0.000  0.000
 H          0.000 -0.000  0.000   -0.000 -0.000 -0.000   -0.000 -0.000 -0.000
 O          0.000  0.000 -0.000   -0.000 -0.000  0.000   -0.000 -0.000  0.000
 TransDip  -0.066 -0.064  0.021   -0.308 -0.142  0.203   -0.021 -0.020 -0.351

 Mode:                55                     56                     57
 Frequency:      3063.46                3067.06                3068.50
 Force Cnst:      6.0643                 6.0786                 6.0868
 Red. Mass:       1.0967                 1.0968                 1.0972
 IR Active:          YES                    YES                    YES
 IR Intens:      130.766                 76.878                100.971
 Raman Active:       YES                    YES                    YES
               X      Y      Z        X      Y      Z        X      Y      Z
 C          0.009 -0.010  0.007    0.013 -0.012  0.008   -0.044  0.016 -0.011
 C         -0.000  0.001  0.000   -0.004 -0.002  0.002    0.023  0.010 -0.006
 C          0.001 -0.013 -0.006    0.000  0.020  0.008   -0.022 -0.052 -0.012
 C          0.056 -0.020  0.014   -0.054  0.018 -0.012   -0.021 -0.003  0.002
 C         -0.001 -0.000  0.001   -0.021 -0.009  0.013   -0.016 -0.006  0.027
 C         -0.024 -0.056 -0.013   -0.022 -0.051 -0.011   -0.014 -0.011  0.002
 H          0.017  0.166  0.065   -0.025 -0.243 -0.095    0.056  0.543  0.213
 H         -0.000  0.001 -0.000    0.052  0.023 -0.012   -0.293 -0.129  0.069
 H          0.026  0.010 -0.008    0.021  0.008 -0.006    0.165  0.088 -0.060
 H         -0.138  0.100 -0.071   -0.181  0.132 -0.092    0.369 -0.270  0.189
 H         -0.208 -0.112  0.073    0.210  0.115 -0.073    0.171  0.089 -0.057
 H         -0.465  0.348 -0.232    0.432 -0.325  0.214    0.078 -0.059  0.039
 H          0.002 -0.000 -0.015    0.011  0.004 -0.110    0.030  0.010 -0.285
 H          0.009  0.002 -0.001    0.231  0.102 -0.046    0.159  0.070 -0.029
 H          0.233  0.081 -0.075    0.223  0.076 -0.071    0.158  0.057 -0.049
 H          0.053  0.593  0.225    0.046  0.529  0.198    0.006  0.076  0.029
 H         -0.024 -0.011  0.007    0.014  0.008 -0.004    0.213  0.074 -0.071
 N          0.000 -0.000 -0.000   -0.000 -0.000 -0.000   -0.000  0.000  0.000
 H          0.000 -0.000 -0.000   -0.001 -0.000 -0.000    0.004  0.001 -0.002
 C          0.000 -0.000  0.000    0.000  0.000 -0.000    0.000  0.000  0.000
 H         -0.000  0.000  0.000   -0.000 -0.000 -0.000   -0.000  0.000 -0.000
 O         -0.000  0.000 -0.000   -0.000 -0.000 -0.000   -0.000 -0.000  0.000
 TransDip   0.143 -0.337  0.009   -0.260 -0.106  0.004   -0.289 -0.142 -0.005

 Mode:                58                     59                     60
 Frequency:      3070.35                3096.71                3579.04
 Force Cnst:      6.1130                 6.1472                 8.1393
 Red. Mass:       1.1006                 1.0880                 1.0785
 IR Active:          YES                    YES                    YES
 IR Intens:       46.926                 64.458                 68.728
 Raman Active:       YES                    YES                    YES
               X      Y      Z        X      Y      Z        X      Y      Z
 C          0.063 -0.019  0.014   -0.023  0.003 -0.002    0.000  0.000 -0.000
 C         -0.002 -0.001  0.001   -0.071 -0.031  0.016   -0.001 -0.000 -0.001
 C         -0.025 -0.051 -0.011   -0.013 -0.019 -0.002    0.000  0.000 -0.000
 C         -0.016 -0.000 -0.000   -0.004 -0.002  0.001    0.000  0.000 -0.000
 C          0.000  0.001 -0.001   -0.001 -0.000  0.002    0.000  0.000 -0.000
 C          0.012  0.012 -0.000   -0.004 -0.002  0.001    0.000  0.000 -0.000
 H          0.054  0.530  0.208    0.017  0.176  0.067    0.000 -0.000  0.000
 H          0.026  0.009 -0.006    0.836  0.367 -0.185    0.009  0.004 -0.006
 H         -0.260 -0.136  0.091    0.133  0.072 -0.043   -0.000  0.001  0.001
 H         -0.491  0.360 -0.253    0.141 -0.105  0.071   -0.000  0.000 -0.000
 H          0.110  0.057 -0.038    0.042  0.021 -0.016   -0.000 -0.000 -0.000
 H          0.078 -0.059  0.039    0.006 -0.003  0.002   -0.000  0.000  0.000
 H         -0.001 -0.002  0.015    0.002  0.001 -0.017   -0.000 -0.000  0.000
 H         -0.008 -0.002  0.001    0.010  0.004 -0.001   -0.000 -0.000  0.000
 H         -0.135 -0.049  0.043    0.044  0.016 -0.016   -0.000 -0.000 -0.000
 H         -0.009 -0.100 -0.038    0.001  0.006  0.001   -0.000 -0.000 -0.000
 H          0.242  0.086 -0.079    0.141  0.048 -0.041    0.000 -0.001  0.001
 N         -0.000  0.000 -0.000    0.001  0.000  0.001   -0.064 -0.024  0.027
 H         -0.000  0.000  0.000   -0.010 -0.004 -0.001    0.860  0.326 -0.385
 C          0.000 -0.000 -0.000   -0.002 -0.001 -0.000    0.000  0.000  0.002
 H         -0.000  0.000  0.000    0.000  0.000  0.001   -0.000 -0.000 -0.003
 O         -0.000  0.000 -0.000    0.000  0.000 -0.001    0.001  0.000 -0.000
 TransDip   0.108 -0.191  0.005   -0.224 -0.102  0.074    0.247  0.093 -0.027

 STANDARD THERMODYNAMIC QUANTITIES AT   298.18 K  AND     1.00 ATM

   This Molecule has  1 Imaginary Frequencies
   Zero point vibrational energy:      121.838 kcal/mol

   Atom    1 Element C  Has Mass   12.00000
   Atom    2 Element C  Has Mass   12.00000
   Atom    3 Element C  Has Mass   12.00000
   Atom    4 Element C  Has Mass   12.00000
   Atom    5 Element C  Has Mass   12.00000
   Atom    6 Element C  Has Mass   12.00000
   Atom    7 Element H  Has Mass    1.00783
   Atom    8 Element H  Has Mass    1.00783
   Atom    9 Element H  Has Mass    1.00783
   Atom   10 Element H  Has Mass    1.00783
   Atom   11 Element H  Has Mass    1.00783
   Atom   12 Element H  Has Mass    1.00783
   Atom   13 Element H  Has Mass    1.00783
   Atom   14 Element H  Has Mass    1.00783
   Atom   15 Element H  Has Mass    1.00783
   Atom   16 Element H  Has Mass    1.00783
   Atom   17 Element H  Has Mass    1.00783
   Atom   18 Element N  Has Mass   14.00307
   Atom   19 Element H  Has Mass    1.00783
   Atom   20 Element C  Has Mass   12.00000
   Atom   21 Element H  Has Mass    2.01410
   Atom   22 Element O  Has Mass   15.99491
   Molecular Mass:   128.106042 amu
   Principal axes and moments of inertia in amu*Bohr^2:
                             1           2           3
    Eigenvalues --      537.70852  2029.76198  2230.66367
          X               0.39032    -0.42618     0.81610
          Y               0.16163     0.90436     0.39497
          Z               0.90638     0.02226    -0.42188
   Rotational Symmetry Number is   1
   The Molecule is an Asymmetric Top
   Translational Enthalpy:        0.889 kcal/mol
   Rotational Enthalpy:           0.889 kcal/mol
   Vibrational Enthalpy:        125.119 kcal/mol
   gas constant (RT):             0.593 kcal/mol
   Translational Entropy:        40.457  cal/mol.K
   Rotational Entropy:           29.278  cal/mol.K
   Vibrational Entropy:          18.121  cal/mol.K

   Total Enthalpy:              127.489 kcal/mol
   Total Entropy:                87.856  cal/mol.K
Archival summary:
1\1\node026\FREQ\ProcedureUnspecified\6-31+G*\11713\ymao90\ThuApr815:36:052021ThuApr815:36:052021\0\\#,FREQ,ProcedureUnspecified,6-31+G*,\\0,1\N\H,1,1.01542\C,1,1.34464,2,116.745\H,3,1.10227,1,112.687,2,0.525831,0\O,3,1.24047,1,125.982,2,-179.558,0\C,1,1.46681,2,117.547,3,-179.325,0\H,6,1.09469,1,106.003,2,-177.155,0\C,6,1.5389,1,110.543,2,-59.107,0\H,8,1.09745,6,109.443,1,-59.0059,0\H,8,1.1007,6,108.744,1,57.6667,0\C,8,1.53784,6,111.353,1,178.405,0\H,11,1.0977,8,109.603,6,-177.617,0\H,11,1.10042,8,109.159,6,65.8975,0\C,11,1.53688,8,111.638,6,-54.959,0\H,14,1.09798,11,110.122,8,177.212,0\H,14,1.10063,11,109.241,8,-65.8183,0\C,14,1.53689,11,111.217,8,54.8309,0\H,17,1.09771,14,110.417,11,-177.075,0\H,17,1.10046,14,109.229,11,65.9301,0\C,17,1.53779,14,111.59,11,-54.8711,0\H,20,1.09744,17,110.625,14,176.95,0\H,20,1.10057,17,109.544,14,-65.2144,0\\\@

 Total job time:  884.49s(wall), 12375.01s(cpu) 
 Thu Apr  8 15:36:05 2021

        *************************************************************
        *                                                           *
        *  Thank you very much for using Q-Chem.  Have a nice day.  *
        *                                                           *
        *************************************************************


