                  Welcome to Q-Chem
     A Quantum Leap Into The Future Of Chemistry


 Q-Chem 5.2 (devel), Q-Chem, Inc., Pleasanton, CA (2019)

 Yihan Shao,  Zhengting Gan,  E. Epifanovsky,  A. T. B. Gilbert,  M. Wormit,  
 J. Kussmann,  A. W. Lange,  A. Behn,  Jia Deng,  Xintian Feng,  D. Ghosh,  
 M. Goldey,  P. R. Horn,  L. D. Jacobson,  I. Kaliman,  T. Kus,  A. Landau,  
 Jie Liu,  E. I. Proynov,  R. M. Richard,  R. P. Steele,  E. J. Sundstrom,  
 H. L. Woodcock III,  P. M. Zimmerman,  D. Zuev,  B. Alam,  B. Albrecht,  
 E. Alguire,  S. A. Baeppler,  D. Barton,  Z. Benda,  Y. A. Bernard,  
 E. J. Berquist,  K. B. Bravaya,  H. Burton,  K. Carter-Fenk,  D. Casanova,  
 Chun-Min Chang,  Yunqing Chen,  A. Chien,  K. D. Closser,  M. P. Coons,  
 S. Coriani,  S. Dasgupta,  A. L. Dempwolff,  M. Diedenhofen,  Hainam Do,  
 R. G. Edgar,  Po-Tung Fang,  S. Faraji,  S. Fatehi,  Qingguo Feng,  
 J. Fosso-Tande,  J. Gayvert,  Qinghui Ge,  A. Ghysels,  G. Gidofalvi,  
 J. Gomes,  J. Gonthier,  A. Gunina,  D. Hait,  M. W. D. Hanson-Heine,  
 P. H. P. Harbach,  A. W. Hauser,  M. F. Herbst,  J. E. Herr,  
 E. G. Hohenstein,  Z. C. Holden,  Kerwin Hui,  B. C. Huynh,  T.-C. Jagau,  
 Hyunjun Ji,  B. Kaduk,  K. Khistyaev,  Jaehoon Kim,  P. Klunzinger,  K. Koh,  
 D. Kosenkov,  L. Koulias,  T. Kowalczyk,  C. M. Krauter,  A. Kunitsa,  
 Ka Un Lao,  A. Laurent,  K. V. Lawler,  Joonho Lee,  D. Lefrancois,  
 S. Lehtola,  D. S. Levine,  Yi-Pei Li,  You-Sheng Lin,  Fenglai Liu,  
 Kuan-Yu Liu,  E. Livshits,  M. Loipersberger,  A. Luenser,  P. Manohar,  
 E. Mansoor,  S. F. Manzer,  Shan-Ping Mao,  Yuezhi Mao,  N. Mardirossian,  
 A. V. Marenich,  T. Markovich,  L. A. Martinez-Martinez,  S. A. Maurer,  
 N. J. Mayhall,  S. C. McKenzie,  J.-M. Mewes,  P. Morgante,  A. F. Morrison,  
 J. W. Mullinax,  K. Nanda,  T. S. Nguyen-Beck,  R. Olivares-Amaya,  
 J. A. Parkhill,  S. K. Paul,  F. Pavosevic,  Zheng Pei,  T. M. Perrine,  
 F. Plasser,  P. Pokhilko,  S. Prager,  A. Prociuk,  E. Ramos,  B. Rana,  
 D. R. Rehn,  F. Rob,  M. Scheurer,  M. Schneider,  N. Sergueev,  
 S. M. Sharada,  S. Sharma,  D. W. Small,  T. Stauch,  C. J. Stein,  
 T. Stein,  Yu-Chuan Su,  S. P. Veccham,  Zhen Tao,  A. J. W. Thom,  
 A. Tkatchenko,  T. Tsuchimochi,  N. M. Tubman,  L. Vogt,  M. L. Vidal,  
 O. Vydrov,  M. A. Watson,  J. Wenzel,  M. de Wergifosse,  T. A. Wesolowski,  
 A. White,  J. Witte,  A. Yamada,  Jun Yang,  K. Yao,  S. Yeganeh,  
 S. R. Yost,  Zhi-Qiang You,  A. Zech,  Igor Ying Zhang,  Xing Zhang,  
 Yan Zhao,  Ying Zhu,  B. R. Brooks,  G. K. L. Chan,  C. J. Cramer,  
 M. S. Gordon,  W. J. Hehre,  A. Klamt,  M. W. Schmidt,  C. D. Sherrill,  
 D. G. Truhlar,  A. Aspuru-Guzik,  R. Baer,  A. T. Bell,  N. A. Besley,  
 Jeng-Da Chai,  A. E. DePrince, III,  R. A. DiStasio Jr.,  A. Dreuw,  
 B. D. Dunietz,  T. R. Furlani,  Chao-Ping Hsu,  Yousung Jung,  Jing Kong,  
 D. S. Lambrecht,  WanZhen Liang,  C. Ochsenfeld,  V. A. Rassolov,  
 L. V. Slipchenko,  J. E. Subotnik,  T. Van Voorhis,  J. M. Herbert,  
 A. I. Krylov,  P. M. W. Gill,  M. Head-Gordon

 Contributors to earlier versions of Q-Chem not listed above: 
 R. D. Adamson,  B. Austin,  J. Baker,  G. J. O. Beran,  K. Brandhorst,  
 S. T. Brown,  E. F. C. Byrd,  A. K. Chakraborty,  C.-L. Cheng,  
 Siu Hung Chien,  D. M. Chipman,  D. L. Crittenden,  H. Dachsel,  
 R. J. Doerksen,  A. D. Dutoi,  L. Fusti-Molnar,  W. A. Goddard III,  
 A. Golubeva-Zadorozhnaya,  S. R. Gwaltney,  G. Hawkins,  A. Heyden,  
 S. Hirata,  G. Kedziora,  F. J. Keil,  C. Kelley,  Jihan Kim,  R. A. King,  
 R. Z. Khaliullin,  P. P. Korambath,  W. Kurlancheek,  A. M. Lee,  M. S. Lee,  
 S. V. Levchenko,  Ching Yeh Lin,  D. Liotard,  R. C. Lochan,  I. Lotan,  
 P. E. Maslen,  N. Nair,  D. P. O'Neill,  D. Neuhauser,  E. Neuscamman,  
 C. M. Oana,  R. Olson,  B. Peters,  R. Peverati,  P. A. Pieniazek,  
 Y. M. Rhee,  J. Ritchie,  M. A. Rohrdanz,  E. Rosta,  N. J. Russ,  
 H. F. Schaefer III,  N. E. Schultz,  N. Shenvi,  A. C. Simmonett,  A. Sodt,  
 D. Stuck,  K. S. Thanthiriwatte,  V. Vanovschi,  Tao Wang,  A. Warshel,  
 C. F. Williams,  Q. Wu,  X. Xu,  W. Zhang

 Please cite Q-Chem as follows:
 Y. Shao et al., Mol. Phys. 113, 184-215 (2015)
 DOI: 10.1080/00268976.2014.952696

 Q-Chem 5.2.2 for Intel X86 EM64T Linux

 Parts of Q-Chem use Armadillo 9.800.1 (Horizon Scraper).
 http://arma.sourceforge.net/

 Q-Chem begins on Thu Apr  8 15:08:49 2021  

Host: node027
0

     Scratch files written to /home/ymao90/scratch/probe_b3lyp_water20210408150848//
Symmetry turned off for PCM/SM12/SMD calculation

Checking the input file for inconsistencies... 	...done.

--------------------------------------------------------------
User input:
--------------------------------------------------------------
$molecule
0 1
C    0.58000    11.83000   20.41000  
C    0.42000    10.41000   19.83000  
C    1.53000    9.53000    20.44000  
C    1.44000    9.53000    21.98000  
C    1.37000    10.92000   22.65000  
C    0.42000    11.90000   21.94000  
H    1.49000    8.50000    20.05000  
H    -0.52000   10.00000   20.20000  
H    1.40000    12.47000   20.08000  
H    -0.28000   12.43000   20.08000  
H    0.54000    9.00000    22.28000  
H    2.32000    8.99000    22.34000  
H    1.27000    10.83000   23.73000  
H    2.37000    11.32000   22.50000  
H    -0.63000   11.62000   22.11000  
H    0.56000    12.91000   22.33000  
H    2.51000    9.84000    20.07000  
N    0.54000    10.41000   18.38000  
H    1.39000    10.78000   17.99000  
C    -0.47000   10.09000   17.50000  
H    -0.16000   10.30000   16.46000  
O    -1.56000   9.66000    17.84000  
$end

$rem
JOBTYPE  OPT
METHOD  B3LYP
BASIS  6-31+G(D)
SYMMETRY  FALSE
SYM_IGNORE  FALSE
MEM_TOTAL  8000
MEM_STATIC  2000
MAX_SUB_FILE_NUM  16000
BASIS_LIN_DEP_THRESH  6
THRESH  14
SCF_CONVERGENCE  8
GEN_SCFMAN  TRUE
SCF_GUESS  SAD
FD_MAT_VEC_PROD  FALSE
XC_GRID  000099000590
NL_GRID  1
MAX_SCF_CYCLES  200
GEOM_OPT_TOL_GRADIENT  100
GEOM_OPT_TOL_DISPLACEMENT  100
GEOM_OPT_TOL_ENERGY  10
SOLVENT_METHOD       PCM
$end

$PCM
THEORY                     CPCM
METHOD                     SWIG
SOLVER                     INVERSION
HPOINTS                    302
HEAVYPOINTS                302
$END

$SOLVENT
DIELECTRIC                 78.40
$END

--------------------------------------------------------------
 ----------------------------------------------------------------
             Standard Nuclear Orientation (Angstroms)
    I     Atom           X                Y                Z
 ----------------------------------------------------------------
    1      C       0.5800000000    11.8300000000    20.4100000000
    2      C       0.4200000000    10.4100000000    19.8300000000
    3      C       1.5300000000     9.5300000000    20.4400000000
    4      C       1.4400000000     9.5300000000    21.9800000000
    5      C       1.3700000000    10.9200000000    22.6500000000
    6      C       0.4200000000    11.9000000000    21.9400000000
    7      H       1.4900000000     8.5000000000    20.0500000000
    8      H      -0.5200000000    10.0000000000    20.2000000000
    9      H       1.4000000000    12.4700000000    20.0800000000
   10      H      -0.2800000000    12.4300000000    20.0800000000
   11      H       0.5400000000     9.0000000000    22.2800000000
   12      H       2.3200000000     8.9900000000    22.3400000000
   13      H       1.2700000000    10.8300000000    23.7300000000
   14      H       2.3700000000    11.3200000000    22.5000000000
   15      H      -0.6300000000    11.6200000000    22.1100000000
   16      H       0.5600000000    12.9100000000    22.3300000000
   17      H       2.5100000000     9.8400000000    20.0700000000
   18      N       0.5400000000    10.4100000000    18.3800000000
   19      H       1.3900000000    10.7800000000    17.9900000000
   20      C      -0.4700000000    10.0900000000    17.5000000000
   21      H      -0.1600000000    10.3000000000    16.4600000000
   22      O      -1.5600000000     9.6600000000    17.8400000000
 ----------------------------------------------------------------
 Nuclear Repulsion Energy =         465.59151226 hartrees
 There are       35 alpha and       35 beta electrons
 Requested basis set is 6-31+G(d)
 There are 71 shells and 197 basis functions

 Total QAlloc Memory Limit   8000 MB
 Mega-Array Size      1956 MB
 MEM_STATIC part      2000 MB
 Discretize the solute cavity surface with Lebedev spheres
	Using 302 Lebedev grid points for each H atom
	Using 302 Lebedev grid points for other atoms
	Atomic van der Waals radii will be scaled by 1.20
 Remove points where switching function is < 1.0e-08
 Keep 2715 surface tesserae and discard 3929 interior tesserae
 Molecular Surface Area = 182.762 Angst**2
 A cutoff of  1.0D-14 yielded   2410 shell pairs
 There are     18990 function pairs
 Smallest overlap matrix eigenvalue = 2.31E-05

 Scale SEOQF with 1.000000e-01/1.000000e-02/1.000000e-03

 Standard Electronic Orientation quadrupole field applied
 Nucleus-field energy     =     0.0000000281 hartrees
 Guess from superposition of atomic densities
 Warning:  Energy on first SCF cycle will be non-variational
 SAD guess density has 70.000000 electrons

 -----------------------------------------------------------------------
  General SCF calculation program by
  Eric Jon Sundstrom, Paul Horn, Yuezhi Mao, Dmitri Zuev, Alec White,
  David Stuck, Shaama M.S., Shane Yost, Joonho Lee, David Small,
  Daniel Levine, Susi Lehtola, Hugh Burton, Evgeny Epifanovsky,
  Bang C. Huynh
 -----------------------------------------------------------------------
 Exchange:     0.2000 Hartree-Fock + 0.0800 Slater + 0.7200 B88
 Correlation:  0.1900 VWN1RPA + 0.8100 LYP
 Using Euler-Maclaurin-Lebedev (99,590) quadrature formula
 using 16 threads for integral computing
 -------------------------------------------------------
 OpenMP Integral computing Module                
 Release: version 2.0, May 2017, Q-Chem Inc. Pleasanton 
 -------------------------------------------------------
 A restricted SCF calculation will be
 performed using DIIS
 SCF converges when DIIS error is below 1.0e-08
 ---------------------------------------
  Cycle       Energy         DIIS error
 ---------------------------------------
    1    -406.2393373780      5.09e-02  
    2    -404.3917107176      6.41e-03  
    3    -404.1788695500      9.82e-03  
    4    -404.5676179751      1.94e-03  
    5    -404.5816003783      5.31e-04  
    6    -404.5826956812      1.54e-04  
    7    -404.5827879146      5.47e-05  
    8    -404.5828005773      9.67e-06  
    9    -404.5828009669      2.28e-06  
   10    -404.5828009890      5.35e-07  
   11    -404.5828009901      1.84e-07  
   12    -404.5828009903      2.24e-08  
   13    -404.5828009903      5.60e-09  Convergence criterion met
 ---------------------------------------
 SCF time:   CPU 873.66s  wall 60.00s 

************** Final PCM Free Energy Summary **************
 G_electrostatic  =      -0.01834355 hartree =     -11.51074980 kcal/mol
 G_cavitation     =       0.00000000 hartree =       0.00000000 kcal/mol
 G_dispersion     =       0.00000000 hartree =       0.00000000 kcal/mol
 G_repulsion      =       0.00000000 hartree =       0.00000000 kcal/mol
 --------------------------------------------------
 Non-electrostatic Free Energy =       0.00000000 hartree =       0.00000000 kcal/mol
 Total                         =      -0.01834355 hartree =     -11.51074980 kcal/mol
 --------------------------------------------------
 SCF Energy (H0 + V/2)                       =    -404.58280099 
 Solute Internal Energy (H0)                 =    -404.56445744 
 Total Free Energy (H0 + V/2 + non-elec)     =    -404.58280099 hartree
                                             = -253879.53942512 kcal/mol
***********************************************************

 SCF   energy in the final basis set =     -404.5828009903
 Total energy in the final basis set =     -404.5828009903
 
 --------------------------------------------------------------
 
                    Orbital Energies (a.u.)
 --------------------------------------------------------------
 
 Alpha MOs
 -- Occupied --
-19.1407 -14.3681 -10.2971 -10.2276 -10.1797 -10.1794 -10.1794 -10.1769
-10.1735  -1.0510  -0.9294  -0.8207  -0.7419  -0.7395  -0.6385  -0.6100
 -0.5927  -0.5606  -0.5285  -0.4851  -0.4597  -0.4436  -0.4406  -0.4234
 -0.4194  -0.3976  -0.3786  -0.3664  -0.3479  -0.3446  -0.3198  -0.3049
 -0.3033  -0.2766  -0.2564
 -- Virtual --
  0.0050   0.0093   0.0187   0.0247   0.0263   0.0416   0.0492   0.0498
  0.0589   0.0687   0.0707   0.0843   0.0866   0.0968   0.1026   0.1054
  0.1126   0.1167   0.1310   0.1345   0.1410   0.1514   0.1563   0.1647
  0.1710   0.1805   0.1820   0.1865   0.2013   0.2039   0.2100   0.2114
  0.2201   0.2271   0.2334   0.2444   0.2512   0.2562   0.2658   0.2711
  0.2756   0.2794   0.2844   0.2913   0.3024   0.3064   0.3164   0.3275
  0.3351   0.3399   0.3506   0.3751   0.3795   0.3819   0.4164   0.4282
  0.4395   0.4563   0.4860   0.6129   0.6450   0.6613   0.6642   0.6748
  0.6922   0.7051   0.7261   0.7326   0.7485   0.7529   0.7700   0.7788
  0.7952   0.8081   0.8302   0.8396   0.8690   0.8993   0.9507   0.9723
  0.9870   0.9988   1.0258   1.0282   1.0411   1.0620   1.0766   1.1152
  1.1202   1.1286   1.1354   1.1415   1.1458   1.1650   1.1765   1.1922
  1.2388   1.2440   1.2843   1.3157   1.3292   1.3712   1.4092   1.4194
  1.4687   1.4883   1.4962   1.5583   1.5858   1.6172   1.6712   1.7086
  1.7379   1.7596   1.7771   1.7801   1.8253   1.8693   1.8918   1.9010
  1.9231   1.9585   1.9748   2.0057   2.0067   2.0396   2.0724   2.0848
  2.0991   2.1408   2.1874   2.2110   2.2828   2.3036   2.3160   2.3433
  2.3884   2.3975   2.4372   2.4475   2.4617   2.5603   2.5731   2.6125
  2.6792   2.6964   2.7049   2.7524   2.7776   2.8344   2.8740   3.0072
  3.1826   4.0836   4.1857   4.2283   4.2981   4.3455   4.4124   4.5911
  4.6111   4.6595
 --------------------------------------------------------------
 
          Ground-State Mulliken Net Atomic Charges

     Atom                 Charge (a.u.)
  ----------------------------------------
      1 C                    -0.335911
      2 C                    -0.428650
      3 C                    -0.296214
      4 C                    -0.449980
      5 C                    -0.357443
      6 C                    -0.452324
      7 H                     0.209408
      8 H                     0.235644
      9 H                     0.224236
     10 H                     0.210504
     11 H                     0.206175
     12 H                     0.202521
     13 H                     0.201860
     14 H                     0.198884
     15 H                     0.202964
     16 H                     0.207237
     17 H                     0.215345
     18 N                    -0.389036
     19 H                     0.454880
     20 C                     0.342464
     21 H                     0.188444
     22 O                    -0.591008
  ----------------------------------------
  Sum of atomic charges =     0.000000

 -----------------------------------------------------------------
                    Cartesian Multipole Moments
 -----------------------------------------------------------------
    Charge (ESU x 10^10)
                 0.0000
    Dipole Moment (Debye)
         X       5.0759      Y       2.2478      Z       0.7114
       Tot       5.5967
    Quadrupole Moments (Debye-Ang)
        XX     -61.0790     XY      50.6599     YY     -11.1677
        XZ      91.5143     YZ      48.3386     ZZ     -25.6416
    Octopole Moments (Debye-Ang^2)
       XXX     -71.0892    XXY    -634.2373    XYY     478.8920
       YYY   -1090.5927    XXZ   -1221.6547    XYZ     914.5377
       YYZ    -237.2913    XZZ    1622.3681    YZZ     475.5670
       ZZZ   -2443.3488
    Hexadecapole Moments (Debye-Ang^3)
      XXXX    -514.8928   XXXY    -762.0637   XXYY   -6738.0558
      XYYY    4203.0195   YYYY  -28395.4766   XXXZ   -1686.4636
      XXYZ  -12737.0540   XYYZ    8526.2438   YYYZ  -22636.5224
      XXZZ  -24751.0959   XYZZ   16220.7526   YYZZ  -11078.0151
      XZZZ   27858.4332   YZZZ  -12136.9926   ZZZZ -112313.0288
 -----------------------------------------------------------------
 Calculating analytic gradient of the SCF energy
 Gradient of SCF Energy
            1           2           3           4           5           6
    1   0.0280204  -0.0363067  -0.0067184   0.0011608  -0.0259535   0.0075231
    2  -0.0385335  -0.0032119   0.0080126   0.0026443  -0.0027207   0.0209510
    3  -0.0002550  -0.0123237   0.0053354  -0.0022736   0.0178322  -0.0085320
            7           8           9          10          11          12
    1   0.0101989   0.0086118  -0.0110935   0.0023683   0.0031489   0.0045028
    2  -0.0009376  -0.0004710   0.0187323   0.0033502   0.0105535   0.0019370
    3  -0.0046950   0.0136340   0.0036326   0.0088623   0.0002836  -0.0064580
           13          14          15          16          17          18
    1   0.0096158  -0.0069251  -0.0015248   0.0007177   0.0006472   0.0213864
    2  -0.0003495  -0.0077643  -0.0008081  -0.0003001  -0.0100190   0.0017889
    3  -0.0017975  -0.0032724  -0.0080955   0.0037125  -0.0066865   0.0160953
           19          20          21          22
    1   0.0067952  -0.0462505   0.0091190   0.0209562
    2   0.0026919  -0.0199668   0.0066537   0.0077671
    3  -0.0027030  -0.0094670  -0.0031157   0.0002870
 Max gradient component =       4.625E-02
 RMS gradient           =       1.298E-02
 Computing fast CPCM-SWIG gradient
 Updating gradient with PCM contributions...
 -- total gradient after adding PCM contribution --
---------------------------------------------------
  Atom         X              Y              Z     
---------------------------------------------------
   1       0.031324      -0.028891      -0.003614
   2      -0.035306      -0.003198      -0.015079
   3       0.002185       0.006695       0.001009
   4       0.001112      -0.001733       0.001063
   5      -0.019919      -0.001078       0.020780
   6       0.003888       0.024027      -0.005460
   7       0.008992       0.000321      -0.003962
   8       0.006765      -0.001249       0.012042
   9      -0.015287       0.014152       0.005468
  10       0.002906       0.001863       0.008759
  11       0.004733       0.010863      -0.000202
  12       0.001642       0.002913      -0.006852
  13       0.009320      -0.000123      -0.004209
  14      -0.009737      -0.008635      -0.002320
  15       0.000141      -0.000252      -0.007860
  16      -0.000132      -0.003468       0.002680
  17      -0.004661      -0.011486      -0.003961
  18       0.032012       0.007067       0.012005
  19      -0.006560      -0.003243       0.003128
  20      -0.039230      -0.017231      -0.015331
  21       0.004686       0.004507       0.000615
  22       0.021127       0.008183       0.001300
---------------------------------------------------
 Number of fixed atoms: 0
 Gradient time:  CPU 127.62 s  wall 11.67 s
 Geometry Optimization Parameters
   NAtoms,    NIC,     NZ,  NCons,   NDum,   NFix, NCnnct, MaxDiis
       22     172       0       0       0       0       0       0


** GEOMETRY OPTIMIZATION IN DELOCALIZED INTERNAL COORDINATES **
   Searching for a Minimum

   Optimization Cycle:   1

                       Coordinates (Angstroms)
     ATOM                X               Y               Z
      1  C         0.5800000000   11.8300000000   20.4100000000
      2  C         0.4200000000   10.4100000000   19.8300000000
      3  C         1.5300000000    9.5300000000   20.4400000000
      4  C         1.4400000000    9.5300000000   21.9800000000
      5  C         1.3700000000   10.9200000000   22.6500000000
      6  C         0.4200000000   11.9000000000   21.9400000000
      7  H         1.4900000000    8.5000000000   20.0500000000
      8  H        -0.5200000000   10.0000000000   20.2000000000
      9  H         1.4000000000   12.4700000000   20.0800000000
     10  H        -0.2800000000   12.4300000000   20.0800000000
     11  H         0.5400000000    9.0000000000   22.2800000000
     12  H         2.3200000000    8.9900000000   22.3400000000
     13  H         1.2700000000   10.8300000000   23.7300000000
     14  H         2.3700000000   11.3200000000   22.5000000000
     15  H        -0.6300000000   11.6200000000   22.1100000000
     16  H         0.5600000000   12.9100000000   22.3300000000
     17  H         2.5100000000    9.8400000000   20.0700000000
     18  N         0.5400000000   10.4100000000   18.3800000000
     19  H         1.3900000000   10.7800000000   17.9900000000
     20  C        -0.4700000000   10.0900000000   17.5000000000
     21  H        -0.1600000000   10.3000000000   16.4600000000
     22  O        -1.5600000000    9.6600000000   17.8400000000
   Point Group: c1    Number of degrees of freedom:    60


   Energy is   -404.582800990


 Attempting to generate delocalized internal coordinates
 Initial Hessian constructed with Jon Baker's OPTIMIZE code

 60 Hessian modes will be used to form the next step
  Hessian Eigenvalues:
     0.004850    0.005407    0.006560    0.008376    0.012775    0.018054
     0.018651    0.018677    0.019042    0.033610    0.034591    0.037072
     0.041066    0.046592    0.048162    0.049493    0.050142    0.053390
     0.056519    0.060833    0.066651    0.080982    0.082752    0.082982
     0.085572    0.087172    0.089974    0.096067    0.124538    0.124890
     0.139174    0.159119    0.160000    0.162683    0.172956    0.213045
     0.220010    0.220236    0.268980    0.271008    0.272947    0.282129
     0.284145    0.285211    0.330973    0.334522    0.336922    0.337577
     0.344187    0.345335    0.346174    0.346647    0.347861    0.350043
     0.351115    0.351977    0.376029    0.466943    0.496029    0.953470

 Minimum search - taking simple RFO step
 Searching for Lamda that Minimizes Along All modes
 Value Taken    Lamda =  -0.02472190
 Calculated Step too Large.  Step scaled by  0.540412
 Step Taken.  Stepsize is  0.300000

                             Maximum     Tolerance    Cnvgd?
         Gradient           0.023828      0.000100      NO
         Displacement       0.182938      0.000100      NO
         Energy change     *********      0.000000      NO


 New Cartesian Coordinates Obtained by Inverse Iteration

 Displacement from previous Coordinates is:  0.267082
 ----------------------------------------------------------------
             Standard Nuclear Orientation (Angstroms)
    I     Atom           X                Y                Z
 ----------------------------------------------------------------
    1      C       0.5514542792    11.8425963144    20.4041929300
    2      C       0.4305248806    10.4213185075    19.8312431187
    3      C       1.5290293321     9.5322418113    20.4535990094
    4      C       1.4379152246     9.5176707766    21.9896900753
    5      C       1.3994489215    10.9216771404    22.6312262700
    6      C       0.4159577498    11.8824436215    21.9422922751
    7      H       1.4701376013     8.5048514580    20.0608660604
    8      H      -0.5271673322    10.0119758892    20.1568224854
    9      H       1.4044191653    12.4402441006    20.0660852061
   10      H      -0.3041411942    12.4344156408    20.0395554304
   11      H       0.5319604009     8.9811483203    22.2857256533
   12      H       2.3069577323     8.9681692304    22.3671040396
   13      H       1.2804782678    10.8440236527    23.7141269138
   14      H       2.4026392832    11.3384526611    22.4827901548
   15      H      -0.6235075531    11.5916394531    22.1590470756
   16      H       0.5570823508    12.8967069156    22.3256637292
   17      H       2.5169549142     9.8611061561    20.1078040666
   18      N       0.5398556629    10.4257567400    18.3798928622
   19      H       1.3920491865    10.7968807082    17.9838426107
   20      C      -0.4643429499    10.1067349438    17.5096171756
   21      H      -0.1561390122    10.2842472560    16.4644038396
   22      O      -1.5615669114     9.6656987024    17.8344090181
 ----------------------------------------------------------------
 Nuclear Repulsion Energy =         465.45743929 hartrees
 There are       35 alpha and       35 beta electrons
 Discretize the solute cavity surface with Lebedev spheres
	Using 302 Lebedev grid points for each H atom
	Using 302 Lebedev grid points for other atoms
	Atomic van der Waals radii will be scaled by 1.20
 Remove points where switching function is < 1.0e-08
 Keep 2736 surface tesserae and discard 3908 interior tesserae
 Molecular Surface Area = 182.934 Angst**2
 Applying Cartesian multipole field
    Component          Value
    ---------          -----
     (2,0,0)        1.00000E-11
     (0,2,0)        2.00000E-12
     (0,0,2)       -3.00000E-13
 Nucleus-field energy     =     0.0000000281 hartrees
 Requested basis set is 6-31+G(d)
 There are 71 shells and 197 basis functions
 A cutoff of  1.0D-14 yielded   2411 shell pairs
 There are     18991 function pairs
 Smallest overlap matrix eigenvalue = 2.36E-05
 Guess MOs from SCF MO coefficient file

 -----------------------------------------------------------------------
  General SCF calculation program by
  Eric Jon Sundstrom, Paul Horn, Yuezhi Mao, Dmitri Zuev, Alec White,
  David Stuck, Shaama M.S., Shane Yost, Joonho Lee, David Small,
  Daniel Levine, Susi Lehtola, Hugh Burton, Evgeny Epifanovsky,
  Bang C. Huynh
 -----------------------------------------------------------------------
 Exchange:     0.2000 Hartree-Fock + 0.0800 Slater + 0.7200 B88
 Correlation:  0.1900 VWN1RPA + 0.8100 LYP
 Using Euler-Maclaurin-Lebedev (99,590) quadrature formula
 using 16 threads for integral computing
 -------------------------------------------------------
 OpenMP Integral computing Module                
 Release: version 2.0, May 2017, Q-Chem Inc. Pleasanton 
 -------------------------------------------------------
 A restricted SCF calculation will be
 performed using Roothaan-Hall, DIIS
 SCF converges when DIIS error is below 1.0e-08
 ---------------------------------------
  Cycle       Energy         DIIS error
 ---------------------------------------
    1    -404.5735438014      7.34e-04  Roothaan Step
 ---------------------------------------
  Cycle       Energy         DIIS error
 ---------------------------------------
    1    -404.5825386148      1.26e-03  
    2    -404.5657607277      2.71e-03  
    3    -404.5933830536      2.12e-04  
    4    -404.5935413156      1.24e-04  
    5    -404.5936007106      3.62e-05  
    6    -404.5936061391      9.48e-06  
    7    -404.5936064976      3.00e-06  
    8    -404.5936065404      5.57e-07  
    9    -404.5936065417      2.48e-07  
   10    -404.5936065420      4.52e-08  
   11    -404.5936065420      1.34e-08  
   12    -404.5936065420      3.06e-09  Convergence criterion met
 ---------------------------------------
 SCF time:   CPU 872.30s  wall 60.00s 

************** Final PCM Free Energy Summary **************
 G_electrostatic  =      -0.01884838 hartree =     -11.82753979 kcal/mol
 G_cavitation     =       0.00000000 hartree =       0.00000000 kcal/mol
 G_dispersion     =       0.00000000 hartree =       0.00000000 kcal/mol
 G_repulsion      =       0.00000000 hartree =       0.00000000 kcal/mol
 --------------------------------------------------
 Non-electrostatic Free Energy =       0.00000000 hartree =       0.00000000 kcal/mol
 Total                         =      -0.01884838 hartree =     -11.82753979 kcal/mol
 --------------------------------------------------
 SCF Energy (H0 + V/2)                       =    -404.59360654 
 Solute Internal Energy (H0)                 =    -404.57475816 
 Total Free Energy (H0 + V/2 + non-elec)     =    -404.59360654 hartree
                                             = -253886.32001115 kcal/mol
***********************************************************

 SCF   energy in the final basis set =     -404.5936065420
 Total energy in the final basis set =     -404.5936065420
 
 --------------------------------------------------------------
 
                    Orbital Energies (a.u.)
 --------------------------------------------------------------
 
 Alpha MOs
 -- Occupied --
-19.1391 -14.3696 -10.2963 -10.2263 -10.1810 -10.1805 -10.1798 -10.1782
-10.1756  -1.0473  -0.9313  -0.8207  -0.7408  -0.7402  -0.6381  -0.6104
 -0.5923  -0.5608  -0.5271  -0.4848  -0.4592  -0.4427  -0.4390  -0.4216
 -0.4194  -0.3962  -0.3780  -0.3698  -0.3475  -0.3437  -0.3192  -0.3083
 -0.3061  -0.2751  -0.2583
 -- Virtual --
  0.0058   0.0094   0.0184   0.0244   0.0263   0.0415   0.0492   0.0493
  0.0591   0.0688   0.0707   0.0844   0.0868   0.0971   0.1020   0.1054
  0.1125   0.1169   0.1294   0.1343   0.1412   0.1517   0.1562   0.1634
  0.1709   0.1804   0.1819   0.1869   0.2012   0.2028   0.2108   0.2112
  0.2216   0.2274   0.2327   0.2458   0.2506   0.2564   0.2648   0.2720
  0.2759   0.2806   0.2843   0.2903   0.3022   0.3047   0.3154   0.3269
  0.3342   0.3365   0.3528   0.3753   0.3803   0.3834   0.4169   0.4246
  0.4391   0.4551   0.4844   0.6113   0.6434   0.6606   0.6645   0.6730
  0.6895   0.7029   0.7266   0.7321   0.7483   0.7526   0.7713   0.7789
  0.7968   0.8063   0.8271   0.8390   0.8651   0.9036   0.9519   0.9734
  0.9850   0.9968   1.0237   1.0283   1.0380   1.0604   1.0789   1.1111
  1.1202   1.1273   1.1311   1.1418   1.1575   1.1683   1.1785   1.1862
  1.2411   1.2426   1.2820   1.3182   1.3292   1.3697   1.4116   1.4137
  1.4653   1.4876   1.4954   1.5600   1.5841   1.6190   1.6816   1.7190
  1.7371   1.7595   1.7739   1.7845   1.8274   1.8683   1.8980   1.9028
  1.9212   1.9479   1.9737   1.9993   2.0089   2.0388   2.0692   2.0841
  2.1078   2.1243   2.1935   2.2089   2.2801   2.3035   2.3127   2.3438
  2.3956   2.3997   2.4293   2.4331   2.4546   2.5588   2.5751   2.6156
  2.6845   2.6905   2.7028   2.7541   2.7736   2.8369   2.8691   3.0017
  3.1836   4.0866   4.1869   4.2274   4.2962   4.3411   4.4137   4.5953
  4.6071   4.6637
 --------------------------------------------------------------
 
          Ground-State Mulliken Net Atomic Charges

     Atom                 Charge (a.u.)
  ----------------------------------------
      1 C                    -0.320803
      2 C                    -0.415003
      3 C                    -0.302274
      4 C                    -0.450046
      5 C                    -0.364416
      6 C                    -0.454625
      7 H                     0.209493
      8 H                     0.231714
      9 H                     0.220597
     10 H                     0.209514
     11 H                     0.206278
     12 H                     0.203298
     13 H                     0.200801
     14 H                     0.199600
     15 H                     0.204471
     16 H                     0.205835
     17 H                     0.214336
     18 N                    -0.384685
     19 H                     0.454361
     20 C                     0.345498
     21 H                     0.186518
     22 O                    -0.600462
  ----------------------------------------
  Sum of atomic charges =     0.000000

 -----------------------------------------------------------------
                    Cartesian Multipole Moments
 -----------------------------------------------------------------
    Charge (ESU x 10^10)
                -0.0000
    Dipole Moment (Debye)
         X       5.2091      Y       2.2500      Z       0.8515
       Tot       5.7378
    Quadrupole Moments (Debye-Ang)
        XX     -61.1189     XY      52.0432     YY     -11.1766
        XZ      94.0269     YZ      49.5911     ZZ     -20.2830
    Octopole Moments (Debye-Ang^2)
       XXX     -70.7023    XXY    -634.3253    XYY     493.1672
       YYY   -1092.9943    XXZ   -1221.9150    XYZ     940.5449
       YYZ    -227.4889    XZZ    1670.1961    YZZ     522.0412
       ZZZ   -2288.5753
    Hexadecapole Moments (Debye-Ang^3)
      XXXX    -517.2688   XXXY    -756.3792   XXYY   -6735.8663
      XYYY    4348.7988   YYYY  -28480.3947   XXXZ   -1680.1285
      XXYZ  -12732.3514   XYYZ    8793.4462   YYYZ  -22606.6635
      XXZZ  -24746.1199   XYZZ   16713.7150   YYZZ  -10712.7790
      XZZZ   28774.9828   YZZZ  -10818.0151   ZZZZ -108313.3682
 -----------------------------------------------------------------
 Calculating analytic gradient of the SCF energy
 Gradient of SCF Energy
            1           2           3           4           5           6
    1   0.0185888  -0.0233492  -0.0092332   0.0013073  -0.0210869   0.0058532
    2  -0.0303013  -0.0006484   0.0066235   0.0015003  -0.0020890   0.0115051
    3   0.0001023  -0.0101977   0.0080535  -0.0031888   0.0103063  -0.0046348
            7           8           9          10          11          12
    1   0.0069159   0.0064771  -0.0053502  -0.0002383   0.0004206   0.0044768
    2  -0.0021179   0.0007787   0.0148833   0.0037919   0.0044470   0.0011502
    3  -0.0027434   0.0098886  -0.0001533   0.0038329   0.0001147  -0.0033981
           13          14          15          16          17          18
    1   0.0066257  -0.0007091  -0.0024582   0.0013772   0.0037338   0.0095024
    2  -0.0010203  -0.0026461  -0.0006712   0.0006205  -0.0055472  -0.0013315
    3   0.0001451  -0.0022778  -0.0043652   0.0024554  -0.0055211   0.0128405
           19          20          21          22
    1   0.0104907  -0.0353570   0.0079463   0.0140664
    2   0.0044163  -0.0112361   0.0039859   0.0039065
    3  -0.0037600  -0.0037294  -0.0030670  -0.0007024
 Max gradient component =       3.536E-02
 RMS gradient           =       9.258E-03
 Computing fast CPCM-SWIG gradient
 Updating gradient with PCM contributions...
 -- total gradient after adding PCM contribution --
---------------------------------------------------
  Atom         X              Y              Z     
---------------------------------------------------
   1       0.022737      -0.021443      -0.003778
   2      -0.022623      -0.000750      -0.013150
   3      -0.000158       0.005486       0.003908
   4       0.001288      -0.003251       0.000300
   5      -0.015049      -0.000105       0.013540
   6       0.002101       0.014812      -0.001446
   7       0.005924      -0.000660      -0.002094
   8       0.004424      -0.000098       0.008377
   9      -0.010111       0.010862       0.002003
  10       0.000374       0.002311       0.004052
  11       0.002067       0.005009      -0.000380
  12       0.001574       0.002248      -0.004002
  13       0.006494      -0.000801      -0.002318
  14      -0.003831      -0.003803      -0.001353
  15      -0.000763      -0.000064      -0.004426
  16       0.000480      -0.002468       0.001503
  17      -0.001727      -0.007400      -0.003041
  18       0.020371       0.004083       0.008931
  19      -0.003071      -0.001645       0.002055
  20      -0.028272      -0.008582      -0.009296
  21       0.003480       0.001979       0.000476
  22       0.014292       0.004280       0.000139
---------------------------------------------------
 Number of fixed atoms: 0
 Gradient time:  CPU 125.05 s  wall 11.55 s
 Geometry Optimization Parameters
   NAtoms,    NIC,     NZ,  NCons,   NDum,   NFix, NCnnct, MaxDiis
       22     172       0       0       0       0       0       0

 Cartesian Hessian Update
 Hessian updated using BFGS update


** GEOMETRY OPTIMIZATION IN DELOCALIZED INTERNAL COORDINATES **
   Searching for a Minimum

   Optimization Cycle:   2

                       Coordinates (Angstroms)
     ATOM                X               Y               Z
      1  C         0.5514542792   11.8425963144   20.4041929300
      2  C         0.4305248806   10.4213185075   19.8312431187
      3  C         1.5290293321    9.5322418113   20.4535990094
      4  C         1.4379152246    9.5176707766   21.9896900753
      5  C         1.3994489215   10.9216771404   22.6312262700
      6  C         0.4159577498   11.8824436215   21.9422922751
      7  H         1.4701376013    8.5048514580   20.0608660604
      8  H        -0.5271673322   10.0119758892   20.1568224854
      9  H         1.4044191653   12.4402441006   20.0660852061
     10  H        -0.3041411942   12.4344156408   20.0395554304
     11  H         0.5319604009    8.9811483203   22.2857256533
     12  H         2.3069577323    8.9681692304   22.3671040396
     13  H         1.2804782678   10.8440236527   23.7141269138
     14  H         2.4026392832   11.3384526611   22.4827901548
     15  H        -0.6235075531   11.5916394531   22.1590470756
     16  H         0.5570823508   12.8967069156   22.3256637292
     17  H         2.5169549142    9.8611061561   20.1078040666
     18  N         0.5398556629   10.4257567400   18.3798928622
     19  H         1.3920491865   10.7968807082   17.9838426107
     20  C        -0.4643429499   10.1067349438   17.5096171756
     21  H        -0.1561390122   10.2842472560   16.4644038396
     22  O        -1.5615669114    9.6656987024   17.8344090181
   Point Group: c1    Number of degrees of freedom:    60


   Energy is   -404.593606542

 Hessian updated using BFGS update

 60 Hessian modes will be used to form the next step
  Hessian Eigenvalues:
     0.004847    0.005414    0.006557    0.008377    0.012772    0.017374
     0.018564    0.018771    0.019915    0.033192    0.035896    0.037093
     0.041541    0.046154    0.047339    0.049691    0.051185    0.053458
     0.057145    0.060706    0.066925    0.080926    0.082136    0.083335
     0.084318    0.087371    0.090015    0.093102    0.123593    0.125503
     0.139275    0.158054    0.159325    0.162701    0.178970    0.211986
     0.220061    0.220306    0.269244    0.272585    0.275324    0.281712
     0.284849    0.286887    0.330946    0.334420    0.336965    0.338687
     0.344131    0.345324    0.345897    0.346581    0.347706    0.349712
     0.351685    0.356314    0.376840    0.465941    0.483973    0.938875

 Minimum search - taking simple RFO step
 Searching for Lamda that Minimizes Along All modes
 Value Taken    Lamda =  -0.01338822
 Calculated Step too Large.  Step scaled by  0.584305
 Step Taken.  Stepsize is  0.300000

                             Maximum     Tolerance    Cnvgd?
         Gradient           0.016026      0.000100      NO
         Displacement       0.164871      0.000100      NO
         Energy change     -0.010806      0.000000      NO


 New Cartesian Coordinates Obtained by Inverse Iteration

 Displacement from previous Coordinates is:  0.250707
 ----------------------------------------------------------------
             Standard Nuclear Orientation (Angstroms)
    I     Atom           X                Y                Z
 ----------------------------------------------------------------
    1      C       0.5194743905    11.8493166051    20.4053321852
    2      C       0.4369677315    10.4243652026    19.8373666645
    3      C       1.5284973252     9.5340688397    20.4607142982
    4      C       1.4357595580     9.5141464431    21.9942508710
    5      C       1.4276147134    10.9262401156    22.6088924227
    6      C       0.4122828366    11.8676845405    21.9432239922
    7      H       1.4523541350     8.5126480172    20.0603095649
    8      H      -0.5336290274    10.0059479409    20.1167075013
    9      H       1.4089008115    12.3985988334    20.0700820181
   10      H      -0.3290544710    12.4334222458    20.0156530200
   11      H       0.5223980026     8.9837923710    22.2936650665
   12      H       2.2900040225     8.9502086203    22.3878208657
   13      H       1.2900548542    10.8671728394    23.6942251694
   14      H       2.4316667372    11.3495541320    22.4559792322
   15      H      -0.6135322336    11.5642051059    22.2019476981
   16      H       0.5502341377    12.8876603177    22.3190167977
   17      H       2.5186231417     9.8863422074    20.1362514162
   18      N       0.5451737016    10.4291273711    18.3830208793
   19      H       1.3974386977    10.8035425866    17.9820666716
   20      C      -0.4433909985    10.0998794934    17.5187970025
   21      H      -0.1533140266    10.2885632896    16.4713546032
   22      O      -1.5645240398     9.6935128818    17.8333220595
 ----------------------------------------------------------------
 Nuclear Repulsion Energy =         465.99745141 hartrees
 There are       35 alpha and       35 beta electrons
 Discretize the solute cavity surface with Lebedev spheres
	Using 302 Lebedev grid points for each H atom
	Using 302 Lebedev grid points for other atoms
	Atomic van der Waals radii will be scaled by 1.20
 Remove points where switching function is < 1.0e-08
 Keep 2747 surface tesserae and discard 3897 interior tesserae
 Molecular Surface Area = 182.744 Angst**2
 Applying Cartesian multipole field
    Component          Value
    ---------          -----
     (2,0,0)        1.00000E-11
     (0,2,0)        2.00000E-12
     (0,0,2)       -3.00000E-13
 Nucleus-field energy     =     0.0000000281 hartrees
 Requested basis set is 6-31+G(d)
 There are 71 shells and 197 basis functions
 A cutoff of  1.0D-14 yielded   2411 shell pairs
 There are     18991 function pairs
 Smallest overlap matrix eigenvalue = 2.39E-05
 Guess MOs from SCF MO coefficient file

 -----------------------------------------------------------------------
  General SCF calculation program by
  Eric Jon Sundstrom, Paul Horn, Yuezhi Mao, Dmitri Zuev, Alec White,
  David Stuck, Shaama M.S., Shane Yost, Joonho Lee, David Small,
  Daniel Levine, Susi Lehtola, Hugh Burton, Evgeny Epifanovsky,
  Bang C. Huynh
 -----------------------------------------------------------------------
 Exchange:     0.2000 Hartree-Fock + 0.0800 Slater + 0.7200 B88
 Correlation:  0.1900 VWN1RPA + 0.8100 LYP
 Using Euler-Maclaurin-Lebedev (99,590) quadrature formula
 using 16 threads for integral computing
 -------------------------------------------------------
 OpenMP Integral computing Module                
 Release: version 2.0, May 2017, Q-Chem Inc. Pleasanton 
 -------------------------------------------------------
 A restricted SCF calculation will be
 performed using Roothaan-Hall, DIIS
 SCF converges when DIIS error is below 1.0e-08
 ---------------------------------------
  Cycle       Energy         DIIS error
 ---------------------------------------
    1    -404.5781807980      7.82e-04  Roothaan Step
 ---------------------------------------
  Cycle       Energy         DIIS error
 ---------------------------------------
    1    -404.5875907453      1.30e-03  
    2    -404.5694131000      2.81e-03  
    3    -404.5991495399      2.20e-04  
    4    -404.5993216382      1.28e-04  
    5    -404.5993850028      3.70e-05  
    6    -404.5993907092      9.53e-06  
    7    -404.5993910630      3.21e-06  
    8    -404.5993911124      5.82e-07  
    9    -404.5993911138      2.56e-07  
   10    -404.5993911141      4.62e-08  
   11    -404.5993911141      1.30e-08  
   12    -404.5993911141      3.14e-09  Convergence criterion met
 ---------------------------------------
 SCF time:   CPU 882.48s  wall 60.00s 

************** Final PCM Free Energy Summary **************
 G_electrostatic  =      -0.01950626 hartree =     -12.24036269 kcal/mol
 G_cavitation     =       0.00000000 hartree =       0.00000000 kcal/mol
 G_dispersion     =       0.00000000 hartree =       0.00000000 kcal/mol
 G_repulsion      =       0.00000000 hartree =       0.00000000 kcal/mol
 --------------------------------------------------
 Non-electrostatic Free Energy =       0.00000000 hartree =       0.00000000 kcal/mol
 Total                         =      -0.01950626 hartree =     -12.24036269 kcal/mol
 --------------------------------------------------
 SCF Energy (H0 + V/2)                       =    -404.59939111 
 Solute Internal Energy (H0)                 =    -404.57988485 
 Total Free Energy (H0 + V/2 + non-elec)     =    -404.59939111 hartree
                                             = -253889.94988494 kcal/mol
***********************************************************

 SCF   energy in the final basis set =     -404.5993911141
 Total energy in the final basis set =     -404.5993911141
 
 --------------------------------------------------------------
 
                    Orbital Energies (a.u.)
 --------------------------------------------------------------
 
 Alpha MOs
 -- Occupied --
-19.1369 -14.3708 -10.2949 -10.2253 -10.1815 -10.1811 -10.1795 -10.1788
-10.1766  -1.0432  -0.9330  -0.8222  -0.7418  -0.7409  -0.6378  -0.6110
 -0.5920  -0.5612  -0.5263  -0.4845  -0.4595  -0.4426  -0.4381  -0.4208
 -0.4187  -0.3955  -0.3774  -0.3726  -0.3468  -0.3435  -0.3192  -0.3101
 -0.3083  -0.2732  -0.2597
 -- Virtual --
  0.0074   0.0088   0.0182   0.0241   0.0263   0.0416   0.0488   0.0493
  0.0594   0.0691   0.0707   0.0844   0.0870   0.0969   0.1016   0.1056
  0.1125   0.1173   0.1281   0.1343   0.1413   0.1520   0.1564   0.1626
  0.1707   0.1805   0.1821   0.1877   0.2003   0.2030   0.2105   0.2127
  0.2226   0.2273   0.2324   0.2464   0.2499   0.2561   0.2648   0.2721
  0.2767   0.2825   0.2850   0.2913   0.3000   0.3043   0.3149   0.3270
  0.3328   0.3347   0.3559   0.3748   0.3827   0.3858   0.4176   0.4224
  0.4399   0.4553   0.4836   0.6104   0.6418   0.6598   0.6648   0.6712
  0.6879   0.7014   0.7280   0.7328   0.7448   0.7553   0.7731   0.7795
  0.7982   0.8059   0.8247   0.8404   0.8638   0.9069   0.9532   0.9750
  0.9829   0.9948   1.0223   1.0285   1.0339   1.0590   1.0827   1.1074
  1.1210   1.1253   1.1295   1.1420   1.1651   1.1728   1.1820   1.1854
  1.2396   1.2451   1.2808   1.3202   1.3324   1.3722   1.4040   1.4147
  1.4713   1.4869   1.4903   1.5620   1.5848   1.6201   1.6883   1.7274
  1.7409   1.7592   1.7689   1.7924   1.8333   1.8717   1.9027   1.9101
  1.9188   1.9400   1.9724   2.0044   2.0099   2.0420   2.0650   2.0856
  2.1142   2.1187   2.2003   2.2104   2.2801   2.3009   2.3205   2.3423
  2.3995   2.4094   2.4212   2.4251   2.4507   2.5592   2.5801   2.6195
  2.6848   2.6889   2.7044   2.7566   2.7767   2.8386   2.8669   2.9968
  3.1864   4.0910   4.1901   4.2289   4.2970   4.3384   4.4142   4.6003
  4.6054   4.6677
 --------------------------------------------------------------
 
          Ground-State Mulliken Net Atomic Charges

     Atom                 Charge (a.u.)
  ----------------------------------------
      1 C                    -0.306103
      2 C                    -0.409262
      3 C                    -0.297653
      4 C                    -0.452922
      5 C                    -0.370824
      6 C                    -0.458012
      7 H                     0.210163
      8 H                     0.229010
      9 H                     0.217491
     10 H                     0.209836
     11 H                     0.206550
     12 H                     0.203674
     13 H                     0.200002
     14 H                     0.201136
     15 H                     0.205960
     16 H                     0.204908
     17 H                     0.214156
     18 N                    -0.381292
     19 H                     0.453916
     20 C                     0.345362
     21 H                     0.185483
     22 O                    -0.611578
  ----------------------------------------
  Sum of atomic charges =     0.000000

 -----------------------------------------------------------------
                    Cartesian Multipole Moments
 -----------------------------------------------------------------
    Charge (ESU x 10^10)
                -0.0000
    Dipole Moment (Debye)
         X       5.3720      Y       2.1975      Z       0.9886
       Tot       5.8877
    Quadrupole Moments (Debye-Ang)
        XX     -61.2156     XY      53.8169     YY     -12.2062
        XZ      97.0409     YZ      49.9526     ZZ     -15.0558
    Octopole Moments (Debye-Ang^2)
       XXX     -70.2790    XXY    -635.0891    XYY     512.0943
       YYY   -1109.2161    XXZ   -1223.2636    XYZ     973.3016
       YYZ    -233.7747    XZZ    1726.1458    YZZ     554.5766
       ZZZ   -2138.1957
    Hexadecapole Moments (Debye-Ang^3)
      XXXX    -518.9136   XXXY    -749.6992   XXYY   -6741.1113
      XYYY    4546.8682   YYYY  -28721.4146   XXXZ   -1672.0982
      XXYZ  -12740.6615   XYYZ    9142.1904   YYYZ  -22787.8080
      XXZZ  -24762.0107   XYZZ   17320.4179   YYZZ  -10583.8205
      XZZZ   29815.2539   YZZZ   -9706.0266   ZZZZ -104443.3451
 -----------------------------------------------------------------
 Calculating analytic gradient of the SCF energy
 Gradient of SCF Energy
            1           2           3           4           5           6
    1   0.0071613  -0.0108064  -0.0107126   0.0008931  -0.0152440   0.0051219
    2  -0.0203186   0.0007301   0.0044859   0.0033983  -0.0027506   0.0034741
    3   0.0024850  -0.0052519   0.0072708  -0.0041993   0.0026838  -0.0035327
            7           8           9          10          11          12
    1   0.0035661   0.0042658   0.0002750  -0.0014378  -0.0008020   0.0040699
    2  -0.0021545   0.0011174   0.0097968   0.0028436   0.0009567   0.0002740
    3  -0.0018557   0.0061605  -0.0015894   0.0014790   0.0005434  -0.0011264
           13          14          15          16          17          18
    1   0.0030492   0.0026099  -0.0023494   0.0017326   0.0054873  -0.0027286
    2  -0.0006830  -0.0002853  -0.0003696   0.0019344  -0.0014627  -0.0033504
    3   0.0017327  -0.0016684  -0.0021435   0.0014469  -0.0040532   0.0089134
           19          20          21          22
    1   0.0124078  -0.0179482   0.0051989   0.0061900
    2   0.0062313  -0.0138688   0.0056578   0.0043431
    3  -0.0050187   0.0013132  -0.0028829  -0.0007067
 Max gradient component =       2.032E-02
 RMS gradient           =       6.014E-03
 Computing fast CPCM-SWIG gradient
 Updating gradient with PCM contributions...
 -- total gradient after adding PCM contribution --
---------------------------------------------------
  Atom         X              Y              Z     
---------------------------------------------------
   1       0.012203      -0.012333      -0.001724
   2      -0.010388       0.000590      -0.008460
   3      -0.001288       0.003545       0.003218
   4       0.000797      -0.001793      -0.000451
   5      -0.009139      -0.000403       0.006141
   6       0.001202       0.006995      -0.000189
   7       0.002800      -0.000444      -0.001160
   8       0.001946       0.000199       0.004701
   9      -0.005105       0.006448       0.000652
  10      -0.000765       0.001380       0.001874
  11       0.000917       0.001678      -0.000005
  12       0.001161       0.001500      -0.001905
  13       0.003135      -0.000525      -0.000788
  14      -0.000861      -0.001647      -0.000694
  15      -0.000650       0.000288      -0.002456
  16       0.000808      -0.001128       0.000569
  17      -0.000174      -0.003764      -0.001756
  18       0.008264       0.002233       0.005094
  19      -0.001321      -0.000020       0.000812
  20      -0.010819      -0.011279      -0.003973
  21       0.000715       0.003637       0.000495
  22       0.006562       0.004844       0.000006
---------------------------------------------------
 Number of fixed atoms: 0
 Gradient time:  CPU 124.45 s  wall 11.68 s
 Geometry Optimization Parameters
   NAtoms,    NIC,     NZ,  NCons,   NDum,   NFix, NCnnct, MaxDiis
       22     172       0       0       0       0       0       0

 Cartesian Hessian Update
 Hessian updated using BFGS update


** GEOMETRY OPTIMIZATION IN DELOCALIZED INTERNAL COORDINATES **
   Searching for a Minimum

   Optimization Cycle:   3

                       Coordinates (Angstroms)
     ATOM                X               Y               Z
      1  C         0.5194743905   11.8493166051   20.4053321852
      2  C         0.4369677315   10.4243652026   19.8373666645
      3  C         1.5284973252    9.5340688397   20.4607142982
      4  C         1.4357595580    9.5141464431   21.9942508710
      5  C         1.4276147134   10.9262401156   22.6088924227
      6  C         0.4122828366   11.8676845405   21.9432239922
      7  H         1.4523541350    8.5126480172   20.0603095649
      8  H        -0.5336290274   10.0059479409   20.1167075013
      9  H         1.4089008115   12.3985988334   20.0700820181
     10  H        -0.3290544710   12.4334222458   20.0156530200
     11  H         0.5223980026    8.9837923710   22.2936650665
     12  H         2.2900040225    8.9502086203   22.3878208657
     13  H         1.2900548542   10.8671728394   23.6942251694
     14  H         2.4316667372   11.3495541320   22.4559792322
     15  H        -0.6135322336   11.5642051059   22.2019476981
     16  H         0.5502341377   12.8876603177   22.3190167977
     17  H         2.5186231417    9.8863422074   20.1362514162
     18  N         0.5451737016   10.4291273711   18.3830208793
     19  H         1.3974386977   10.8035425866   17.9820666716
     20  C        -0.4433909985   10.0998794934   17.5187970025
     21  H        -0.1533140266   10.2885632896   16.4713546032
     22  O        -1.5645240398    9.6935128818   17.8333220595
   Point Group: c1    Number of degrees of freedom:    60


   Energy is   -404.599391114

 Hessian updated using BFGS update

 60 Hessian modes will be used to form the next step
  Hessian Eigenvalues:
     0.004843    0.005405    0.006547    0.008377    0.012662    0.016750
     0.018531    0.018733    0.023170    0.034583    0.037047    0.037229
     0.043518    0.046561    0.048101    0.049740    0.051240    0.053384
     0.056991    0.060516    0.066950    0.080796    0.081183    0.083208
     0.084011    0.087330    0.090065    0.092084    0.123455    0.125697
     0.139232    0.157382    0.159281    0.162698    0.178155    0.211953
     0.219767    0.220269    0.269143    0.272583    0.275483    0.282039
     0.284849    0.287127    0.330929    0.334340    0.336977    0.338487
     0.344095    0.345419    0.345834    0.346546    0.347714    0.349700
     0.351655    0.356954    0.377528    0.466058    0.483315    0.931104

 Minimum search - taking simple RFO step
 Searching for Lamda that Minimizes Along All modes
 Value Taken    Lamda =  -0.00718602
 Calculated Step too Large.  Step scaled by  0.580087
 Step Taken.  Stepsize is  0.300000

                             Maximum     Tolerance    Cnvgd?
         Gradient           0.007832      0.000100      NO
         Displacement       0.131713      0.000100      NO
         Energy change     -0.005785      0.000000      NO


 New Cartesian Coordinates Obtained by Inverse Iteration

 Displacement from previous Coordinates is:  0.309993
 ----------------------------------------------------------------
             Standard Nuclear Orientation (Angstroms)
    I     Atom           X                Y                Z
 ----------------------------------------------------------------
    1      C       0.4965089350    11.8650621345    20.4181549884
    2      C       0.4315849801    10.4406369078    19.8436500404
    3      C       1.5169661768     9.5410673740    20.4563525686
    4      C       1.4275535075     9.5136871486    21.9894370019
    5      C       1.4554268406    10.9274562298    22.5915431201
    6      C       0.4146956403    11.8596440449    21.9545540571
    7      H       1.4224528271     8.5273001281    20.0451428338
    8      H      -0.5482542310    10.0161091309    20.0852191254
    9      H       1.4183850363    12.3673367636    20.0909829198
   10      H      -0.3394050321    12.4531032197    20.0146543876
   11      H       0.5033343516     9.0001832897    22.2922452220
   12      H       2.2638404639     8.9262495648    22.3896809305
   13      H       1.3106280913    10.8786434563    23.6786138530
   14      H       2.4589261892    11.3511364816    22.4298934116
   15      H      -0.5976268094    11.5437497383    22.2474840049
   16      H       0.5497536829    12.8812016998    22.3320417169
   17      H       2.5074025880     9.9085151967    20.1464032918
   18      N       0.5384306350    10.4586509381    18.3849552549
   19      H       1.3948489333    10.8269553531    17.9828342148
   20      C      -0.4372853736    10.1239383464    17.5221066779
   21      H      -0.1210242642    10.2198144370    16.4702496267
   22      O      -1.5371431687     9.6395584165    17.8238007520
 ----------------------------------------------------------------
 Nuclear Repulsion Energy =         466.34017876 hartrees
 There are       35 alpha and       35 beta electrons
 Discretize the solute cavity surface with Lebedev spheres
	Using 302 Lebedev grid points for each H atom
	Using 302 Lebedev grid points for other atoms
	Atomic van der Waals radii will be scaled by 1.20
 Remove points where switching function is < 1.0e-08
 Keep 2748 surface tesserae and discard 3896 interior tesserae
 Molecular Surface Area = 182.656 Angst**2
 Applying Cartesian multipole field
    Component          Value
    ---------          -----
     (2,0,0)        1.00000E-11
     (0,2,0)        2.00000E-12
     (0,0,2)       -3.00000E-13
 Nucleus-field energy     =     0.0000000281 hartrees
 Requested basis set is 6-31+G(d)
 There are 71 shells and 197 basis functions
 A cutoff of  1.0D-14 yielded   2412 shell pairs
 There are     18992 function pairs
 Smallest overlap matrix eigenvalue = 2.42E-05
 Guess MOs from SCF MO coefficient file

 -----------------------------------------------------------------------
  General SCF calculation program by
  Eric Jon Sundstrom, Paul Horn, Yuezhi Mao, Dmitri Zuev, Alec White,
  David Stuck, Shaama M.S., Shane Yost, Joonho Lee, David Small,
  Daniel Levine, Susi Lehtola, Hugh Burton, Evgeny Epifanovsky,
  Bang C. Huynh
 -----------------------------------------------------------------------
 Exchange:     0.2000 Hartree-Fock + 0.0800 Slater + 0.7200 B88
 Correlation:  0.1900 VWN1RPA + 0.8100 LYP
 Using Euler-Maclaurin-Lebedev (99,590) quadrature formula
 using 16 threads for integral computing
 -------------------------------------------------------
 OpenMP Integral computing Module                
 Release: version 2.0, May 2017, Q-Chem Inc. Pleasanton 
 -------------------------------------------------------
 A restricted SCF calculation will be
 performed using Roothaan-Hall, DIIS
 SCF converges when DIIS error is below 1.0e-08
 ---------------------------------------
  Cycle       Energy         DIIS error
 ---------------------------------------
    1    -404.5773162261      9.27e-04  Roothaan Step
 ---------------------------------------
  Cycle       Energy         DIIS error
 ---------------------------------------
    1    -404.5888337507      1.34e-03  
    2    -404.5696516579      2.88e-03  
    3    -404.6010053818      2.27e-04  
    4    -404.6011886413      1.31e-04  
    5    -404.6012553144      3.80e-05  
    6    -404.6012613647      9.68e-06  
    7    -404.6012617249      3.38e-06  
    8    -404.6012617798      6.03e-07  
    9    -404.6012617813      2.63e-07  
   10    -404.6012617816      4.78e-08  
   11    -404.6012617816      1.26e-08  
   12    -404.6012617816      3.31e-09  Convergence criterion met
 ---------------------------------------
 SCF time:   CPU 883.26s  wall 60.00s 

************** Final PCM Free Energy Summary **************
 G_electrostatic  =      -0.02008367 hartree =     -12.60269383 kcal/mol
 G_cavitation     =       0.00000000 hartree =       0.00000000 kcal/mol
 G_dispersion     =       0.00000000 hartree =       0.00000000 kcal/mol
 G_repulsion      =       0.00000000 hartree =       0.00000000 kcal/mol
 --------------------------------------------------
 Non-electrostatic Free Energy =       0.00000000 hartree =       0.00000000 kcal/mol
 Total                         =      -0.02008367 hartree =     -12.60269383 kcal/mol
 --------------------------------------------------
 SCF Energy (H0 + V/2)                       =    -404.60126178 
 Solute Internal Energy (H0)                 =    -404.58117811 
 Total Free Energy (H0 + V/2 + non-elec)     =    -404.60126178 hartree
                                             = -253891.12374652 kcal/mol
***********************************************************

 SCF   energy in the final basis set =     -404.6012617816
 Total energy in the final basis set =     -404.6012617816
 
 --------------------------------------------------------------
 
                    Orbital Energies (a.u.)
 --------------------------------------------------------------
 
 Alpha MOs
 -- Occupied --
-19.1352 -14.3716 -10.2939 -10.2250 -10.1818 -10.1817 -10.1793 -10.1792
-10.1771  -1.0400  -0.9338  -0.8235  -0.7427  -0.7412  -0.6374  -0.6114
 -0.5919  -0.5617  -0.5259  -0.4841  -0.4602  -0.4425  -0.4378  -0.4197
 -0.4185  -0.3948  -0.3774  -0.3740  -0.3465  -0.3435  -0.3197  -0.3110
 -0.3093  -0.2714  -0.2607
 -- Virtual --
  0.0063   0.0099   0.0180   0.0239   0.0264   0.0417   0.0484   0.0494
  0.0596   0.0694   0.0708   0.0844   0.0871   0.0965   0.1012   0.1056
  0.1126   0.1176   0.1270   0.1343   0.1414   0.1521   0.1567   0.1620
  0.1705   0.1802   0.1824   0.1885   0.2009   0.2020   0.2104   0.2136
  0.2226   0.2269   0.2316   0.2457   0.2498   0.2567   0.2643   0.2721
  0.2772   0.2833   0.2866   0.2922   0.2971   0.3038   0.3142   0.3269
  0.3315   0.3337   0.3581   0.3739   0.3841   0.3873   0.4192   0.4209
  0.4403   0.4569   0.4825   0.6100   0.6406   0.6585   0.6669   0.6696
  0.6864   0.6998   0.7291   0.7330   0.7487   0.7513   0.7748   0.7792
  0.7999   0.8059   0.8226   0.8425   0.8638   0.9105   0.9546   0.9760
  0.9814   0.9936   1.0218   1.0279   1.0313   1.0585   1.0870   1.1059
  1.1213   1.1241   1.1288   1.1425   1.1661   1.1729   1.1856   1.1882
  1.2376   1.2484   1.2798   1.3195   1.3385   1.3661   1.3977   1.4153
  1.4667   1.4902   1.4998   1.5627   1.5836   1.6179   1.6968   1.7317
  1.7448   1.7551   1.7671   1.7996   1.8431   1.8700   1.9065   1.9117
  1.9149   1.9378   1.9727   2.0088   2.0127   2.0444   2.0608   2.0862
  2.1072   2.1267   2.2056   2.2131   2.2783   2.3073   2.3189   2.3417
  2.3968   2.4149   2.4187   2.4239   2.4506   2.5593   2.5827   2.6203
  2.6809   2.6895   2.7052   2.7584   2.7805   2.8378   2.8660   2.9908
  3.1850   4.0935   4.1927   4.2283   4.2975   4.3360   4.4137   4.6045
  4.6047   4.6709
 --------------------------------------------------------------
 
          Ground-State Mulliken Net Atomic Charges

     Atom                 Charge (a.u.)
  ----------------------------------------
      1 C                    -0.288257
      2 C                    -0.413269
      3 C                    -0.294446
      4 C                    -0.455493
      5 C                    -0.375860
      6 C                    -0.460811
      7 H                     0.211013
      8 H                     0.227342
      9 H                     0.215336
     10 H                     0.210336
     11 H                     0.207074
     12 H                     0.203900
     13 H                     0.199630
     14 H                     0.202725
     15 H                     0.207048
     16 H                     0.204071
     17 H                     0.214635
     18 N                    -0.379054
     19 H                     0.453658
     20 C                     0.345543
     21 H                     0.184822
     22 O                    -0.619943
  ----------------------------------------
  Sum of atomic charges =     0.000000

 -----------------------------------------------------------------
                    Cartesian Multipole Moments
 -----------------------------------------------------------------
    Charge (ESU x 10^10)
                 0.0000
    Dipole Moment (Debye)
         X       5.4339      Y       2.3312      Z       1.1173
       Tot       6.0175
    Quadrupole Moments (Debye-Ang)
        XX     -60.9808     XY      54.1775     YY      -9.7243
        XZ      98.1733     YZ      53.6376     ZZ     -10.1644
    Octopole Moments (Debye-Ang^2)
       XXX     -70.5121    XXY    -632.1853    XYY     513.1230
       YYY   -1075.7488    XXZ   -1218.6888    XYZ     980.0480
       YYZ    -176.4119    XZZ    1747.1128    YZZ     646.0823
       ZZZ   -1997.9087
    Hexadecapole Moments (Debye-Ang^3)
      XXXX    -513.8046   XXXY    -753.7031   XXYY   -6706.2815
      XYYY    4527.8587   YYYY  -28341.6966   XXXZ   -1675.2308
      XXYZ  -12684.9484   XYYZ    9163.9249   YYYZ  -22063.4553
      XXZZ  -24671.9425   XYZZ   17448.1212   YYZZ   -9305.5706
      XZZZ   30207.5203   YZZZ   -7556.6048   ZZZZ -100843.2929
 -----------------------------------------------------------------
 Calculating analytic gradient of the SCF energy
 Gradient of SCF Energy
            1           2           3           4           5           6
    1  -0.0024428  -0.0013990  -0.0108628   0.0003276  -0.0099070   0.0049631
    2  -0.0114702   0.0001485   0.0022534   0.0052545  -0.0031612  -0.0024020
    3   0.0035029  -0.0000130   0.0060335  -0.0045978  -0.0026150  -0.0035300
            7           8           9          10          11          12
    1   0.0012132   0.0027406   0.0043314  -0.0016761  -0.0012892   0.0035215
    2  -0.0016513   0.0013546   0.0050160   0.0017219  -0.0008117  -0.0005333
    3  -0.0013493   0.0032074  -0.0019372   0.0002708   0.0008847   0.0004326
           13          14          15          16          17          18
    1   0.0002427   0.0039792  -0.0020486   0.0017302   0.0061395  -0.0094798
    2  -0.0001415   0.0009144  -0.0001828   0.0028686   0.0014381  -0.0092222
    3   0.0025510  -0.0011675  -0.0004597   0.0008081  -0.0027077   0.0049545
           19          20          21          22
    1   0.0139293  -0.0139495   0.0063749   0.0035615
    2   0.0056065   0.0090508  -0.0019553  -0.0040958
    3  -0.0058864   0.0056018  -0.0031158  -0.0008679
 Max gradient component =       1.395E-02
 RMS gradient           =       4.851E-03
 Computing fast CPCM-SWIG gradient
 Updating gradient with PCM contributions...
 -- total gradient after adding PCM contribution --
---------------------------------------------------
  Atom         X              Y              Z     
---------------------------------------------------
   1       0.003392      -0.003922      -0.000849
   2      -0.001313      -0.000070      -0.003363
   3      -0.001377       0.001625       0.001920
   4       0.000166      -0.000202      -0.000708
   5      -0.003700      -0.000578       0.000984
   6       0.000729       0.001289       0.000101
   7       0.000566       0.000095      -0.000655
   8       0.000284       0.000279       0.001779
   9      -0.001521       0.002288       0.000288
  10      -0.000734       0.000159       0.000880
  11       0.000469      -0.000056       0.000274
  12       0.000655       0.000817      -0.000465
  13       0.000508      -0.000038      -0.000029
  14       0.000220      -0.000611      -0.000119
  15      -0.000275       0.000540      -0.000976
  16       0.000808      -0.000206      -0.000046
  17       0.000290      -0.001238      -0.000544
  18       0.001749      -0.003909       0.001172
  19      -0.000058      -0.000465      -0.000089
  20      -0.006814       0.011792       0.000589
  21       0.001778      -0.003739       0.000116
  22       0.004177      -0.003850      -0.000260
---------------------------------------------------
 Number of fixed atoms: 0
 Gradient time:  CPU 124.71 s  wall 11.66 s
 Geometry Optimization Parameters
   NAtoms,    NIC,     NZ,  NCons,   NDum,   NFix, NCnnct, MaxDiis
       22     172       0       0       0       0       0       0

 Cartesian Hessian Update
 Hessian updated using BFGS update


** GEOMETRY OPTIMIZATION IN DELOCALIZED INTERNAL COORDINATES **
   Searching for a Minimum

   Optimization Cycle:   4

                       Coordinates (Angstroms)
     ATOM                X               Y               Z
      1  C         0.4965089350   11.8650621345   20.4181549884
      2  C         0.4315849801   10.4406369078   19.8436500404
      3  C         1.5169661768    9.5410673740   20.4563525686
      4  C         1.4275535075    9.5136871486   21.9894370019
      5  C         1.4554268406   10.9274562298   22.5915431201
      6  C         0.4146956403   11.8596440449   21.9545540571
      7  H         1.4224528271    8.5273001281   20.0451428338
      8  H        -0.5482542310   10.0161091309   20.0852191254
      9  H         1.4183850363   12.3673367636   20.0909829198
     10  H        -0.3394050321   12.4531032197   20.0146543876
     11  H         0.5033343516    9.0001832897   22.2922452220
     12  H         2.2638404639    8.9262495648   22.3896809305
     13  H         1.3106280913   10.8786434563   23.6786138530
     14  H         2.4589261892   11.3511364816   22.4298934116
     15  H        -0.5976268094   11.5437497383   22.2474840049
     16  H         0.5497536829   12.8812016998   22.3320417169
     17  H         2.5074025880    9.9085151967   20.1464032918
     18  N         0.5384306350   10.4586509381   18.3849552549
     19  H         1.3948489333   10.8269553531   17.9828342148
     20  C        -0.4372853736   10.1239383464   17.5221066779
     21  H        -0.1210242642   10.2198144370   16.4702496267
     22  O        -1.5371431687    9.6395584165   17.8238007520
   Point Group: c1    Number of degrees of freedom:    60


   Energy is   -404.601261782

 Hessian updated using BFGS update

 60 Hessian modes will be used to form the next step
  Hessian Eigenvalues:
     0.004830    0.005383    0.006546    0.008377    0.012694    0.017714
     0.018549    0.018760    0.032669    0.035878    0.037094    0.041175
     0.045202    0.047319    0.049636    0.050935    0.053317    0.056697
     0.060061    0.066745    0.071719    0.080449    0.081337    0.083096
     0.083959    0.087311    0.090103    0.091357    0.123557    0.125712
     0.139397    0.157192    0.159269    0.162717    0.178402    0.211804
     0.219413    0.220253    0.269077    0.272577    0.275497    0.282270
     0.284850    0.287425    0.330918    0.334325    0.336969    0.338422
     0.344070    0.345375    0.345813    0.346518    0.347744    0.349687
     0.351631    0.356677    0.377296    0.466244    0.485799    0.927144

 Minimum search - taking simple RFO step
 Searching for Lamda that Minimizes Along All modes
 Value Taken    Lamda =  -0.00236932
 Calculated Step too Large.  Step scaled by  0.939195
 Step Taken.  Stepsize is  0.300000

                             Maximum     Tolerance    Cnvgd?
         Gradient           0.007580      0.000100      NO
         Displacement       0.157713      0.000100      NO
         Energy change     -0.001871      0.000000      NO


 New Cartesian Coordinates Obtained by Inverse Iteration

 Displacement from previous Coordinates is:  0.286177
 ----------------------------------------------------------------
             Standard Nuclear Orientation (Angstroms)
    I     Atom           X                Y                Z
 ----------------------------------------------------------------
    1      C       0.4778621590    11.8600839921    20.4219046535
    2      C       0.4291118639    10.4325316885    19.8480311813
    3      C       1.5171620308     9.5359465594    20.4625689658
    4      C       1.4280988712     9.5208213758    21.9969321386
    5      C       1.4832276555    10.9425195237    22.5764423518
    6      C       0.4048937000    11.8448038597    21.9587192726
    7      H       1.4200405082     8.5207342467    20.0578298707
    8      H      -0.5535049816     9.9983271952    20.0616456749
    9      H       1.4235300631    12.3259858316    20.1054796021
   10      H      -0.3424342686    12.4520941610    19.9978782588
   11      H       0.4901348639     9.0320519227    22.3017225517
   12      H       2.2443453574     8.9133775655    22.4097747312
   13      H       1.3501750290    10.9076150113    23.6662917180
   14      H       2.4777189337    11.3770373320    22.3907568867
   15      H      -0.5892365694    11.4954292019    22.2754286976
   16      H       0.5112692910    12.8701310371    22.3371862968
   17      H       2.5046077432     9.9164176477    20.1585408878
   18      N       0.5430065776    10.4565114287    18.3856405826
   19      H       1.4044411485    10.8201478571    17.9884265958
   20      C      -0.4200274274    10.1083960296    17.5170293845
   21      H      -0.1192950606    10.2452935160    16.4654466642
   22      O      -1.5551274884     9.6937430166    17.8063230331
 ----------------------------------------------------------------
 Nuclear Repulsion Energy =         466.28192873 hartrees
 There are       35 alpha and       35 beta electrons
 Discretize the solute cavity surface with Lebedev spheres
	Using 302 Lebedev grid points for each H atom
	Using 302 Lebedev grid points for other atoms
	Atomic van der Waals radii will be scaled by 1.20
 Remove points where switching function is < 1.0e-08
 Keep 2735 surface tesserae and discard 3909 interior tesserae
 Molecular Surface Area = 182.635 Angst**2
 Applying Cartesian multipole field
    Component          Value
    ---------          -----
     (2,0,0)        1.00000E-11
     (0,2,0)        2.00000E-12
     (0,0,2)       -3.00000E-13
 Nucleus-field energy     =     0.0000000282 hartrees
 Requested basis set is 6-31+G(d)
 There are 71 shells and 197 basis functions
 A cutoff of  1.0D-14 yielded   2410 shell pairs
 There are     18985 function pairs
 Smallest overlap matrix eigenvalue = 2.46E-05
 Guess MOs from SCF MO coefficient file

 -----------------------------------------------------------------------
  General SCF calculation program by
  Eric Jon Sundstrom, Paul Horn, Yuezhi Mao, Dmitri Zuev, Alec White,
  David Stuck, Shaama M.S., Shane Yost, Joonho Lee, David Small,
  Daniel Levine, Susi Lehtola, Hugh Burton, Evgeny Epifanovsky,
  Bang C. Huynh
 -----------------------------------------------------------------------
 Exchange:     0.2000 Hartree-Fock + 0.0800 Slater + 0.7200 B88
 Correlation:  0.1900 VWN1RPA + 0.8100 LYP
 Using Euler-Maclaurin-Lebedev (99,590) quadrature formula
 using 16 threads for integral computing
 -------------------------------------------------------
 OpenMP Integral computing Module                
 Release: version 2.0, May 2017, Q-Chem Inc. Pleasanton 
 -------------------------------------------------------
 A restricted SCF calculation will be
 performed using Roothaan-Hall, DIIS
 SCF converges when DIIS error is below 1.0e-08
 ---------------------------------------
  Cycle       Energy         DIIS error
 ---------------------------------------
    1    -404.5782137135      9.01e-04  Roothaan Step
 ---------------------------------------
  Cycle       Energy         DIIS error
 ---------------------------------------
    1    -404.5894522460      1.34e-03  
    2    -404.5700771128      2.90e-03  
    3    -404.6018516238      2.30e-04  
    4    -404.6020431571      1.32e-04  
    5    -404.6021103745      3.87e-05  
    6    -404.6021166155      1.00e-05  
    7    -404.6021169979      3.54e-06  
    8    -404.6021170583      6.33e-07  
    9    -404.6021170600      2.69e-07  
   10    -404.6021170604      4.79e-08  
   11    -404.6021170604      1.26e-08  
   12    -404.6021170604      3.43e-09  Convergence criterion met
 ---------------------------------------
 SCF time:   CPU 885.32s  wall 59.00s 

************** Final PCM Free Energy Summary **************
 G_electrostatic  =      -0.02036346 hartree =     -12.77826273 kcal/mol
 G_cavitation     =       0.00000000 hartree =       0.00000000 kcal/mol
 G_dispersion     =       0.00000000 hartree =       0.00000000 kcal/mol
 G_repulsion      =       0.00000000 hartree =       0.00000000 kcal/mol
 --------------------------------------------------
 Non-electrostatic Free Energy =       0.00000000 hartree =       0.00000000 kcal/mol
 Total                         =      -0.02036346 hartree =     -12.77826273 kcal/mol
 --------------------------------------------------
 SCF Energy (H0 + V/2)                       =    -404.60211706 
 Solute Internal Energy (H0)                 =    -404.58175360 
 Total Free Energy (H0 + V/2 + non-elec)     =    -404.60211706 hartree
                                             = -253891.66044204 kcal/mol
***********************************************************

 SCF   energy in the final basis set =     -404.6021170604
 Total energy in the final basis set =     -404.6021170604
 
 --------------------------------------------------------------
 
                    Orbital Energies (a.u.)
 --------------------------------------------------------------
 
 Alpha MOs
 -- Occupied --
-19.1348 -14.3721 -10.2940 -10.2252 -10.1822 -10.1822 -10.1795 -10.1794
-10.1774  -1.0380  -0.9335  -0.8241  -0.7428  -0.7408  -0.6368  -0.6111
 -0.5918  -0.5625  -0.5259  -0.4837  -0.4606  -0.4419  -0.4373  -0.4190
 -0.4181  -0.3947  -0.3781  -0.3737  -0.3469  -0.3431  -0.3210  -0.3115
 -0.3093  -0.2709  -0.2611
 -- Virtual --
  0.0085   0.0087   0.0179   0.0236   0.0263   0.0417   0.0481   0.0495
  0.0597   0.0700   0.0706   0.0841   0.0872   0.0958   0.1007   0.1055
  0.1128   0.1175   0.1261   0.1343   0.1411   0.1524   0.1568   0.1615
  0.1702   0.1796   0.1835   0.1895   0.1995   0.2027   0.2106   0.2142
  0.2217   0.2269   0.2310   0.2447   0.2489   0.2562   0.2643   0.2705
  0.2768   0.2822   0.2894   0.2908   0.2952   0.3029   0.3117   0.3263
  0.3302   0.3327   0.3596   0.3729   0.3851   0.3881   0.4175   0.4216
  0.4394   0.4594   0.4831   0.6101   0.6400   0.6569   0.6677   0.6681
  0.6851   0.6986   0.7309   0.7335   0.7458   0.7539   0.7761   0.7790
  0.8012   0.8060   0.8205   0.8497   0.8640   0.9133   0.9544   0.9763
  0.9803   0.9937   1.0224   1.0281   1.0300   1.0577   1.0906   1.1045
  1.1195   1.1246   1.1285   1.1431   1.1641   1.1726   1.1861   1.1924
  1.2389   1.2447   1.2805   1.3260   1.3426   1.3720   1.3907   1.4169
  1.4788   1.4872   1.4940   1.5672   1.5784   1.6163   1.6924   1.7329
  1.7371   1.7544   1.7684   1.8051   1.8513   1.8717   1.9031   1.9088
  1.9127   1.9393   1.9786   2.0097   2.0197   2.0450   2.0570   2.0856
  2.0951   2.1302   2.2038   2.2151   2.2775   2.3093   2.3173   2.3446
  2.3949   2.4119   2.4213   2.4264   2.4482   2.5599   2.5860   2.6206
  2.6743   2.6842   2.7057   2.7628   2.7813   2.8346   2.8628   2.9881
  3.1861   4.0942   4.1934   4.2283   4.2967   4.3339   4.4143   4.6043
  4.6099   4.6734
 --------------------------------------------------------------
 
          Ground-State Mulliken Net Atomic Charges

     Atom                 Charge (a.u.)
  ----------------------------------------
      1 C                    -0.276951
      2 C                    -0.423154
      3 C                    -0.284182
      4 C                    -0.454334
      5 C                    -0.381035
      6 C                    -0.461660
      7 H                     0.211129
      8 H                     0.226052
      9 H                     0.214642
     10 H                     0.210732
     11 H                     0.207616
     12 H                     0.203423
     13 H                     0.199379
     14 H                     0.203986
     15 H                     0.207898
     16 H                     0.203365
     17 H                     0.214719
     18 N                    -0.381566
     19 H                     0.453400
     20 C                     0.346133
     21 H                     0.185197
     22 O                    -0.624787
  ----------------------------------------
  Sum of atomic charges =     0.000000

 -----------------------------------------------------------------
                    Cartesian Multipole Moments
 -----------------------------------------------------------------
[...]

 Mode:                40                     41                     42
 Frequency:      1403.92                1493.83                1495.88
 Force Cnst:      1.7070                 1.4308                 1.4335
 Red. Mass:       1.4699                 1.0882                 1.0873
 IR Active:          YES                    YES                    YES
 IR Intens:        0.549                  0.095                  5.767
 Raman Active:       YES                    YES                    YES
               X      Y      Z        X      Y      Z        X      Y      Z
 C         -0.010  0.056  0.093    0.011  0.037 -0.031    0.001  0.012  0.007
 C         -0.021 -0.011 -0.098   -0.007  0.016 -0.000    0.001  0.000 -0.007
 C          0.037 -0.044  0.098   -0.033  0.016  0.029    0.010 -0.008  0.006
 C         -0.011  0.041  0.024   -0.008 -0.022  0.023   -0.007 -0.026  0.008
 C         -0.008 -0.004 -0.011    0.006 -0.014 -0.000   -0.052 -0.023 -0.045
 C          0.024 -0.034  0.026    0.022 -0.009 -0.023   -0.024  0.012  0.008
 H         -0.089  0.146 -0.373    0.370  0.034 -0.151   -0.052 -0.003  0.009
 H          0.079  0.048  0.465    0.032 -0.072  0.000    0.006  0.003  0.024
 H         -0.030 -0.140 -0.284    0.229 -0.270  0.210    0.024 -0.058 -0.020
 H          0.051 -0.167 -0.360   -0.290 -0.260  0.160   -0.033 -0.033  0.007
 H          0.014 -0.044 -0.039   -0.156  0.168 -0.160   -0.141  0.196 -0.075
 H          0.000 -0.127 -0.255    0.193  0.174 -0.111    0.171  0.145 -0.116
 H         -0.065 -0.026 -0.023    0.003 -0.001  0.000    0.551  0.245  0.044
 H         -0.023 -0.011 -0.061   -0.028  0.065  0.001    0.071  0.039  0.596
 H         -0.025  0.040 -0.046   -0.021  0.235  0.159    0.051 -0.234 -0.068
 H         -0.092  0.080 -0.252   -0.264 -0.024  0.110    0.219  0.027 -0.113
 H         -0.126  0.070 -0.301    0.044 -0.337 -0.194   -0.028  0.062 -0.020
 N          0.005  0.003 -0.032   -0.000 -0.000 -0.000    0.000  0.000 -0.001
 H          0.058  0.023  0.101    0.000 -0.000  0.001    0.003  0.001  0.007
 C          0.002  0.001  0.025    0.000 -0.000  0.000    0.000  0.000  0.001
 H         -0.005 -0.002  0.036   -0.000  0.001  0.000   -0.000 -0.000  0.001
 O          0.003  0.001 -0.005   -0.000  0.000 -0.000   -0.000 -0.000 -0.000
 TransDip   0.001 -0.003  0.024    0.003 -0.009  0.002    0.070  0.031  0.009

 Mode:                43                     44                     45
 Frequency:      1499.18                1499.86                1511.89
 Force Cnst:      1.4548                 1.4489                 1.4829
 Red. Mass:       1.0986                 1.0932                 1.1011
 IR Active:          YES                    YES                    YES
 IR Intens:        7.808                 10.669                  0.660
 Raman Active:       YES                    YES                    YES
               X      Y      Z        X      Y      Z        X      Y      Z
 C         -0.001 -0.039  0.022   -0.006 -0.035  0.013   -0.000 -0.035  0.016
 C         -0.002  0.004  0.003    0.000 -0.000  0.015   -0.004 -0.001  0.013
 C          0.017 -0.017 -0.015   -0.040  0.028  0.020   -0.027  0.024  0.015
 C         -0.004 -0.046  0.034   -0.002 -0.023  0.014   -0.000  0.036 -0.019
 C          0.002  0.003  0.003    0.015  0.006  0.018   -0.024 -0.011 -0.032
 C          0.029 -0.022 -0.027   -0.030  0.023  0.023    0.027 -0.024 -0.018
 H         -0.185 -0.035  0.091    0.404  0.034 -0.141    0.293  0.038 -0.118
 H          0.003 -0.012 -0.004   -0.010 -0.004 -0.020   -0.010 -0.006 -0.019
 H         -0.191  0.255 -0.145   -0.176  0.230 -0.128   -0.172  0.236 -0.119
 H          0.244  0.198 -0.135    0.218  0.208 -0.098    0.220  0.182 -0.117
 H         -0.253  0.312 -0.215   -0.129  0.151 -0.121    0.173 -0.226  0.132
 H          0.317  0.256 -0.184    0.158  0.150 -0.065   -0.224 -0.180  0.115
 H         -0.017 -0.043 -0.000   -0.155 -0.063 -0.003    0.281  0.125  0.008
 H         -0.010  0.011 -0.033   -0.022 -0.013 -0.168    0.041  0.023  0.314
 H         -0.052  0.315  0.158    0.045 -0.316 -0.174   -0.052  0.284  0.128
 H         -0.313 -0.052  0.152    0.333  0.033 -0.117   -0.286 -0.042  0.114
 H         -0.038  0.194  0.086    0.072 -0.391 -0.167    0.061 -0.297 -0.116
 N          0.000 -0.001 -0.000   -0.000  0.000 -0.001    0.005  0.002  0.008
 H         -0.001  0.000 -0.002   -0.005 -0.002 -0.013   -0.020 -0.008 -0.055
 C         -0.000 -0.000 -0.000   -0.001 -0.000 -0.000   -0.006 -0.002 -0.006
 H         -0.000  0.001 -0.000    0.001  0.000 -0.000    0.003  0.001 -0.006
 O          0.000  0.000 -0.000    0.001  0.000 -0.000    0.002  0.001  0.000
 TransDip  -0.026  0.084 -0.015    0.066  0.012 -0.080   -0.012 -0.003 -0.023

 Mode:                46                     47                     48
 Frequency:      1555.62                1666.37                2243.01
 Force Cnst:      2.5201                14.0025                 7.0960
 Red. Mass:       1.7675                 8.5588                 2.3939
 IR Active:          YES                    YES                    YES
 IR Intens:      270.120                931.136                 98.578
 Raman Active:       YES                    YES                    YES
               X      Y      Z        X      Y      Z        X      Y      Z
 C         -0.003 -0.004  0.009   -0.005 -0.007  0.019   -0.000 -0.000 -0.000
 C          0.057  0.023  0.057    0.015  0.006 -0.032    0.000  0.000  0.003
 C         -0.005  0.001  0.010   -0.009  0.001  0.019   -0.000  0.000 -0.000
 C         -0.001 -0.001 -0.008    0.006 -0.004 -0.006   -0.000  0.000 -0.000
 C         -0.001 -0.001  0.000   -0.001 -0.000  0.001   -0.000 -0.000 -0.000
 C         -0.001 -0.001 -0.008    0.000  0.007 -0.006    0.000 -0.000 -0.000
 H          0.028  0.004  0.002    0.013  0.018 -0.020    0.001 -0.000  0.000
 H         -0.008 -0.008 -0.334    0.051  0.021  0.052    0.000 -0.000  0.007
 H         -0.009 -0.022 -0.049   -0.019 -0.019 -0.027   -0.000 -0.000  0.000
 H          0.023  0.023  0.003    0.023 -0.002 -0.019    0.000  0.001  0.001
 H          0.016 -0.009  0.028    0.007  0.001  0.002   -0.000 -0.000 -0.000
 H         -0.021 -0.005  0.023   -0.014  0.007  0.043    0.000 -0.000 -0.000
 H          0.022  0.010  0.003    0.012  0.005  0.001   -0.000 -0.000 -0.000
 H          0.002  0.001  0.018   -0.001 -0.000  0.005    0.000  0.000 -0.000
 H          0.003  0.018  0.027    0.006  0.005  0.004   -0.000 -0.000 -0.000
 H         -0.019 -0.011  0.021   -0.005 -0.015  0.044    0.000  0.000 -0.000
 H         -0.024  0.009 -0.053   -0.026 -0.002 -0.025   -0.000 -0.000  0.000
 N         -0.100 -0.039 -0.173   -0.115 -0.044 -0.018    0.005  0.002  0.014
 H          0.287  0.113  0.837   -0.261 -0.096 -0.383   -0.013 -0.005 -0.056
 C          0.042  0.016  0.093    0.629  0.236 -0.009    0.059  0.021 -0.184
 H         -0.032 -0.011  0.133   -0.092 -0.038 -0.367   -0.262 -0.092  0.939
 O          0.008  0.003 -0.013   -0.350 -0.130  0.092   -0.014 -0.005  0.009
 TransDip   0.322  0.124  0.398    0.884  0.335  0.250    0.154  0.056 -0.273

 Mode:                49                     50                     51
 Frequency:      3014.22                3015.33                3018.78
 Force Cnst:      5.7232                 5.7220                 5.7197
 Red. Mass:       1.0691                 1.0681                 1.0653
 IR Active:          YES                    YES                    YES
 IR Intens:       34.574                 51.489                 20.152
 Raman Active:       YES                    YES                    YES
               X      Y      Z        X      Y      Z        X      Y      Z
 C         -0.001  0.005 -0.003    0.022  0.021 -0.014    0.014  0.005 -0.003
 C         -0.001 -0.001  0.000    0.001 -0.001  0.000   -0.003 -0.001 -0.000
 C          0.006 -0.004 -0.004   -0.035 -0.002  0.016    0.031  0.002 -0.014
 C          0.020  0.010 -0.006    0.026  0.024 -0.016   -0.016 -0.017  0.011
 C         -0.059 -0.026 -0.009   -0.003 -0.002 -0.000   -0.013 -0.006 -0.020
 C          0.024  0.008 -0.007   -0.033 -0.002  0.015   -0.045  0.005  0.023
 H          0.009  0.070  0.024   -0.025 -0.144 -0.054    0.020  0.125  0.046
 H          0.017  0.008 -0.004   -0.005 -0.000  0.001    0.036  0.016 -0.007
 H         -0.036 -0.017  0.009   -0.377 -0.182  0.121   -0.153 -0.077  0.049
 H          0.048 -0.034  0.021    0.107 -0.067  0.049   -0.020  0.018 -0.011
 H         -0.242 -0.123  0.078   -0.431 -0.213  0.138    0.285  0.142 -0.090
 H          0.001  0.002 -0.006    0.109 -0.069  0.048   -0.089  0.059 -0.041
 H         -0.043 -0.016  0.270   -0.004  0.004  0.012   -0.036 -0.012  0.289
 H          0.758  0.333 -0.168    0.036  0.018 -0.008    0.189  0.083 -0.047
 H         -0.295 -0.111  0.090    0.416  0.161 -0.127    0.573  0.222 -0.172
 H          0.004  0.012 -0.001   -0.022 -0.137 -0.050   -0.037 -0.279 -0.101
 H         -0.071 -0.029  0.020    0.452  0.177 -0.140   -0.395 -0.154  0.121
 N         -0.000 -0.000 -0.000   -0.000  0.000 -0.000    0.000  0.000  0.000
 H         -0.000 -0.000  0.001   -0.000  0.001 -0.000    0.000 -0.000  0.001
 C          0.000  0.000  0.000    0.000  0.000 -0.000   -0.001 -0.000  0.000
 H         -0.000  0.000 -0.000    0.000 -0.000 -0.000    0.000  0.000  0.000
 O         -0.000 -0.000 -0.000   -0.000  0.000  0.000    0.000  0.000 -0.000
 TransDip  -0.069 -0.044 -0.170   -0.108  0.203  0.000   -0.136 -0.046  0.003

 Mode:                52                     53                     54
 Frequency:      3019.38                3021.29                3062.12
 Force Cnst:      5.7019                 5.7149                 6.0479
 Red. Mass:       1.0615                 1.0626                 1.0947
 IR Active:          YES                    YES                    YES
 IR Intens:        9.491                144.337                121.837
 Raman Active:       YES                    YES                    YES
               X      Y      Z        X      Y      Z        X      Y      Z
 C          0.017  0.026 -0.017   -0.025 -0.036  0.024   -0.018  0.004 -0.002
 C         -0.000  0.000 -0.000    0.006  0.003 -0.000    0.006  0.003 -0.001
 C         -0.025  0.009  0.016   -0.033  0.004  0.017   -0.009 -0.017 -0.002
 C         -0.020 -0.037  0.024    0.002 -0.014  0.009   -0.011  0.013 -0.008
 C         -0.006 -0.003 -0.009   -0.012 -0.006 -0.010    0.029  0.012 -0.074
 C          0.013 -0.006 -0.009   -0.012  0.014  0.011    0.001 -0.018 -0.008
 H         -0.032 -0.240 -0.088   -0.029 -0.212 -0.077    0.016  0.165  0.063
 H          0.003 -0.000 -0.000   -0.084 -0.037  0.018   -0.079 -0.035  0.018
 H         -0.384 -0.184  0.121    0.542  0.261 -0.171    0.089  0.046 -0.030
 H          0.178 -0.120  0.083   -0.237  0.161 -0.111    0.122 -0.091  0.061
 H          0.506  0.246 -0.159    0.122  0.058 -0.037   -0.034 -0.015  0.009
 H         -0.268  0.187 -0.123   -0.151  0.109 -0.071    0.172 -0.129  0.084
 H         -0.015 -0.007  0.123   -0.020 -0.007  0.162   -0.086 -0.028  0.833
 H          0.086  0.040 -0.021    0.169  0.074 -0.039   -0.263 -0.116  0.045
 H         -0.174 -0.070  0.053    0.169  0.069 -0.050   -0.030 -0.013  0.007
 H          0.017  0.137  0.048   -0.025 -0.233 -0.084    0.021  0.229  0.086
 H          0.324  0.131 -0.099    0.429  0.169 -0.131    0.096  0.034 -0.030
 N          0.000  0.000  0.000   -0.000 -0.000 -0.000   -0.000 -0.000 -0.000
 H         -0.000  0.001 -0.000    0.000 -0.000 -0.004    0.001  0.000 -0.001
 C         -0.000 -0.000 -0.000    0.001  0.000 -0.000    0.000  0.000  0.000
 H          0.000 -0.000  0.000   -0.000 -0.000 -0.000   -0.000 -0.000 -0.000
 O          0.000  0.000 -0.000   -0.000 -0.000  0.000   -0.000 -0.000  0.000
 TransDip  -0.077 -0.056  0.028   -0.296 -0.138  0.203   -0.020 -0.019 -0.352

 Mode:                55                     56                     57
 Frequency:      3063.39                3066.98                3068.40
 Force Cnst:      6.0637                 6.0775                 6.0873
 Red. Mass:       1.0967                 1.0966                 1.0974
 IR Active:          YES                    YES                    YES
 IR Intens:      132.815                 76.502                103.832
 Raman Active:       YES                    YES                    YES
               X      Y      Z        X      Y      Z        X      Y      Z
 C          0.009 -0.010  0.007    0.014 -0.013  0.008   -0.045  0.016 -0.011
 C         -0.000  0.001  0.000   -0.004 -0.002  0.002    0.023  0.010 -0.006
 C          0.001 -0.013 -0.006    0.000  0.020  0.008   -0.022 -0.051 -0.012
 C          0.056 -0.020  0.014   -0.053  0.018 -0.012   -0.021 -0.003  0.002
 C         -0.001 -0.000  0.001   -0.021 -0.009  0.012   -0.016 -0.007  0.027
 C         -0.024 -0.056 -0.013   -0.022 -0.051 -0.011   -0.014 -0.012  0.002
 H          0.018  0.168  0.066   -0.025 -0.245 -0.096    0.055  0.535  0.210
 H          0.000  0.001 -0.000    0.055  0.024 -0.012   -0.294 -0.129  0.069
 H          0.024  0.010 -0.007    0.019  0.007 -0.005    0.170  0.091 -0.061
 H         -0.140  0.102 -0.072   -0.184  0.135 -0.094    0.371 -0.272  0.191
 H         -0.207 -0.112  0.073    0.208  0.114 -0.072    0.170  0.089 -0.057
 H         -0.464  0.348 -0.231    0.433 -0.326  0.215    0.081 -0.061  0.040
 H          0.002 -0.000 -0.014    0.010  0.003 -0.105    0.030  0.010 -0.286
 H          0.009  0.002 -0.002    0.229  0.101 -0.046    0.161  0.071 -0.029
 H          0.232  0.080 -0.075    0.220  0.075 -0.070    0.161  0.058 -0.050
 H          0.053  0.593  0.225    0.046  0.528  0.198    0.007  0.081  0.031
 H         -0.022 -0.011  0.007    0.013  0.008 -0.004    0.213  0.074 -0.071
 N          0.000 -0.000 -0.000   -0.000 -0.000 -0.000   -0.000  0.000  0.000
 H          0.000 -0.000 -0.000   -0.001 -0.000 -0.000    0.004  0.001 -0.002
 C          0.000 -0.000  0.000    0.000  0.000 -0.000    0.000  0.000  0.000
 H         -0.000  0.000  0.000   -0.000 -0.000 -0.000   -0.000  0.000 -0.000
 O         -0.000  0.000 -0.000   -0.000 -0.000 -0.000   -0.000 -0.000  0.000
 TransDip   0.144 -0.340  0.009   -0.259 -0.106  0.003   -0.294 -0.142 -0.005

 Mode:                58                     59                     60
 Frequency:      3070.29                3096.59                3578.67
 Force Cnst:      6.1137                 6.1468                 8.1378
 Red. Mass:       1.1008                 1.0880                 1.0785
 IR Active:          YES                    YES                    YES
 IR Intens:       46.611                 66.027                 70.585
 Raman Active:       YES                    YES                    YES
               X      Y      Z        X      Y      Z        X      Y      Z
 C          0.062 -0.018  0.013   -0.023  0.003 -0.002    0.000  0.000 -0.000
 C         -0.001 -0.001  0.000   -0.070 -0.031  0.016   -0.001 -0.000 -0.001
 C         -0.025 -0.052 -0.011   -0.013 -0.019 -0.002    0.000  0.000 -0.000
 C         -0.016 -0.000 -0.000   -0.004 -0.002  0.001    0.000  0.000 -0.000
 C          0.000  0.001 -0.001   -0.001 -0.000  0.002    0.000  0.000 -0.000
 C          0.012  0.012 -0.000   -0.004 -0.002  0.001    0.000  0.000 -0.000
 H          0.054  0.535  0.210    0.017  0.176  0.067    0.000 -0.000  0.000
 H          0.022  0.008 -0.005    0.835  0.366 -0.185    0.009  0.004 -0.006
 H         -0.261 -0.137  0.092    0.134  0.072 -0.043   -0.000  0.001  0.001
 H         -0.485  0.356 -0.250    0.142 -0.105  0.071   -0.000  0.000 -0.000
 H          0.112  0.058 -0.039    0.041  0.021 -0.016   -0.000 -0.000 -0.000
 H          0.079 -0.060  0.040    0.005 -0.003  0.002   -0.000  0.000  0.000
 H         -0.001 -0.002  0.012    0.002  0.001 -0.017   -0.000 -0.000  0.000
 H         -0.007 -0.001  0.001    0.010  0.004 -0.001   -0.000 -0.000  0.000
 H         -0.134 -0.049  0.043    0.043  0.016 -0.016   -0.000 -0.000 -0.000
 H         -0.009 -0.103 -0.039    0.001  0.006  0.001   -0.000 -0.000 -0.000
 H          0.247  0.088 -0.081    0.142  0.048 -0.042    0.000 -0.001  0.001
 N         -0.000  0.000 -0.000    0.001  0.000  0.001   -0.064 -0.024  0.027
 H         -0.000  0.000  0.000   -0.010 -0.004 -0.001    0.860  0.326 -0.385
 C          0.000 -0.000 -0.000   -0.002 -0.001 -0.000    0.000  0.000  0.002
 H         -0.000  0.000  0.000    0.000  0.000  0.001   -0.000 -0.000 -0.003
 O         -0.000  0.000 -0.000    0.000  0.000 -0.001    0.001  0.000 -0.000
 TransDip   0.105 -0.192  0.004   -0.227 -0.103  0.074    0.251  0.094 -0.027

 STANDARD THERMODYNAMIC QUANTITIES AT   298.18 K  AND     1.00 ATM

   This Molecule has  1 Imaginary Frequencies
   Zero point vibrational energy:      121.835 kcal/mol

   Atom    1 Element C  Has Mass   12.00000
   Atom    2 Element C  Has Mass   12.00000
   Atom    3 Element C  Has Mass   12.00000
   Atom    4 Element C  Has Mass   12.00000
   Atom    5 Element C  Has Mass   12.00000
   Atom    6 Element C  Has Mass   12.00000
   Atom    7 Element H  Has Mass    1.00783
   Atom    8 Element H  Has Mass    1.00783
   Atom    9 Element H  Has Mass    1.00783
   Atom   10 Element H  Has Mass    1.00783
   Atom   11 Element H  Has Mass    1.00783
   Atom   12 Element H  Has Mass    1.00783
   Atom   13 Element H  Has Mass    1.00783
   Atom   14 Element H  Has Mass    1.00783
   Atom   15 Element H  Has Mass    1.00783
   Atom   16 Element H  Has Mass    1.00783
   Atom   17 Element H  Has Mass    1.00783
   Atom   18 Element N  Has Mass   14.00307
   Atom   19 Element H  Has Mass    1.00783
   Atom   20 Element C  Has Mass   12.00000
   Atom   21 Element H  Has Mass    2.01410
   Atom   22 Element O  Has Mass   15.99491
   Molecular Mass:   128.106042 amu
   Principal axes and moments of inertia in amu*Bohr^2:
                             1           2           3
    Eigenvalues --      537.65203  2029.94435  2230.88318
          X               0.39028    -0.42603     0.81620
          Y               0.16169     0.90444     0.39477
          Z               0.90639     0.02210    -0.42187
   Rotational Symmetry Number is   1
   The Molecule is an Asymmetric Top
   Translational Enthalpy:        0.889 kcal/mol
   Rotational Enthalpy:           0.889 kcal/mol
   Vibrational Enthalpy:        125.116 kcal/mol
   gas constant (RT):             0.593 kcal/mol
   Translational Entropy:        40.457  cal/mol.K
   Rotational Entropy:           29.278  cal/mol.K
   Vibrational Entropy:          18.120  cal/mol.K

   Total Enthalpy:              127.487 kcal/mol
   Total Entropy:                87.854  cal/mol.K
Archival summary:
1\1\node027\FREQ\ProcedureUnspecified\6-31+G*\11713\ymao90\ThuApr815:35:402021ThuApr815:35:402021\0\\#,FREQ,ProcedureUnspecified,6-31+G*,\\0,1\N\H,1,1.01547\C,1,1.34432,2,116.734\H,3,1.10218,1,112.695,2,0.520313,0\O,3,1.24083,1,125.987,2,-179.562,0\C,1,1.46686,2,117.532,3,-179.332,0\H,6,1.0947,1,106.019,2,-177.165,0\C,6,1.5389,1,110.534,2,-59.1124,0\H,8,1.09746,6,109.445,1,-59.0207,0\H,8,1.10066,6,108.738,1,57.6537,0\C,8,1.53784,6,111.35,1,178.392,0\H,11,1.0977,8,109.6,6,-177.616,0\H,11,1.10043,8,109.161,6,65.8947,0\C,11,1.53688,8,111.637,6,-54.9622,0\H,14,1.09799,11,110.122,8,177.214,0\H,14,1.10062,11,109.24,8,-65.8115,0\C,14,1.53689,11,111.216,8,54.8345,0\H,17,1.09771,14,110.417,11,-177.073,0\H,17,1.10047,14,109.229,11,65.9284,0\C,17,1.53779,14,111.589,11,-54.8746,0\H,20,1.09745,17,110.624,14,176.953,0\H,20,1.10054,17,109.549,14,-65.205,0\\\@

 Total job time:  878.47s(wall), 12318.38s(cpu) 
 Thu Apr  8 15:35:40 2021

        *************************************************************
        *                                                           *
        *  Thank you very much for using Q-Chem.  Have a nice day.  *
        *                                                           *
        *************************************************************


