                  Welcome to Q-Chem
     A Quantum Leap Into The Future Of Chemistry


 Q-Chem 5.2 (devel), Q-Chem, Inc., Pleasanton, CA (2019)

 Yihan Shao,  Zhengting Gan,  E. Epifanovsky,  A. T. B. Gilbert,  M. Wormit,  
 J. Kussmann,  A. W. Lange,  A. Behn,  Jia Deng,  Xintian Feng,  D. Ghosh,  
 M. Goldey,  P. R. Horn,  L. D. Jacobson,  I. Kaliman,  T. Kus,  A. Landau,  
 Jie Liu,  E. I. Proynov,  R. M. Richard,  R. P. Steele,  E. J. Sundstrom,  
 H. L. Woodcock III,  P. M. Zimmerman,  D. Zuev,  B. Alam,  B. Albrecht,  
 E. Alguire,  S. A. Baeppler,  D. Barton,  Z. Benda,  Y. A. Bernard,  
 E. J. Berquist,  K. B. Bravaya,  H. Burton,  K. Carter-Fenk,  D. Casanova,  
 Chun-Min Chang,  Yunqing Chen,  A. Chien,  K. D. Closser,  M. P. Coons,  
 S. Coriani,  S. Dasgupta,  A. L. Dempwolff,  M. Diedenhofen,  Hainam Do,  
 R. G. Edgar,  Po-Tung Fang,  S. Faraji,  S. Fatehi,  Qingguo Feng,  
 J. Fosso-Tande,  J. Gayvert,  Qinghui Ge,  A. Ghysels,  G. Gidofalvi,  
 J. Gomes,  J. Gonthier,  A. Gunina,  D. Hait,  M. W. D. Hanson-Heine,  
 P. H. P. Harbach,  A. W. Hauser,  M. F. Herbst,  J. E. Herr,  
 E. G. Hohenstein,  Z. C. Holden,  Kerwin Hui,  B. C. Huynh,  T.-C. Jagau,  
 Hyunjun Ji,  B. Kaduk,  K. Khistyaev,  Jaehoon Kim,  P. Klunzinger,  K. Koh,  
 D. Kosenkov,  L. Koulias,  T. Kowalczyk,  C. M. Krauter,  A. Kunitsa,  
 Ka Un Lao,  A. Laurent,  K. V. Lawler,  Joonho Lee,  D. Lefrancois,  
 S. Lehtola,  D. S. Levine,  Yi-Pei Li,  You-Sheng Lin,  Fenglai Liu,  
 Kuan-Yu Liu,  E. Livshits,  M. Loipersberger,  A. Luenser,  P. Manohar,  
 E. Mansoor,  S. F. Manzer,  Shan-Ping Mao,  Yuezhi Mao,  N. Mardirossian,  
 A. V. Marenich,  T. Markovich,  L. A. Martinez-Martinez,  S. A. Maurer,  
 N. J. Mayhall,  S. C. McKenzie,  J.-M. Mewes,  P. Morgante,  A. F. Morrison,  
 J. W. Mullinax,  K. Nanda,  T. S. Nguyen-Beck,  R. Olivares-Amaya,  
 J. A. Parkhill,  S. K. Paul,  F. Pavosevic,  Zheng Pei,  T. M. Perrine,  
 F. Plasser,  P. Pokhilko,  S. Prager,  A. Prociuk,  E. Ramos,  B. Rana,  
 D. R. Rehn,  F. Rob,  M. Scheurer,  M. Schneider,  N. Sergueev,  
 S. M. Sharada,  S. Sharma,  D. W. Small,  T. Stauch,  C. J. Stein,  
 T. Stein,  Yu-Chuan Su,  S. P. Veccham,  Zhen Tao,  A. J. W. Thom,  
 A. Tkatchenko,  T. Tsuchimochi,  N. M. Tubman,  L. Vogt,  M. L. Vidal,  
 O. Vydrov,  M. A. Watson,  J. Wenzel,  M. de Wergifosse,  T. A. Wesolowski,  
 A. White,  J. Witte,  A. Yamada,  Jun Yang,  K. Yao,  S. Yeganeh,  
 S. R. Yost,  Zhi-Qiang You,  A. Zech,  Igor Ying Zhang,  Xing Zhang,  
 Yan Zhao,  Ying Zhu,  B. R. Brooks,  G. K. L. Chan,  C. J. Cramer,  
 M. S. Gordon,  W. J. Hehre,  A. Klamt,  M. W. Schmidt,  C. D. Sherrill,  
 D. G. Truhlar,  A. Aspuru-Guzik,  R. Baer,  A. T. Bell,  N. A. Besley,  
 Jeng-Da Chai,  A. E. DePrince, III,  R. A. DiStasio Jr.,  A. Dreuw,  
 B. D. Dunietz,  T. R. Furlani,  Chao-Ping Hsu,  Yousung Jung,  Jing Kong,  
 D. S. Lambrecht,  WanZhen Liang,  C. Ochsenfeld,  V. A. Rassolov,  
 L. V. Slipchenko,  J. E. Subotnik,  T. Van Voorhis,  J. M. Herbert,  
 A. I. Krylov,  P. M. W. Gill,  M. Head-Gordon

 Contributors to earlier versions of Q-Chem not listed above: 
 R. D. Adamson,  B. Austin,  J. Baker,  G. J. O. Beran,  K. Brandhorst,  
 S. T. Brown,  E. F. C. Byrd,  A. K. Chakraborty,  C.-L. Cheng,  
 Siu Hung Chien,  D. M. Chipman,  D. L. Crittenden,  H. Dachsel,  
 R. J. Doerksen,  A. D. Dutoi,  L. Fusti-Molnar,  W. A. Goddard III,  
 A. Golubeva-Zadorozhnaya,  S. R. Gwaltney,  G. Hawkins,  A. Heyden,  
 S. Hirata,  G. Kedziora,  F. J. Keil,  C. Kelley,  Jihan Kim,  R. A. King,  
 R. Z. Khaliullin,  P. P. Korambath,  W. Kurlancheek,  A. M. Lee,  M. S. Lee,  
 S. V. Levchenko,  Ching Yeh Lin,  D. Liotard,  R. C. Lochan,  I. Lotan,  
 P. E. Maslen,  N. Nair,  D. P. O'Neill,  D. Neuhauser,  E. Neuscamman,  
 C. M. Oana,  R. Olson,  B. Peters,  R. Peverati,  P. A. Pieniazek,  
 Y. M. Rhee,  J. Ritchie,  M. A. Rohrdanz,  E. Rosta,  N. J. Russ,  
 H. F. Schaefer III,  N. E. Schultz,  N. Shenvi,  A. C. Simmonett,  A. Sodt,  
 D. Stuck,  K. S. Thanthiriwatte,  V. Vanovschi,  Tao Wang,  A. Warshel,  
 C. F. Williams,  Q. Wu,  X. Xu,  W. Zhang

 Please cite Q-Chem as follows:
 Y. Shao et al., Mol. Phys. 113, 184-215 (2015)
 DOI: 10.1080/00268976.2014.952696

 Q-Chem 5.2.2 for Intel X86 EM64T Linux

 Parts of Q-Chem use Armadillo 9.800.1 (Horizon Scraper).
 http://arma.sourceforge.net/

 Q-Chem begins on Thu Apr  8 15:08:49 2021  

Host: node029
0

     Scratch files written to /home/ymao90/scratch/probe_b3lyp_hexane20210408150848//
Symmetry turned off for PCM/SM12/SMD calculation

Checking the input file for inconsistencies... 	...done.

--------------------------------------------------------------
User input:
--------------------------------------------------------------
$molecule
0 1
C    0.58000    11.83000   20.41000  
C    0.42000    10.41000   19.83000  
C    1.53000    9.53000    20.44000  
C    1.44000    9.53000    21.98000  
C    1.37000    10.92000   22.65000  
C    0.42000    11.90000   21.94000  
H    1.49000    8.50000    20.05000  
H    -0.52000   10.00000   20.20000  
H    1.40000    12.47000   20.08000  
H    -0.28000   12.43000   20.08000  
H    0.54000    9.00000    22.28000  
H    2.32000    8.99000    22.34000  
H    1.27000    10.83000   23.73000  
H    2.37000    11.32000   22.50000  
H    -0.63000   11.62000   22.11000  
H    0.56000    12.91000   22.33000  
H    2.51000    9.84000    20.07000  
N    0.54000    10.41000   18.38000  
H    1.39000    10.78000   17.99000  
C    -0.47000   10.09000   17.50000  
H    -0.16000   10.30000   16.46000  
O    -1.56000   9.66000    17.84000  
$end

$rem
JOBTYPE  OPT
METHOD  B3LYP
BASIS  6-31+G(D)
SYMMETRY  FALSE
SYM_IGNORE  FALSE
MEM_TOTAL  8000
MEM_STATIC  2000
MAX_SUB_FILE_NUM  16000
BASIS_LIN_DEP_THRESH  6
THRESH  14
SCF_CONVERGENCE  8
GEN_SCFMAN  TRUE
SCF_GUESS  SAD
FD_MAT_VEC_PROD  FALSE
XC_GRID  000099000590
NL_GRID  1
MAX_SCF_CYCLES  200
GEOM_OPT_TOL_GRADIENT  100
GEOM_OPT_TOL_DISPLACEMENT  100
GEOM_OPT_TOL_ENERGY  10
SOLVENT_METHOD       PCM
$end

$PCM
THEORY                     CPCM
METHOD                     SWIG
SOLVER                     INVERSION
HPOINTS                    302
HEAVYPOINTS                302
$END

$SOLVENT
DIELECTRIC                 1.88
$END

--------------------------------------------------------------
 ----------------------------------------------------------------
             Standard Nuclear Orientation (Angstroms)
    I     Atom           X                Y                Z
 ----------------------------------------------------------------
    1      C       0.5800000000    11.8300000000    20.4100000000
    2      C       0.4200000000    10.4100000000    19.8300000000
    3      C       1.5300000000     9.5300000000    20.4400000000
    4      C       1.4400000000     9.5300000000    21.9800000000
    5      C       1.3700000000    10.9200000000    22.6500000000
    6      C       0.4200000000    11.9000000000    21.9400000000
    7      H       1.4900000000     8.5000000000    20.0500000000
    8      H      -0.5200000000    10.0000000000    20.2000000000
    9      H       1.4000000000    12.4700000000    20.0800000000
   10      H      -0.2800000000    12.4300000000    20.0800000000
   11      H       0.5400000000     9.0000000000    22.2800000000
   12      H       2.3200000000     8.9900000000    22.3400000000
   13      H       1.2700000000    10.8300000000    23.7300000000
   14      H       2.3700000000    11.3200000000    22.5000000000
   15      H      -0.6300000000    11.6200000000    22.1100000000
   16      H       0.5600000000    12.9100000000    22.3300000000
   17      H       2.5100000000     9.8400000000    20.0700000000
   18      N       0.5400000000    10.4100000000    18.3800000000
   19      H       1.3900000000    10.7800000000    17.9900000000
   20      C      -0.4700000000    10.0900000000    17.5000000000
   21      H      -0.1600000000    10.3000000000    16.4600000000
   22      O      -1.5600000000     9.6600000000    17.8400000000
 ----------------------------------------------------------------
 Nuclear Repulsion Energy =         465.59151226 hartrees
 There are       35 alpha and       35 beta electrons
 Requested basis set is 6-31+G(d)
 There are 71 shells and 197 basis functions

 Total QAlloc Memory Limit   8000 MB
 Mega-Array Size      1956 MB
 MEM_STATIC part      2000 MB
 Discretize the solute cavity surface with Lebedev spheres
	Using 302 Lebedev grid points for each H atom
	Using 302 Lebedev grid points for other atoms
	Atomic van der Waals radii will be scaled by 1.20
 Remove points where switching function is < 1.0e-08
 Keep 2715 surface tesserae and discard 3929 interior tesserae
 Molecular Surface Area = 182.762 Angst**2
 A cutoff of  1.0D-14 yielded   2410 shell pairs
 There are     18990 function pairs
 Smallest overlap matrix eigenvalue = 2.31E-05

 Scale SEOQF with 1.000000e-01/1.000000e-02/1.000000e-03

 Standard Electronic Orientation quadrupole field applied
 Nucleus-field energy     =     0.0000000281 hartrees
 Guess from superposition of atomic densities
 Warning:  Energy on first SCF cycle will be non-variational
 SAD guess density has 70.000000 electrons

 -----------------------------------------------------------------------
  General SCF calculation program by
  Eric Jon Sundstrom, Paul Horn, Yuezhi Mao, Dmitri Zuev, Alec White,
  David Stuck, Shaama M.S., Shane Yost, Joonho Lee, David Small,
  Daniel Levine, Susi Lehtola, Hugh Burton, Evgeny Epifanovsky,
  Bang C. Huynh
 -----------------------------------------------------------------------
 Exchange:     0.2000 Hartree-Fock + 0.0800 Slater + 0.7200 B88
 Correlation:  0.1900 VWN1RPA + 0.8100 LYP
 Using Euler-Maclaurin-Lebedev (99,590) quadrature formula
 using 16 threads for integral computing
 -------------------------------------------------------
 OpenMP Integral computing Module                
 Release: version 2.0, May 2017, Q-Chem Inc. Pleasanton 
 -------------------------------------------------------
 A restricted SCF calculation will be
 performed using DIIS
 SCF converges when DIIS error is below 1.0e-08
 ---------------------------------------
  Cycle       Energy         DIIS error
 ---------------------------------------
    1    -406.2393373780      5.09e-02  
    2    -404.3761656672      6.51e-03  
    3    -404.0994575350      1.06e-02  
    4    -404.5527661489      2.29e-03  
    5    -404.5728414270      5.92e-04  
    6    -404.5742052196      1.76e-04  
    7    -404.5743269034      6.31e-05  
    8    -404.5743438019      1.12e-05  
    9    -404.5743443208      3.13e-06  
   10    -404.5743443615      6.68e-07  
   11    -404.5743443633      2.44e-07  
   12    -404.5743443636      3.56e-08  
   13    -404.5743443636      7.94e-09  Convergence criterion met
 ---------------------------------------
 SCF time:   CPU 884.57s  wall 66.00s 

************** Final PCM Free Energy Summary **************
 G_electrostatic  =      -0.00671118 hartree =      -4.21132682 kcal/mol
 G_cavitation     =       0.00000000 hartree =       0.00000000 kcal/mol
 G_dispersion     =       0.00000000 hartree =       0.00000000 kcal/mol
 G_repulsion      =       0.00000000 hartree =       0.00000000 kcal/mol
 --------------------------------------------------
 Non-electrostatic Free Energy =       0.00000000 hartree =       0.00000000 kcal/mol
 Total                         =      -0.00671118 hartree =      -4.21132682 kcal/mol
 --------------------------------------------------
 SCF Energy (H0 + V/2)                       =    -404.57434436 
 Solute Internal Energy (H0)                 =    -404.56763319 
 Total Free Energy (H0 + V/2 + non-elec)     =    -404.57434436 hartree
                                             = -253874.23281176 kcal/mol
***********************************************************

 SCF   energy in the final basis set =     -404.5743443636
 Total energy in the final basis set =     -404.5743443636
 
 --------------------------------------------------------------
 
                    Orbital Energies (a.u.)
 --------------------------------------------------------------
 
 Alpha MOs
 -- Occupied --
-19.1342 -14.3712 -10.2955 -10.2327 -10.1868 -10.1864 -10.1863 -10.1836
-10.1804  -1.0448  -0.9325  -0.8271  -0.7485  -0.7455  -0.6433  -0.6168
 -0.5977  -0.5661  -0.5331  -0.4870  -0.4637  -0.4498  -0.4442  -0.4227
 -0.4193  -0.4033  -0.3807  -0.3722  -0.3544  -0.3519  -0.3261  -0.3114
 -0.3090  -0.2701  -0.2575
 -- Virtual --
  0.0019   0.0078   0.0105   0.0214   0.0244   0.0361   0.0452   0.0503
  0.0533   0.0642   0.0663   0.0809   0.0843   0.0909   0.0988   0.1004
  0.1067   0.1136   0.1257   0.1315   0.1366   0.1468   0.1503   0.1624
  0.1691   0.1755   0.1783   0.1819   0.1981   0.1988   0.2058   0.2094
  0.2176   0.2213   0.2344   0.2413   0.2473   0.2506   0.2608   0.2673
  0.2720   0.2806   0.2849   0.2890   0.3001   0.3073   0.3122   0.3257
  0.3301   0.3343   0.3476   0.3689   0.3740   0.3809   0.4127   0.4221
  0.4352   0.4505   0.4885   0.6073   0.6397   0.6553   0.6588   0.6686
  0.6870   0.7004   0.7202   0.7278   0.7459   0.7498   0.7656   0.7761
  0.7929   0.8021   0.8245   0.8336   0.8622   0.8947   0.9457   0.9656
  0.9806   0.9918   1.0189   1.0239   1.0367   1.0562   1.0703   1.1036
  1.1140   1.1214   1.1281   1.1393   1.1417   1.1599   1.1694   1.1853
  1.2422   1.2501   1.2927   1.3215   1.3258   1.3703   1.4038   1.4139
  1.4671   1.4851   1.4939   1.5580   1.5799   1.6188   1.6685   1.7024
  1.7319   1.7599   1.7737   1.7783   1.8287   1.8675   1.8871   1.8968
  1.9227   1.9527   1.9689   1.9994   2.0023   2.0343   2.0657   2.0802
  2.0974   2.1347   2.1828   2.2058   2.2795   2.2996   2.3130   2.3371
  2.3818   2.3921   2.4331   2.4416   2.4568   2.5577   2.5683   2.6132
  2.6750   2.6903   2.7005   2.7468   2.7729   2.8288   2.8708   3.0123
  3.1856   4.0795   4.1866   4.2299   4.2912   4.3405   4.4136   4.5841
  4.6043   4.6538
 --------------------------------------------------------------
 
          Ground-State Mulliken Net Atomic Charges

     Atom                 Charge (a.u.)
  ----------------------------------------
      1 C                    -0.323905
      2 C                    -0.480282
      3 C                    -0.279425
      4 C                    -0.435641
      5 C                    -0.359549
      6 C                    -0.438708
      7 H                     0.211916
      8 H                     0.243262
      9 H                     0.212893
     10 H                     0.213731
     11 H                     0.206159
     12 H                     0.199471
     13 H                     0.200407
     14 H                     0.196151
     15 H                     0.203100
     16 H                     0.203171
     17 H                     0.203123
     18 N                    -0.375507
     19 H                     0.422086
     20 C                     0.338200
     21 H                     0.163280
     22 O                    -0.523934
  ----------------------------------------
  Sum of atomic charges =     0.000000

 -----------------------------------------------------------------
                    Cartesian Multipole Moments
 -----------------------------------------------------------------
    Charge (ESU x 10^10)
                 0.0000
    Dipole Moment (Debye)
         X       4.2257      Y       1.8758      Z       0.7811
       Tot       4.6888
    Quadrupole Moments (Debye-Ang)
        XX     -60.8676     XY      41.9813     YY     -18.7826
        XZ      75.8239     YZ      42.1357     ZZ     -23.2424
    Octopole Moments (Debye-Ang^2)
       XXX     -75.2919    XXY    -633.1174    XYY     389.2376
       YYY   -1208.7857    XXZ   -1218.8721    XYZ     753.8398
       YYZ    -371.7946    XZZ    1331.4105    YZZ     370.7066
       ZZZ   -2380.1816
    Hexadecapole Moments (Debye-Ang^3)
      XXXX    -514.1479   XXXY    -804.4175   XXYY   -6737.2494
      XYYY    3265.2372   YYYY  -30044.1601   XXXZ   -1764.7287
      XXYZ  -12727.7442   XYYZ    6860.1872   YYYZ  -24767.2094
      XXZZ  -24721.3049   XYZZ   13230.0966   YYZZ  -13484.3759
      XZZZ   22436.1209   YZZZ  -13927.9998   ZZZZ -110797.9218
 -----------------------------------------------------------------
 Calculating analytic gradient of the SCF energy
 Gradient of SCF Energy
            1           2           3           4           5           6
    1   0.0310799  -0.0358262  -0.0004461   0.0011595  -0.0223398   0.0054535
    2  -0.0325064  -0.0032413   0.0078201   0.0000689  -0.0016936   0.0227683
    3  -0.0026360  -0.0134944   0.0025131  -0.0003489   0.0194211  -0.0067595
            7           8           9          10          11          12
    1   0.0094799   0.0072982  -0.0139729   0.0022939   0.0035750   0.0030627
    2  -0.0005931  -0.0010411   0.0155179   0.0026485   0.0107793   0.0025800
    3  -0.0042289   0.0137275   0.0047530   0.0089696   0.0001233  -0.0068505
           13          14          15          16          17          18
    1   0.0093494  -0.0086904  -0.0009065   0.0003894  -0.0032158   0.0225623
    2  -0.0003183  -0.0083601  -0.0007859  -0.0020521  -0.0109611   0.0034627
    3  -0.0029516  -0.0028357  -0.0079684   0.0029577  -0.0050669   0.0104843
           19          20          21          22
    1  -0.0006606  -0.0259758   0.0059536   0.0103768
    2  -0.0006965  -0.0121901   0.0050148   0.0037790
    3   0.0000108  -0.0140111   0.0003686   0.0038229
 Max gradient component =       3.583E-02
 RMS gradient           =       1.133E-02
 Computing fast CPCM-SWIG gradient
 Updating gradient with PCM contributions...
 -- total gradient after adding PCM contribution --
---------------------------------------------------
  Atom         X              Y              Z     
---------------------------------------------------
   1       0.031981      -0.028422      -0.003941
   2      -0.035418      -0.003291      -0.014569
   3       0.002983       0.006899       0.000827
   4       0.000898      -0.001939       0.001122
   5      -0.019842      -0.001038       0.020795
   6       0.003609       0.024006      -0.005421
   7       0.009040       0.000051      -0.003928
   8       0.006852      -0.001215       0.012862
   9      -0.015537       0.013700       0.005419
  10       0.002671       0.002011       0.008905
  11       0.004458       0.010993      -0.000132
  12       0.001846       0.003024      -0.007039
  13       0.009257      -0.000195      -0.004091
  14      -0.009806      -0.008695      -0.002467
  15       0.000021      -0.000471      -0.007867
  16       0.000055      -0.003417       0.002493
  17      -0.005235      -0.011475      -0.004041
  18       0.026592       0.005496       0.009074
  19      -0.005901      -0.003019       0.002303
  20      -0.022993      -0.011050      -0.016465
  21       0.004264       0.004190       0.001861
  22       0.010205       0.003857       0.004301
---------------------------------------------------
 Number of fixed atoms: 0
 Gradient time:  CPU 127.09 s  wall 11.62 s
 Geometry Optimization Parameters
   NAtoms,    NIC,     NZ,  NCons,   NDum,   NFix, NCnnct, MaxDiis
       22     172       0       0       0       0       0       0


** GEOMETRY OPTIMIZATION IN DELOCALIZED INTERNAL COORDINATES **
   Searching for a Minimum

   Optimization Cycle:   1

                       Coordinates (Angstroms)
     ATOM                X               Y               Z
      1  C         0.5800000000   11.8300000000   20.4100000000
      2  C         0.4200000000   10.4100000000   19.8300000000
      3  C         1.5300000000    9.5300000000   20.4400000000
      4  C         1.4400000000    9.5300000000   21.9800000000
      5  C         1.3700000000   10.9200000000   22.6500000000
      6  C         0.4200000000   11.9000000000   21.9400000000
      7  H         1.4900000000    8.5000000000   20.0500000000
      8  H        -0.5200000000   10.0000000000   20.2000000000
      9  H         1.4000000000   12.4700000000   20.0800000000
     10  H        -0.2800000000   12.4300000000   20.0800000000
     11  H         0.5400000000    9.0000000000   22.2800000000
     12  H         2.3200000000    8.9900000000   22.3400000000
     13  H         1.2700000000   10.8300000000   23.7300000000
     14  H         2.3700000000   11.3200000000   22.5000000000
     15  H        -0.6300000000   11.6200000000   22.1100000000
     16  H         0.5600000000   12.9100000000   22.3300000000
     17  H         2.5100000000    9.8400000000   20.0700000000
     18  N         0.5400000000   10.4100000000   18.3800000000
     19  H         1.3900000000   10.7800000000   17.9900000000
     20  C        -0.4700000000   10.0900000000   17.5000000000
     21  H        -0.1600000000   10.3000000000   16.4600000000
     22  O        -1.5600000000    9.6600000000   17.8400000000
   Point Group: c1    Number of degrees of freedom:    60


   Energy is   -404.574344364


 Attempting to generate delocalized internal coordinates
 Initial Hessian constructed with Jon Baker's OPTIMIZE code

 60 Hessian modes will be used to form the next step
  Hessian Eigenvalues:
     0.004850    0.005407    0.006560    0.008376    0.012775    0.018054
     0.018651    0.018677    0.019042    0.033610    0.034591    0.037072
     0.041066    0.046592    0.048162    0.049493    0.050142    0.053390
     0.056519    0.060833    0.066651    0.080982    0.082752    0.082982
     0.085572    0.087172    0.089974    0.096067    0.124538    0.124890
     0.139174    0.159119    0.160000    0.162683    0.172956    0.213045
     0.220010    0.220236    0.268980    0.271008    0.272947    0.282129
     0.284145    0.285211    0.330973    0.334522    0.336922    0.337577
     0.344187    0.345335    0.346174    0.346647    0.347861    0.350043
     0.351115    0.351977    0.376029    0.466943    0.496029    0.953470

 Minimum search - taking simple RFO step
 Searching for Lamda that Minimizes Along All modes
 Value Taken    Lamda =  -0.02435713
 Calculated Step too Large.  Step scaled by  0.534468
 Step Taken.  Stepsize is  0.300000

                             Maximum     Tolerance    Cnvgd?
         Gradient           0.019782      0.000100      NO
         Displacement       0.183370      0.000100      NO
         Energy change     *********      0.000000      NO


 New Cartesian Coordinates Obtained by Inverse Iteration

 Displacement from previous Coordinates is:  0.266940
 ----------------------------------------------------------------
             Standard Nuclear Orientation (Angstroms)
    I     Atom           X                Y                Z
 ----------------------------------------------------------------
    1      C       0.5532433434    11.8430043494    20.4039963346
    2      C       0.4331752516    10.4220272915    19.8295065810
    3      C       1.5307075691     9.5327097273    20.4534721701
    4      C       1.4376200845     9.5177005177    21.9895351421
    5      C       1.3981208309    10.9213388818    22.6319647681
    6      C       0.4156867535    11.8824217951    21.9419993195
    7      H       1.4721620943     8.5057620513    20.0600389079
    8      H      -0.5251680660    10.0123757869    20.1522506812
    9      H       1.4065476788    12.4419805615    20.0681439020
   10      H      -0.3016269617    12.4347310247    20.0381253457
   11      H       0.5314601877     8.9809525793    22.2837606582
   12      H       2.3055946560     8.9676223463    22.3684037130
   13      H       1.2775548566    10.8430662079    23.7145070277
   14      H       2.4015264050    11.3382700436    22.4857396875
   15      H      -0.6240444811    11.5916883962    22.1568404678
   16      H       0.5556406247    12.8963178762    22.3267102810
   17      H       2.5199404420     9.8609864779    20.1098386582
   18      N       0.5420127620    10.4260062265    18.3785848044
   19      H       1.3931805050    10.7971747531    17.9819003101
   20      C      -0.4681927715    10.1052207609    17.5106685237
   21      H      -0.1645484155    10.2823118752    16.4629022053
   22      O      -1.5605933496     9.6663304696    17.8411105108
 ----------------------------------------------------------------
 Nuclear Repulsion Energy =         465.50149017 hartrees
 There are       35 alpha and       35 beta electrons
 Discretize the solute cavity surface with Lebedev spheres
	Using 302 Lebedev grid points for each H atom
	Using 302 Lebedev grid points for other atoms
	Atomic van der Waals radii will be scaled by 1.20
 Remove points where switching function is < 1.0e-08
 Keep 2732 surface tesserae and discard 3912 interior tesserae
 Molecular Surface Area = 182.916 Angst**2
 Applying Cartesian multipole field
    Component          Value
    ---------          -----
     (2,0,0)        1.00000E-11
     (0,2,0)        2.00000E-12
     (0,0,2)       -3.00000E-13
 Nucleus-field energy     =     0.0000000281 hartrees
 Requested basis set is 6-31+G(d)
 There are 71 shells and 197 basis functions
 A cutoff of  1.0D-14 yielded   2411 shell pairs
 There are     18991 function pairs
 Smallest overlap matrix eigenvalue = 2.36E-05
 Guess MOs from SCF MO coefficient file

 -----------------------------------------------------------------------
  General SCF calculation program by
  Eric Jon Sundstrom, Paul Horn, Yuezhi Mao, Dmitri Zuev, Alec White,
  David Stuck, Shaama M.S., Shane Yost, Joonho Lee, David Small,
  Daniel Levine, Susi Lehtola, Hugh Burton, Evgeny Epifanovsky,
  Bang C. Huynh
 -----------------------------------------------------------------------
 Exchange:     0.2000 Hartree-Fock + 0.0800 Slater + 0.7200 B88
 Correlation:  0.1900 VWN1RPA + 0.8100 LYP
 Using Euler-Maclaurin-Lebedev (99,590) quadrature formula
 using 16 threads for integral computing
 -------------------------------------------------------
 OpenMP Integral computing Module                
 Release: version 2.0, May 2017, Q-Chem Inc. Pleasanton 
 -------------------------------------------------------
 A restricted SCF calculation will be
 performed using Roothaan-Hall, DIIS
 SCF converges when DIIS error is below 1.0e-08
 ---------------------------------------
  Cycle       Energy         DIIS error
 ---------------------------------------
    1    -404.5766885160      4.96e-04  Roothaan Step
 ---------------------------------------
  Cycle       Energy         DIIS error
 ---------------------------------------
    1    -404.5827681245      5.66e-04  
    2    -404.5784076692      1.28e-03  
    3    -404.5848206645      9.04e-05  
    4    -404.5848603489      3.85e-05  
    5    -404.5848659989      1.35e-05  
    6    -404.5848667035      4.03e-06  
    7    -404.5848667664      1.08e-06  
    8    -404.5848667719      2.12e-07  
    9    -404.5848667721      9.03e-08  
   10    -404.5848667721      2.26e-08  
   11    -404.5848667721      5.03e-09  Convergence criterion met
 ---------------------------------------
 SCF time:   CPU 810.98s  wall 56.00s 

************** Final PCM Free Energy Summary **************
 G_electrostatic  =      -0.00675300 hartree =      -4.23757117 kcal/mol
 G_cavitation     =       0.00000000 hartree =       0.00000000 kcal/mol
 G_dispersion     =       0.00000000 hartree =       0.00000000 kcal/mol
 G_repulsion      =       0.00000000 hartree =       0.00000000 kcal/mol
 --------------------------------------------------
 Non-electrostatic Free Energy =       0.00000000 hartree =       0.00000000 kcal/mol
 Total                         =      -0.00675300 hartree =      -4.23757117 kcal/mol
 --------------------------------------------------
 SCF Energy (H0 + V/2)                       =    -404.58486677 
 Solute Internal Energy (H0)                 =    -404.57811377 
 Total Free Energy (H0 + V/2 + non-elec)     =    -404.58486677 hartree
                                             = -253880.83572276 kcal/mol
***********************************************************

 SCF   energy in the final basis set =     -404.5848667721
 Total energy in the final basis set =     -404.5848667721
 
 --------------------------------------------------------------
 
                    Orbital Energies (a.u.)
 --------------------------------------------------------------
 
 Alpha MOs
 -- Occupied --
-19.1329 -14.3721 -10.2946 -10.2310 -10.1880 -10.1875 -10.1867 -10.1850
-10.1827  -1.0430  -0.9336  -0.8269  -0.7474  -0.7459  -0.6425  -0.6172
 -0.5971  -0.5663  -0.5313  -0.4867  -0.4631  -0.4488  -0.4430  -0.4218
 -0.4190  -0.4020  -0.3807  -0.3754  -0.3540  -0.3508  -0.3257  -0.3150
 -0.3117  -0.2687  -0.2589
 -- Virtual --
  0.0018   0.0090   0.0104   0.0214   0.0242   0.0360   0.0452   0.0498
  0.0533   0.0643   0.0663   0.0809   0.0845   0.0911   0.0982   0.1003
  0.1065   0.1137   0.1240   0.1313   0.1367   0.1472   0.1503   0.1610
  0.1690   0.1754   0.1788   0.1817   0.1974   0.1985   0.2068   0.2089
  0.2188   0.2217   0.2339   0.2428   0.2470   0.2504   0.2598   0.2679
  0.2736   0.2807   0.2855   0.2874   0.2969   0.3079   0.3114   0.3252
  0.3288   0.3315   0.3502   0.3688   0.3759   0.3813   0.4126   0.4185
  0.4352   0.4492   0.4885   0.6057   0.6380   0.6545   0.6593   0.6668
  0.6843   0.6985   0.7207   0.7273   0.7452   0.7493   0.7671   0.7772
  0.7949   0.7999   0.8217   0.8329   0.8580   0.8983   0.9468   0.9668
  0.9786   0.9897   1.0167   1.0238   1.0344   1.0542   1.0724   1.0999
  1.1137   1.1199   1.1240   1.1421   1.1513   1.1628   1.1712   1.1794
  1.2391   1.2521   1.2896   1.3247   1.3268   1.3677   1.4063   1.4077
  1.4640   1.4840   1.4933   1.5601   1.5780   1.6191   1.6810   1.7127
  1.7312   1.7592   1.7731   1.7796   1.8308   1.8663   1.8928   1.8980
  1.9198   1.9430   1.9681   1.9930   2.0047   2.0349   2.0625   2.0808
  2.1054   2.1182   2.1890   2.2050   2.2765   2.3001   2.3088   2.3380
  2.3905   2.3931   2.4261   2.4265   2.4509   2.5569   2.5708   2.6169
  2.6792   2.6853   2.6984   2.7482   2.7688   2.8314   2.8671   3.0100
  3.1867   4.0820   4.1870   4.2305   4.2891   4.3361   4.4152   4.5880
  4.6003   4.6580
 --------------------------------------------------------------
 
          Ground-State Mulliken Net Atomic Charges

     Atom                 Charge (a.u.)
  ----------------------------------------
      1 C                    -0.308689
      2 C                    -0.466341
      3 C                    -0.285860
      4 C                    -0.435941
      5 C                    -0.366419
      6 C                    -0.440270
      7 H                     0.211831
      8 H                     0.240482
      9 H                     0.208603
     10 H                     0.212518
     11 H                     0.206138
     12 H                     0.200231
     13 H                     0.199548
     14 H                     0.196248
     15 H                     0.204478
     16 H                     0.202241
     17 H                     0.201942
     18 N                    -0.375220
     19 H                     0.420898
     20 C                     0.339887
     21 H                     0.161675
     22 O                    -0.527979
  ----------------------------------------
  Sum of atomic charges =     0.000000

 -----------------------------------------------------------------
                    Cartesian Multipole Moments
 -----------------------------------------------------------------
    Charge (ESU x 10^10)
                 0.0000
    Dipole Moment (Debye)
         X       4.2804      Y       1.8557      Z       0.8704
       Tot       4.7458
    Quadrupole Moments (Debye-Ang)
        XX     -60.8767     XY      42.5694     YY     -19.2467
        XZ      76.9216     YZ      42.4943     ZZ     -19.7774
    Octopole Moments (Debye-Ang^2)
       XXX     -75.2717    XXY    -632.9644    XYY     395.3506
       YYY   -1218.1809    XXZ   -1218.8080    XYZ     765.4774
       YYZ    -374.9954    XZZ    1353.4990    YZZ     391.6161
       ZZZ   -2278.7614
    Hexadecapole Moments (Debye-Ang^3)
      XXXX    -516.6903   XXXY    -802.5441   XXYY   -6733.4238
      XYYY    3326.1351   YYYY  -30224.9380   XXXZ   -1765.1619
      XXYZ  -12721.0776   XYYZ    6979.4446   YYYZ  -24910.4250
      XXZZ  -24714.9962   XYZZ   13460.9262   YYZZ  -13445.4417
      XZZZ   22879.6337   YZZZ  -13255.0430   ZZZZ -108144.1806
 -----------------------------------------------------------------
 Calculating analytic gradient of the SCF energy
 Gradient of SCF Energy
            1           2           3           4           5           6
    1   0.0220267  -0.0230972  -0.0029790   0.0013285  -0.0173603   0.0037737
    2  -0.0247135  -0.0008274   0.0063859  -0.0012564  -0.0007899   0.0134767
    3  -0.0024846  -0.0116627   0.0053261  -0.0011388   0.0121493  -0.0027625
            7           8           9          10          11          12
    1   0.0062584   0.0050485  -0.0085411  -0.0001566   0.0010749   0.0028929
    2  -0.0015147   0.0001502   0.0121117   0.0029883   0.0048020   0.0018398
    3  -0.0023018   0.0096799   0.0012030   0.0040713  -0.0001170  -0.0038542
           13          14          15          16          17          18
    1   0.0064565  -0.0027194  -0.0017215   0.0009446  -0.0000379   0.0123568
    2  -0.0009647  -0.0034170  -0.0005243  -0.0011391  -0.0067026   0.0009758
    3  -0.0011423  -0.0018170  -0.0044104   0.0018318  -0.0040036   0.0080640
           19          20          21          22
    1   0.0025728  -0.0204056   0.0046690   0.0076153
    2   0.0007912  -0.0057250   0.0025545   0.0014985
    3  -0.0005274  -0.0072182  -0.0003123   0.0014274
 Max gradient component =       2.471E-02
 RMS gradient           =       7.731E-03
 Computing fast CPCM-SWIG gradient
 Updating gradient with PCM contributions...
 -- total gradient after adding PCM contribution --
---------------------------------------------------
  Atom         X              Y              Z     
---------------------------------------------------
   1       0.023240      -0.021020      -0.003992
   2      -0.022773      -0.000891      -0.012788
   3       0.000449       0.005543       0.003733
   4       0.001074      -0.003414       0.000379
   5      -0.014911      -0.000004       0.013634
   6       0.001887       0.014804      -0.001381
   7       0.005920      -0.000800      -0.002042
   8       0.004519      -0.000073       0.008879
   9      -0.010301       0.010541       0.001979
  10       0.000249       0.002361       0.004152
  11       0.001971       0.005130      -0.000368
  12       0.001680       0.002331      -0.004134
  13       0.006443      -0.000846      -0.002288
  14      -0.003945      -0.003866      -0.001471
  15      -0.000790      -0.000191      -0.004450
  16       0.000598      -0.002455       0.001402
  17      -0.002089      -0.007361      -0.003098
  18       0.016455       0.003058       0.006721
  19      -0.002692      -0.001562       0.001740
  20      -0.017424      -0.004629      -0.009558
  21       0.002992       0.001794       0.001114
  22       0.007448       0.001551       0.001836
---------------------------------------------------
 Number of fixed atoms: 0
 Gradient time:  CPU 126.09 s  wall 11.62 s
 Geometry Optimization Parameters
   NAtoms,    NIC,     NZ,  NCons,   NDum,   NFix, NCnnct, MaxDiis
       22     172       0       0       0       0       0       0

 Cartesian Hessian Update
 Hessian updated using BFGS update


** GEOMETRY OPTIMIZATION IN DELOCALIZED INTERNAL COORDINATES **
   Searching for a Minimum

   Optimization Cycle:   2

                       Coordinates (Angstroms)
     ATOM                X               Y               Z
      1  C         0.5532433434   11.8430043494   20.4039963346
      2  C         0.4331752516   10.4220272915   19.8295065810
      3  C         1.5307075691    9.5327097273   20.4534721701
      4  C         1.4376200845    9.5177005177   21.9895351421
      5  C         1.3981208309   10.9213388818   22.6319647681
      6  C         0.4156867535   11.8824217951   21.9419993195
      7  H         1.4721620943    8.5057620513   20.0600389079
      8  H        -0.5251680660   10.0123757869   20.1522506812
      9  H         1.4065476788   12.4419805615   20.0681439020
     10  H        -0.3016269617   12.4347310247   20.0381253457
     11  H         0.5314601877    8.9809525793   22.2837606582
     12  H         2.3055946560    8.9676223463   22.3684037130
     13  H         1.2775548566   10.8430662079   23.7145070277
     14  H         2.4015264050   11.3382700436   22.4857396875
     15  H        -0.6240444811   11.5916883962   22.1568404678
     16  H         0.5556406247   12.8963178762   22.3267102810
     17  H         2.5199404420    9.8609864779   20.1098386582
     18  N         0.5420127620   10.4260062265   18.3785848044
     19  H         1.3931805050   10.7971747531   17.9819003101
     20  C        -0.4681927715   10.1052207609   17.5106685237
     21  H        -0.1645484155   10.2823118752   16.4629022053
     22  O        -1.5605933496    9.6663304696   17.8411105108
   Point Group: c1    Number of degrees of freedom:    60


   Energy is   -404.584866772

 Hessian updated using BFGS update

 60 Hessian modes will be used to form the next step
  Hessian Eigenvalues:
     0.004847    0.005415    0.006557    0.008377    0.012773    0.017399
     0.018563    0.018776    0.019870    0.033145    0.035877    0.037087
     0.041419    0.046157    0.047374    0.049682    0.051184    0.053464
     0.057134    0.060659    0.066917    0.080929    0.082186    0.083340
     0.084307    0.087396    0.090017    0.093046    0.123575    0.125526
     0.139279    0.158444    0.159551    0.162711    0.178994    0.211847
     0.219892    0.220493    0.269247    0.272600    0.275360    0.281750
     0.284871    0.287078    0.330976    0.334392    0.336960    0.338615
     0.344111    0.345239    0.345917    0.346538    0.347742    0.349726
     0.351697    0.356158    0.376918    0.466550    0.489965    0.950076

 Minimum search - taking simple RFO step
 Searching for Lamda that Minimizes Along All modes
 Value Taken    Lamda =  -0.01293262
 Calculated Step too Large.  Step scaled by  0.583500
 Step Taken.  Stepsize is  0.300000

                             Maximum     Tolerance    Cnvgd?
         Gradient           0.013662      0.000100      NO
         Displacement       0.166266      0.000100      NO
         Energy change     -0.010522      0.000000      NO


 New Cartesian Coordinates Obtained by Inverse Iteration

 Displacement from previous Coordinates is:  0.249365
 ----------------------------------------------------------------
             Standard Nuclear Orientation (Angstroms)
    I     Atom           X                Y                Z
 ----------------------------------------------------------------
    1      C       0.5229732471    11.8503342988    20.4048704133
    2      C       0.4427203779    10.4262031927    19.8337220791
    3      C       1.5319840172     9.5351602014    20.4603992009
    4      C       1.4350281569     9.5141185283    21.9937954572
    5      C       1.4249828951    10.9254248833    22.6102894339
    6      C       0.4114990195    11.8673950367    21.9425520822
    7      H       1.4568332736     8.5146175702    20.0583541093
    8      H      -0.5291664140    10.0073450525    20.1072867406
    9      H       1.4133367612    12.4023721870    20.0746440040
   10      H      -0.3239860118    12.4345713577    20.0128643725
   11      H       0.5208794428     8.9836188968    22.2895103158
   12      H       2.2869499128     8.9488321150    22.3903407088
   13      H       1.2842961898    10.8649453498    23.6949426814
   14      H       2.4295747683    11.3491118322    22.4619253292
   15      H      -0.6149845134    11.5636625489    22.1974374983
   16      H       0.5468602100    12.8867023610    22.3209834313
   17      H       2.5247254045     9.8861005836    20.1404607212
   18      N       0.5500003439    10.4300327144    18.3803130977
   19      H       1.3997642872    10.8041306672    17.9763944976
   20      C      -0.4520788109    10.0974224209    17.5214569837
   21      H      -0.1689778578    10.2830151595    16.4694094147
   22      O      -1.5632147000     9.6948830419    17.8480474272
 ----------------------------------------------------------------
 Nuclear Repulsion Energy =         466.08420700 hartrees
 There are       35 alpha and       35 beta electrons
 Discretize the solute cavity surface with Lebedev spheres
	Using 302 Lebedev grid points for each H atom
	Using 302 Lebedev grid points for other atoms
	Atomic van der Waals radii will be scaled by 1.20
 Remove points where switching function is < 1.0e-08
 Keep 2745 surface tesserae and discard 3899 interior tesserae
 Molecular Surface Area = 182.704 Angst**2
 Applying Cartesian multipole field
    Component          Value
    ---------          -----
     (2,0,0)        1.00000E-11
     (0,2,0)        2.00000E-12
     (0,0,2)       -3.00000E-13
 Nucleus-field energy     =     0.0000000281 hartrees
 Requested basis set is 6-31+G(d)
 There are 71 shells and 197 basis functions
 A cutoff of  1.0D-14 yielded   2411 shell pairs
 There are     18991 function pairs
 Smallest overlap matrix eigenvalue = 2.40E-05
 Guess MOs from SCF MO coefficient file

 -----------------------------------------------------------------------
  General SCF calculation program by
  Eric Jon Sundstrom, Paul Horn, Yuezhi Mao, Dmitri Zuev, Alec White,
  David Stuck, Shaama M.S., Shane Yost, Joonho Lee, David Small,
  Daniel Levine, Susi Lehtola, Hugh Burton, Evgeny Epifanovsky,
  Bang C. Huynh
 -----------------------------------------------------------------------
 Exchange:     0.2000 Hartree-Fock + 0.0800 Slater + 0.7200 B88
 Correlation:  0.1900 VWN1RPA + 0.8100 LYP
 Using Euler-Maclaurin-Lebedev (99,590) quadrature formula
 using 16 threads for integral computing
 -------------------------------------------------------
 OpenMP Integral computing Module                
 Release: version 2.0, May 2017, Q-Chem Inc. Pleasanton 
 -------------------------------------------------------
 A restricted SCF calculation will be
 performed using Roothaan-Hall, DIIS
 SCF converges when DIIS error is below 1.0e-08
 ---------------------------------------
  Cycle       Energy         DIIS error
 ---------------------------------------
    1    -404.5816402458      5.53e-04  Roothaan Step
 ---------------------------------------
  Cycle       Energy         DIIS error
 ---------------------------------------
    1    -404.5882855968      5.78e-04  
    2    -404.5837702287      1.31e-03  
    3    -404.5904132955      9.30e-05  
    4    -404.5904539457      4.24e-05  
    5    -404.5904608428      1.40e-05  
    6    -404.5904616146      4.03e-06  
    7    -404.5904616767      1.18e-06  
    8    -404.5904616832      2.41e-07  
    9    -404.5904616835      1.01e-07  
   10    -404.5904616835      2.28e-08  
   11    -404.5904616835      5.13e-09  Convergence criterion met
 ---------------------------------------
 SCF time:   CPU 825.17s  wall 57.00s 

************** Final PCM Free Energy Summary **************
 G_electrostatic  =      -0.00683853 hartree =      -4.29124376 kcal/mol
 G_cavitation     =       0.00000000 hartree =       0.00000000 kcal/mol
 G_dispersion     =       0.00000000 hartree =       0.00000000 kcal/mol
 G_repulsion      =       0.00000000 hartree =       0.00000000 kcal/mol
 --------------------------------------------------
 Non-electrostatic Free Energy =       0.00000000 hartree =       0.00000000 kcal/mol
 Total                         =      -0.00683853 hartree =      -4.29124376 kcal/mol
 --------------------------------------------------
 SCF Energy (H0 + V/2)                       =    -404.59046168 
 Solute Internal Energy (H0)                 =    -404.58362315 
 Total Free Energy (H0 + V/2 + non-elec)     =    -404.59046168 hartree
                                             = -253884.34658268 kcal/mol
***********************************************************

 SCF   energy in the final basis set =     -404.5904616835
 Total energy in the final basis set =     -404.5904616835
 
 --------------------------------------------------------------
 
                    Orbital Energies (a.u.)
 --------------------------------------------------------------
 
 Alpha MOs
 -- Occupied --
-19.1312 -14.3725 -10.2934 -10.2296 -10.1885 -10.1881 -10.1865 -10.1857
-10.1839  -1.0408  -0.9344  -0.8282  -0.7478  -0.7467  -0.6419  -0.6177
 -0.5966  -0.5668  -0.5301  -0.4865  -0.4634  -0.4487  -0.4428  -0.4218
 -0.4180  -0.4011  -0.3817  -0.3770  -0.3530  -0.3507  -0.3260  -0.3170
 -0.3138  -0.2671  -0.2596
 -- Virtual --
  0.0019   0.0098   0.0103   0.0214   0.0239   0.0360   0.0453   0.0494
  0.0535   0.0644   0.0662   0.0809   0.0848   0.0909   0.0978   0.1004
  0.1066   0.1140   0.1226   0.1312   0.1368   0.1475   0.1506   0.1603
  0.1687   0.1758   0.1793   0.1820   0.1963   0.1987   0.2081   0.2089
  0.2197   0.2215   0.2335   0.2444   0.2461   0.2500   0.2600   0.2677
  0.2767   0.2810   0.2857   0.2880   0.2934   0.3091   0.3102   0.3252
  0.3273   0.3298   0.3538   0.3680   0.3784   0.3832   0.4123   0.4163
  0.4363   0.4494   0.4889   0.6049   0.6363   0.6539   0.6597   0.6650
  0.6827   0.6971   0.7221   0.7280   0.7412   0.7518   0.7694   0.7786
  0.7966   0.7995   0.8194   0.8345   0.8561   0.9008   0.9480   0.9686
  0.9764   0.9877   1.0152   1.0236   1.0310   1.0523   1.0762   1.0963
  1.1141   1.1179   1.1224   1.1430   1.1585   1.1660   1.1752   1.1794
  1.2362   1.2540   1.2883   1.3241   1.3336   1.3689   1.3990   1.4088
  1.4696   1.4845   1.4872   1.5618   1.5788   1.6190   1.6897   1.7209
  1.7356   1.7556   1.7700   1.7890   1.8351   1.8697   1.8968   1.9049
  1.9155   1.9374   1.9672   1.9982   2.0054   2.0390   2.0580   2.0834
  2.1083   2.1157   2.1958   2.2079   2.2765   2.2967   2.3160   2.3373
  2.3961   2.4026   2.4153   2.4205   2.4477   2.5579   2.5761   2.6212
  2.6782   2.6846   2.7002   2.7506   2.7710   2.8332   2.8662   3.0083
  3.1885   4.0858   4.1898   4.2329   4.2897   4.3335   4.4161   4.5927
  4.5984   4.6621
 --------------------------------------------------------------
 
          Ground-State Mulliken Net Atomic Charges

     Atom                 Charge (a.u.)
  ----------------------------------------
      1 C                    -0.292400
      2 C                    -0.461295
      3 C                    -0.282555
      4 C                    -0.437578
      5 C                    -0.373472
      6 C                    -0.442694
      7 H                     0.212055
      8 H                     0.238891
      9 H                     0.204784
     10 H                     0.212596
     11 H                     0.206236
     12 H                     0.200670
     13 H                     0.198928
     14 H                     0.197095
     15 H                     0.205852
     16 H                     0.201642
     17 H                     0.201378
     18 N                    -0.376287
     19 H                     0.419826
     20 C                     0.338645
     21 H                     0.160707
     22 O                    -0.533022
  ----------------------------------------
  Sum of atomic charges =     0.000000

 -----------------------------------------------------------------
                    Cartesian Multipole Moments
 -----------------------------------------------------------------
    Charge (ESU x 10^10)
                 0.0000
    Dipole Moment (Debye)
         X       4.3553      Y       1.7901      Z       0.9495
       Tot       4.8036
    Quadrupole Moments (Debye-Ang)
        XX     -60.9392     XY      43.4409     YY     -20.5543
        XZ      78.3487     YZ      42.0453     ZZ     -16.7126
    Octopole Moments (Debye-Ang^2)
       XXX     -75.2401    XXY    -633.4370    XYY     404.9244
       YYY   -1238.8425    XXZ   -1219.7919    XYZ     781.9031
       YYZ    -392.0555    XZZ    1380.5912    YZZ     398.4316
       ZZZ   -2189.3268
    Hexadecapole Moments (Debye-Ang^3)
      XXXX    -518.6221   XXXY    -799.9740   XXYY   -6736.3882
      XYYY    3426.2343   YYYY  -30529.1898   XXXZ   -1764.2856
      XXYZ  -12726.7740   XYYZ    7158.3137   YYYZ  -25230.0109
      XXZZ  -24729.1547   XYZZ   13769.6747   YYZZ  -13622.4175
      XZZZ   23390.8619   YZZZ  -12825.4305   ZZZZ -105811.2537
 -----------------------------------------------------------------
 Calculating analytic gradient of the SCF energy
 Gradient of SCF Energy
            1           2           3           4           5           6
    1   0.0109358  -0.0107794  -0.0043815   0.0009151  -0.0113764   0.0030204
    2  -0.0152992   0.0004247   0.0042304   0.0004645  -0.0012173   0.0055912
    3  -0.0002776  -0.0070175   0.0045934  -0.0019928   0.0046808  -0.0015666
            7           8           9          10          11          12
    1   0.0030165   0.0026649  -0.0032180  -0.0012527  -0.0000065   0.0024029
    2  -0.0012847   0.0004506   0.0075489   0.0020188   0.0013861   0.0010021
    3  -0.0013881   0.0056474  -0.0001124   0.0017980   0.0002559  -0.0016229
           13          14          15          16          17          18
    1   0.0029976   0.0003848  -0.0015638   0.0012077   0.0017299   0.0025079
    2  -0.0006514  -0.0011801  -0.0001137   0.0001510  -0.0029033  -0.0002053
    3   0.0003457  -0.0011259  -0.0023341   0.0009172  -0.0025921   0.0054648
           19          20          21          22
    1   0.0041791  -0.0089661   0.0021191   0.0034629
    2   0.0023484  -0.0104395   0.0041866   0.0034912
    3  -0.0014454  -0.0018937  -0.0006605   0.0003262
 Max gradient component =       1.530E-02
 RMS gradient           =       4.368E-03
 Computing fast CPCM-SWIG gradient
 Updating gradient with PCM contributions...
 -- total gradient after adding PCM contribution --
---------------------------------------------------
  Atom         X              Y              Z     
---------------------------------------------------
   1       0.012463      -0.012027      -0.001895
   2      -0.010542       0.000387      -0.008224
   3      -0.000885       0.003479       0.003052
   4       0.000624      -0.001858      -0.000383
   5      -0.008950      -0.000294       0.006244
   6       0.001067       0.006993      -0.000130
   7       0.002781      -0.000486      -0.001116
   8       0.002027       0.000206       0.004904
   9      -0.005188       0.006263       0.000674
  10      -0.000820       0.001403       0.001958
  11       0.000907       0.001779      -0.000013
  12       0.001210       0.001541      -0.001977
  13       0.003084      -0.000561      -0.000807
  14      -0.000962      -0.001706      -0.000772
  15      -0.000640       0.000238      -0.002488
  16       0.000859      -0.001137       0.000521
  17      -0.000366      -0.003725      -0.001782
  18       0.006624       0.001930       0.004145
  19      -0.001089      -0.000058       0.000826
  20      -0.005987      -0.009389      -0.004134
  21       0.000459       0.003431       0.000710
  22       0.003325       0.003592       0.000687
---------------------------------------------------
 Number of fixed atoms: 0
 Gradient time:  CPU 126.03 s  wall 11.62 s
 Geometry Optimization Parameters
   NAtoms,    NIC,     NZ,  NCons,   NDum,   NFix, NCnnct, MaxDiis
       22     172       0       0       0       0       0       0

 Cartesian Hessian Update
 Hessian updated using BFGS update


** GEOMETRY OPTIMIZATION IN DELOCALIZED INTERNAL COORDINATES **
   Searching for a Minimum

   Optimization Cycle:   3

                       Coordinates (Angstroms)
     ATOM                X               Y               Z
      1  C         0.5229732471   11.8503342988   20.4048704133
      2  C         0.4427203779   10.4262031927   19.8337220791
      3  C         1.5319840172    9.5351602014   20.4603992009
      4  C         1.4350281569    9.5141185283   21.9937954572
      5  C         1.4249828951   10.9254248833   22.6102894339
      6  C         0.4114990195   11.8673950367   21.9425520822
      7  H         1.4568332736    8.5146175702   20.0583541093
      8  H        -0.5291664140   10.0073450525   20.1072867406
      9  H         1.4133367612   12.4023721870   20.0746440040
     10  H        -0.3239860118   12.4345713577   20.0128643725
     11  H         0.5208794428    8.9836188968   22.2895103158
     12  H         2.2869499128    8.9488321150   22.3903407088
     13  H         1.2842961898   10.8649453498   23.6949426814
     14  H         2.4295747683   11.3491118322   22.4619253292
     15  H        -0.6149845134   11.5636625489   22.1974374983
     16  H         0.5468602100   12.8867023610   22.3209834313
     17  H         2.5247254045    9.8861005836   20.1404607212
     18  N         0.5500003439   10.4300327144   18.3803130977
     19  H         1.3997642872   10.8041306672   17.9763944976
     20  C        -0.4520788109   10.0974224209   17.5214569837
     21  H        -0.1689778578   10.2830151595   16.4694094147
     22  O        -1.5632147000    9.6948830419   17.8480474272
   Point Group: c1    Number of degrees of freedom:    60


   Energy is   -404.590461684

 Hessian updated using BFGS update

 60 Hessian modes will be used to form the next step
  Hessian Eigenvalues:
     0.004842    0.005405    0.006545    0.008377    0.012685    0.016650
     0.018525    0.018739    0.022993    0.034572    0.037021    0.037209
     0.043551    0.046547    0.048124    0.049720    0.051217    0.053389
     0.056956    0.060439    0.066940    0.080769    0.081197    0.083204
     0.083973    0.087348    0.090071    0.091942    0.123429    0.125719
     0.139248    0.157950    0.159552    0.162708    0.178029    0.211762
     0.219699    0.220468    0.269133    0.272598    0.275518    0.282011
     0.284871    0.287306    0.330976    0.334307    0.336976    0.338402
     0.344066    0.345288    0.345865    0.346500    0.347734    0.349718
     0.351671    0.356723    0.377823    0.466669    0.489506    0.947691

 Minimum search - taking simple RFO step
 Searching for Lamda that Minimizes Along All modes
 Value Taken    Lamda =  -0.00693267
 Calculated Step too Large.  Step scaled by  0.583526
 Step Taken.  Stepsize is  0.300000

                             Maximum     Tolerance    Cnvgd?
         Gradient           0.007479      0.000100      NO
         Displacement       0.133946      0.000100      NO
         Energy change     -0.005595      0.000000      NO


 New Cartesian Coordinates Obtained by Inverse Iteration

 Displacement from previous Coordinates is:  0.303577
 ----------------------------------------------------------------
             Standard Nuclear Orientation (Angstroms)
    I     Atom           X                Y                Z
 ----------------------------------------------------------------
    1      C       0.5012983362    11.8661449258    20.4169862237
    2      C       0.4403352349    10.4429991982    19.8384293120
    3      C       1.5222166761     9.5424289573    20.4563452467
    4      C       1.4265468887     9.5134604965    21.9891371158
    5      C       1.4516946399    10.9263607463    22.5933660750
    6      C       0.4132093798    11.8588249394    21.9531187350
    7      H       1.4294185206     8.5297793630    20.0428481859
    8      H      -0.5413123490    10.0181475725    20.0718972799
    9      H       1.4247156780    12.3720896780    20.0968785316
   10      H      -0.3323104745    12.4541504447    20.0096535391
   11      H       0.5009594964     8.9997874866    22.2866806140
   12      H       2.2594022261     8.9242158627    22.3938723195
   13      H       1.3025096168    10.8760309602    23.6795993051
   14      H       2.4560506647    11.3508619034    22.4381520318
   15      H      -0.6000867440    11.5420737163    22.2409626941
   16      H       0.5442564937    12.8796283006    22.3340034265
   17      H       2.5163499934     9.9079603389    20.1530251604
   18      N       0.5458103377    10.4593315252    18.3809913365
   19      H       1.3977418351    10.8278119301    17.9727878440
   20      C      -0.4495771605    10.1208749033    17.5265463987
   21      H      -0.1427623114    10.2132173166    16.4687974496
   22      O      -1.5364669787     9.6438194343    17.8459211752
 ----------------------------------------------------------------
 Nuclear Repulsion Energy =         466.48270324 hartrees
 There are       35 alpha and       35 beta electrons
 Discretize the solute cavity surface with Lebedev spheres
	Using 302 Lebedev grid points for each H atom
	Using 302 Lebedev grid points for other atoms
	Atomic van der Waals radii will be scaled by 1.20
 Remove points where switching function is < 1.0e-08
 Keep 2737 surface tesserae and discard 3907 interior tesserae
 Molecular Surface Area = 182.597 Angst**2
 Applying Cartesian multipole field
    Component          Value
    ---------          -----
     (2,0,0)        1.00000E-11
     (0,2,0)        2.00000E-12
     (0,0,2)       -3.00000E-13
 Nucleus-field energy     =     0.0000000281 hartrees
 Requested basis set is 6-31+G(d)
 There are 71 shells and 197 basis functions
 A cutoff of  1.0D-14 yielded   2412 shell pairs
 There are     18992 function pairs
 Smallest overlap matrix eigenvalue = 2.44E-05
 Guess MOs from SCF MO coefficient file

 -----------------------------------------------------------------------
  General SCF calculation program by
  Eric Jon Sundstrom, Paul Horn, Yuezhi Mao, Dmitri Zuev, Alec White,
  David Stuck, Shaama M.S., Shane Yost, Joonho Lee, David Small,
  Daniel Levine, Susi Lehtola, Hugh Burton, Evgeny Epifanovsky,
  Bang C. Huynh
 -----------------------------------------------------------------------
 Exchange:     0.2000 Hartree-Fock + 0.0800 Slater + 0.7200 B88
 Correlation:  0.1900 VWN1RPA + 0.8100 LYP
 Using Euler-Maclaurin-Lebedev (99,590) quadrature formula
 using 16 threads for integral computing
 -------------------------------------------------------
 OpenMP Integral computing Module                
 Release: version 2.0, May 2017, Q-Chem Inc. Pleasanton 
 -------------------------------------------------------
 A restricted SCF calculation will be
 performed using Roothaan-Hall, DIIS
 SCF converges when DIIS error is below 1.0e-08
 ---------------------------------------
  Cycle       Energy         DIIS error
 ---------------------------------------
    1    -404.5813257997      7.30e-04  Roothaan Step
 ---------------------------------------
  Cycle       Energy         DIIS error
 ---------------------------------------
    1    -404.5899883904      5.91e-04  
    2    -404.5853920040      1.32e-03  
    3    -404.5922084493      9.40e-05  
    4    -404.5922491934      4.50e-05  
    5    -404.5922569642      1.47e-05  
    6    -404.5922578276      4.21e-06  
    7    -404.5922578949      1.27e-06  
    8    -404.5922579025      2.63e-07  
    9    -404.5922579028      1.09e-07  
   10    -404.5922579029      2.44e-08  
   11    -404.5922579029      5.21e-09  Convergence criterion met
 ---------------------------------------
 SCF time:   CPU 853.26s  wall 59.00s 

************** Final PCM Free Energy Summary **************
 G_electrostatic  =      -0.00693153 hartree =      -4.34960332 kcal/mol
 G_cavitation     =       0.00000000 hartree =       0.00000000 kcal/mol
 G_dispersion     =       0.00000000 hartree =       0.00000000 kcal/mol
 G_repulsion      =       0.00000000 hartree =       0.00000000 kcal/mol
 --------------------------------------------------
 Non-electrostatic Free Energy =       0.00000000 hartree =       0.00000000 kcal/mol
 Total                         =      -0.00693153 hartree =      -4.34960332 kcal/mol
 --------------------------------------------------
 SCF Energy (H0 + V/2)                       =    -404.59225790 
 Solute Internal Energy (H0)                 =    -404.58532637 
 Total Free Energy (H0 + V/2 + non-elec)     =    -404.59225790 hartree
                                             = -253885.47372735 kcal/mol
***********************************************************

 SCF   energy in the final basis set =     -404.5922579029
 Total energy in the final basis set =     -404.5922579029
 
 --------------------------------------------------------------
 
                    Orbital Energies (a.u.)
 --------------------------------------------------------------
 
 Alpha MOs
 -- Occupied --
-19.1298 -14.3729 -10.2924 -10.2289 -10.1888 -10.1887 -10.1863 -10.1863
-10.1847  -1.0388  -0.9346  -0.8294  -0.7482  -0.7474  -0.6413  -0.6182
 -0.5963  -0.5674  -0.5292  -0.4863  -0.4639  -0.4486  -0.4428  -0.4214
 -0.4175  -0.4003  -0.3833  -0.3773  -0.3524  -0.3508  -0.3267  -0.3180
 -0.3148  -0.2653  -0.2604
 -- Virtual --
  0.0016   0.0098   0.0103   0.0215   0.0239   0.0360   0.0454   0.0491
  0.0536   0.0646   0.0662   0.0807   0.0849   0.0906   0.0973   0.1004
  0.1067   0.1143   0.1214   0.1312   0.1370   0.1475   0.1509   0.1597
  0.1685   0.1766   0.1788   0.1828   0.1962   0.1982   0.2083   0.2098
  0.2196   0.2210   0.2329   0.2445   0.2453   0.2505   0.2598   0.2673
  0.2798   0.2810   0.2861   0.2884   0.2904   0.3086   0.3099   0.3254
  0.3260   0.3285   0.3562   0.3669   0.3804   0.3837   0.4131   0.4148
  0.4369   0.4511   0.4884   0.6046   0.6349   0.6528   0.6614   0.6636
  0.6814   0.6955   0.7233   0.7282   0.7459   0.7465   0.7707   0.7797
  0.7976   0.7999   0.8176   0.8365   0.8557   0.9037   0.9498   0.9697
  0.9747   0.9864   1.0147   1.0230   1.0288   1.0511   1.0805   1.0947
  1.1140   1.1166   1.1214   1.1441   1.1594   1.1651   1.1789   1.1831
  1.2337   1.2560   1.2878   1.3231   1.3396   1.3636   1.3925   1.4095
  1.4649   1.4851   1.4988   1.5634   1.5769   1.6159   1.6999   1.7252
  1.7402   1.7501   1.7679   1.7974   1.8442   1.8684   1.9002   1.9055
  1.9109   1.9366   1.9679   2.0045   2.0061   2.0415   2.0536   2.0847
  2.1012   2.1240   2.2008   2.2120   2.2751   2.3028   2.3142   2.3374
  2.3967   2.4077   2.4115   2.4180   2.4486   2.5582   2.5790   2.6221
  2.6748   2.6853   2.7008   2.7522   2.7740   2.8327   2.8665   3.0049
  3.1861   4.0879   4.1925   4.2329   4.2902   4.3310   4.4159   4.5969
  4.5975   4.6655
 --------------------------------------------------------------
 
          Ground-State Mulliken Net Atomic Charges

     Atom                 Charge (a.u.)
  ----------------------------------------
      1 C                    -0.274219
      2 C                    -0.466981
      3 C                    -0.278289
      4 C                    -0.439242
      5 C                    -0.379223
      6 C                    -0.444350
      7 H                     0.212947
      8 H                     0.238143
      9 H                     0.202254
     10 H                     0.212149
     11 H                     0.206670
     12 H                     0.200959
     13 H                     0.198658
     14 H                     0.198130
     15 H                     0.206705
     16 H                     0.201094
     17 H                     0.201293
     18 N                    -0.376994
     19 H                     0.419069
     20 C                     0.337917
     21 H                     0.160087
     22 O                    -0.536779
  ----------------------------------------
  Sum of atomic charges =     0.000000

 -----------------------------------------------------------------
                    Cartesian Multipole Moments
 -----------------------------------------------------------------
    Charge (ESU x 10^10)
                -0.0000
    Dipole Moment (Debye)
         X       4.3667      Y       1.8767      Z       1.0276
       Tot       4.8627
    Quadrupole Moments (Debye-Ang)
        XX     -60.7239     XY      43.3290     YY     -19.0059
        XZ      78.5865     YZ      44.3581     ZZ     -13.7032
    Octopole Moments (Debye-Ang^2)
       XXX     -75.6471    XXY    -630.8723    XYY     401.4651
       YYY   -1219.3795    XXZ   -1215.7728    XYZ     780.2325
       YYZ    -356.9984    XZZ    1385.5855    YZZ     455.1487
       ZZZ   -2101.8287
    Hexadecapole Moments (Debye-Ang^3)
      XXXX    -514.1769   XXXY    -805.6214   XXYY   -6706.4465
      XYYY    3363.9205   YYYY  -30338.0249   XXXZ   -1770.6023
      XXYZ  -12679.2096   XYYZ    7099.5205   YYYZ  -24816.3081
      XXZZ  -24652.9245   XYZZ   13746.0532   YYZZ  -12852.2211
      XZZZ   23495.4276   YZZZ  -11499.7655   ZZZZ -103535.7137
 -----------------------------------------------------------------
 Calculating analytic gradient of the SCF energy
 Gradient of SCF Energy
            1           2           3           4           5           6
    1   0.0015098  -0.0015376  -0.0046249   0.0004090  -0.0059451   0.0027450
    2  -0.0067440  -0.0001395   0.0021969   0.0022207  -0.0015110  -0.0002317
    3   0.0007133  -0.0019590   0.0033668  -0.0023244  -0.0005955  -0.0014080
            7           8           9          10          11          12
    1   0.0007402   0.0009720   0.0006537  -0.0012727  -0.0004630   0.0018266
    2  -0.0007313   0.0006573   0.0031984   0.0007648  -0.0004247   0.0002173
    3  -0.0008906   0.0024497  -0.0004567   0.0006529   0.0005653  -0.0000626
           13          14          15          16          17          18
    1   0.0002922   0.0016348  -0.0011932   0.0011496   0.0023748  -0.0024492
    2  -0.0001359  -0.0000338   0.0001529   0.0010721  -0.0002481  -0.0056887
    3   0.0011160  -0.0005277  -0.0007254   0.0003211  -0.0012843   0.0025426
           19          20          21          22
    1   0.0053633  -0.0091206   0.0033802   0.0035550
    2   0.0018009   0.0109145  -0.0030981  -0.0042093
    3  -0.0022558   0.0024056  -0.0011802  -0.0004631
 Max gradient component =       1.091E-02
 RMS gradient           =       2.850E-03
 Computing fast CPCM-SWIG gradient
 Updating gradient with PCM contributions...
 -- total gradient after adding PCM contribution --
---------------------------------------------------
  Atom         X              Y              Z     
---------------------------------------------------
   1       0.003337      -0.003709      -0.000961
   2      -0.001393      -0.000175      -0.003202
   3      -0.001170       0.001555       0.001821
   4       0.000080      -0.000207      -0.000665
   5      -0.003512      -0.000498       0.001014
   6       0.000680       0.001226       0.000139
   7       0.000561       0.000080      -0.000619
   8       0.000274       0.000347       0.001746
   9      -0.001472       0.002173       0.000306
  10      -0.000741       0.000119       0.000903
  11       0.000462      -0.000019       0.000274
  12       0.000665       0.000807      -0.000468
  13       0.000457      -0.000070      -0.000049
  14       0.000187      -0.000621      -0.000154
  15      -0.000255       0.000530      -0.000973
  16       0.000809      -0.000204      -0.000063
  17       0.000231      -0.001202      -0.000544
  18       0.001726      -0.003659       0.001218
  19       0.000045      -0.000520       0.000013
  20      -0.006155       0.012031       0.000264
  21       0.001687      -0.003746       0.000141
  22       0.003499      -0.004240      -0.000143
---------------------------------------------------
 Number of fixed atoms: 0
 Gradient time:  CPU 127.53 s  wall 12.14 s
 Geometry Optimization Parameters
   NAtoms,    NIC,     NZ,  NCons,   NDum,   NFix, NCnnct, MaxDiis
       22     172       0       0       0       0       0       0

 Cartesian Hessian Update
 Hessian updated using BFGS update


** GEOMETRY OPTIMIZATION IN DELOCALIZED INTERNAL COORDINATES **
   Searching for a Minimum

   Optimization Cycle:   4

                       Coordinates (Angstroms)
     ATOM                X               Y               Z
      1  C         0.5012983362   11.8661449258   20.4169862237
      2  C         0.4403352349   10.4429991982   19.8384293120
      3  C         1.5222166761    9.5424289573   20.4563452467
      4  C         1.4265468887    9.5134604965   21.9891371158
      5  C         1.4516946399   10.9263607463   22.5933660750
      6  C         0.4132093798   11.8588249394   21.9531187350
      7  H         1.4294185206    8.5297793630   20.0428481859
      8  H        -0.5413123490   10.0181475725   20.0718972799
      9  H         1.4247156780   12.3720896780   20.0968785316
     10  H        -0.3323104745   12.4541504447   20.0096535391
     11  H         0.5009594964    8.9997874866   22.2866806140
     12  H         2.2594022261    8.9242158627   22.3938723195
     13  H         1.3025096168   10.8760309602   23.6795993051
     14  H         2.4560506647   11.3508619034   22.4381520318
     15  H        -0.6000867440   11.5420737163   22.2409626941
     16  H         0.5442564937   12.8796283006   22.3340034265
     17  H         2.5163499934    9.9079603389   20.1530251604
     18  N         0.5458103377   10.4593315252   18.3809913365
     19  H         1.3977418351   10.8278119301   17.9727878440
     20  C        -0.4495771605   10.1208749033   17.5265463987
     21  H        -0.1427623114   10.2132173166   16.4687974496
     22  O        -1.5364669787    9.6438194343   17.8459211752
   Point Group: c1    Number of degrees of freedom:    60


   Energy is   -404.592257903

 Hessian updated using BFGS update

 60 Hessian modes will be used to form the next step
  Hessian Eigenvalues:
     0.004829    0.005382    0.006542    0.008376    0.012719    0.017684
     0.018540    0.018773    0.032565    0.035872    0.037094    0.040780
     0.045229    0.047380    0.049615    0.050885    0.053324    0.056645
     0.059904    0.066723    0.071733    0.080440    0.081358    0.083096
     0.083911    0.087325    0.090096    0.091254    0.123520    0.125731
     0.139392    0.157806    0.159509    0.162727    0.178230    0.211586
     0.219439    0.220410    0.269066    0.272591    0.275541    0.282242
     0.284873    0.287568    0.330976    0.334286    0.336970    0.338338
     0.344034    0.345215    0.345849    0.346474    0.347756    0.349704
     0.351650    0.356439    0.377704    0.466693    0.490776    0.946233

 Minimum search - taking simple RFO step
 Searching for Lamda that Minimizes Along All modes
 Value Taken    Lamda =  -0.00233218
 Calculated Step too Large.  Step scaled by  0.951405
 Step Taken.  Stepsize is  0.300000

                             Maximum     Tolerance    Cnvgd?
         Gradient           0.007576      0.000100      NO
         Displacement       0.157845      0.000100      NO
         Energy change     -0.001796      0.000000      NO


 New Cartesian Coordinates Obtained by Inverse Iteration

 Displacement from previous Coordinates is:  0.287145
 ----------------------------------------------------------------
             Standard Nuclear Orientation (Angstroms)
    I     Atom           X                Y                Z
 ----------------------------------------------------------------
    1      C       0.4834745818    11.8609272373    20.4200703815
    2      C       0.4401516345    10.4348709038    19.8418808966
    3      C       1.5238500667     9.5374344137    20.4629083373
    4      C       1.4271674560     9.5202816552    21.9968659079
    5      C       1.4784362211    10.9411721238    22.5786458261
    6      C       0.4027147362    11.8435144147    21.9564932630
    7      H       1.4288759694     8.5235126795    20.0553452442
    8      H      -0.5441839578     9.9998605182    20.0465534422
    9      H       1.4307690109    12.3312638656    20.1115576938
   10      H      -0.3340322450    12.4523975641    19.9909121598
   11      H       0.4876906648     9.0307677775    22.2953002561
   12      H       2.2394190076     8.9111666476    22.4151692567
   13      H       1.3401423608    10.9051760857    23.6676965489
   14      H       2.4740564701    11.3771227347    22.4008147262
   15      H      -0.5925790741    11.4928089993    22.2674088559
   16      H       0.5041102037    12.8680177906    22.3386431452
   17      H       2.5156502783     9.9158708364    20.1670016356
   18      N       0.5518765250    10.4561497695    18.3807396879
   19      H       1.4069157893    10.8209156684    17.9743733748
   20      C      -0.4343048303    10.1054845083    17.5230291068
   21      H      -0.1447776478    10.2392521262    16.4648470507
   22      O      -1.5554232211     9.7020316800    17.8337432030
 ----------------------------------------------------------------
 Nuclear Repulsion Energy =         466.48576337 hartrees
 There are       35 alpha and       35 beta electrons
 Discretize the solute cavity surface with Lebedev spheres
	Using 302 Lebedev grid points for each H atom
	Using 302 Lebedev grid points for other atoms
	Atomic van der Waals radii will be scaled by 1.20
 Remove points where switching function is < 1.0e-08
 Keep 2737 surface tesserae and discard 3907 interior tesserae
 Molecular Surface Area = 182.546 Angst**2
 Applying Cartesian multipole field
    Component          Value
    ---------          -----
     (2,0,0)        1.00000E-11
     (0,2,0)        2.00000E-12
     (0,0,2)       -3.00000E-13
 Nucleus-field energy     =     0.0000000282 hartrees
 Requested basis set is 6-31+G(d)
 There are 71 shells and 197 basis functions
 A cutoff of  1.0D-14 yielded   2411 shell pairs
 There are     18991 function pairs
 Smallest overlap matrix eigenvalue = 2.49E-05
 Guess MOs from SCF MO coefficient file

 -----------------------------------------------------------------------
  General SCF calculation program by
  Eric Jon Sundstrom, Paul Horn, Yuezhi Mao, Dmitri Zuev, Alec White,
  David Stuck, Shaama M.S., Shane Yost, Joonho Lee, David Small,
  Daniel Levine, Susi Lehtola, Hugh Burton, Evgeny Epifanovsky,
  Bang C. Huynh
 -----------------------------------------------------------------------
 Exchange:     0.2000 Hartree-Fock + 0.0800 Slater + 0.7200 B88
 Correlation:  0.1900 VWN1RPA + 0.8100 LYP
 Using Euler-Maclaurin-Lebedev (99,590) quadrature formula
 using 16 threads for integral computing
 -------------------------------------------------------
 OpenMP Integral computing Module                
 Release: version 2.0, May 2017, Q-Chem Inc. Pleasanton 
 -------------------------------------------------------
 A restricted SCF calculation will be
 performed using Roothaan-Hall, DIIS
 SCF converges when DIIS error is below 1.0e-08
 ---------------------------------------
  Cycle       Energy         DIIS error
 ---------------------------------------
    1    -404.5821864053      7.17e-04  Roothaan Step
 ---------------------------------------
  Cycle       Energy         DIIS error
 ---------------------------------------
    1    -404.5907760151      5.91e-04  
    2    -404.5861731154      1.33e-03  
    3    -404.5930210431      9.65e-05  
    4    -404.5930638306      4.65e-05  
    5    -404.5930722015      1.46e-05  
    6    -404.5930730493      4.27e-06  
    7    -404.5930731178      1.32e-06  
    8    -404.5930731260      2.76e-07  
    9    -404.5930731263      1.09e-07  
   10    -404.5930731264      2.31e-08  
   11    -404.5930731264      5.06e-09  Convergence criterion met
 ---------------------------------------
 SCF time:   CPU 814.41s  wall 54.00s 

************** Final PCM Free Energy Summary **************
 G_electrostatic  =      -0.00698316 hartree =      -4.38199700 kcal/mol
 G_cavitation     =       0.00000000 hartree =       0.00000000 kcal/mol
 G_dispersion     =       0.00000000 hartree =       0.00000000 kcal/mol
 G_repulsion      =       0.00000000 hartree =       0.00000000 kcal/mol
 --------------------------------------------------
 Non-electrostatic Free Energy =       0.00000000 hartree =       0.00000000 kcal/mol
 Total                         =      -0.00698316 hartree =      -4.38199700 kcal/mol
 --------------------------------------------------
 SCF Energy (H0 + V/2)                       =    -404.59307313 
 Solute Internal Energy (H0)                 =    -404.58608997 
 Total Free Energy (H0 + V/2 + non-elec)     =    -404.59307313 hartree
                                             = -253885.98528780 kcal/mol
***********************************************************

 SCF   energy in the final basis set =     -404.5930731264
 Total energy in the final basis set =     -404.5930731264
 
 --------------------------------------------------------------
 
                    Orbital Energies (a.u.)
 --------------------------------------------------------------
 
 Alpha MOs
 -- Occupied --
-19.1294 -14.3731 -10.2923 -10.2289 -10.1894 -10.1891 -10.1867 -10.1864
-10.1851  -1.0374  -0.9342  -0.8301  -0.7478  -0.7475  -0.6406  -0.6180
 -0.5960  -0.5684  -0.5290  -0.4863  -0.4641  -0.4481  -0.4427  -0.4206
 -0.4173  -0.4002  -0.3847  -0.3765  -0.3526  -0.3505  -0.3281  -0.3185
 -0.3148  -0.2649  -0.2605
 -- Virtual --
  0.0018   0.0098   0.0112   0.0214   0.0235   0.0359   0.0454   0.0488
  0.0537   0.0651   0.0659   0.0803   0.0850   0.0901   0.0967   0.1002
  0.1069   0.1140   0.1206   0.1312   0.1369   0.1476   0.1511   0.1592
  0.1683   0.1776   0.1784   0.1839   0.1953   0.1982   0.2082   0.2102
  0.2181   0.2213   0.2321   0.2432   0.2452   0.2502   0.2601   0.2655
  0.2795   0.2833   0.2847   0.2854   0.2899   0.3072   0.3089   0.3247
  0.3251   0.3271   0.3579   0.3660   0.3820   0.3843   0.4110   0.4155
  0.4357   0.4543   0.4891   0.6046   0.6343   0.6514   0.6611   0.6632
  0.6801   0.6942   0.7251   0.7287   0.7415   0.7506   0.7727   0.7793
  0.7982   0.8009   0.8155   0.8438   0.8556   0.9061   0.9500   0.9700
  0.9733   0.9863   1.0152   1.0232   1.0277   1.0500   1.0841   1.0931
  1.1121   1.1167   1.1210   1.1451   1.1571   1.1647   1.1784   1.1876
  1.2342   1.2537   1.2877   1.3359   1.3392   1.3686   1.3861   1.4114
  1.4754   1.4875   1.4895   1.5671   1.5709   1.6140   1.6970   1.7258
  1.7319   1.7529   1.7662   1.8046   1.8510   1.8709   1.8975   1.9026
  1.9075   1.9385   1.9739   2.0057   2.0124   2.0413   2.0499   2.0846
  2.0893   2.1276   2.1990   2.2141   2.2757   2.3038   2.3131   2.3409
  2.3959   2.4050   2.4145   2.4196   2.4460   2.5590   2.5829   2.6223
  2.6684   2.6805   2.7013   2.7565   2.7743   2.8297   2.8643   3.0039
  3.1871   4.0885   4.1932   4.2335   4.2892   4.3291   4.4167   4.5971
  4.6019   4.6680
 --------------------------------------------------------------
 
          Ground-State Mulliken Net Atomic Charges

     Atom                 Charge (a.u.)
  ----------------------------------------
      1 C                    -0.261025
      2 C                    -0.477314
      3 C                    -0.269211
      4 C                    -0.436578
      5 C                    -0.385114
      6 C                    -0.444820
      7 H                     0.212420
      8 H                     0.237290
      9 H                     0.201112
     10 H                     0.212736
     11 H                     0.206887
     12 H                     0.200656
     13 H                     0.198456
     14 H                     0.198945
     15 H                     0.207427
     16 H                     0.200645
     17 H                     0.201186
     18 N                    -0.380683
     19 H                     0.418588
     20 C                     0.337973
     21 H                     0.160258
     22 O                    -0.539833
  ----------------------------------------
  Sum of atomic charges =     0.000000

 -----------------------------------------------------------------
                    Cartesian Multipole Moments
 -----------------------------------------------------------------
    Charge (ESU x 10^10)
                -0.0000
    Dipole Moment (Debye)
         X       4.4420      Y       1.7369      Z       1.0902
       Tot       4.8925
[...]

 Mode:                40                     41                     42
 Frequency:      1406.38                1499.53                1503.06
 Force Cnst:      1.7164                 1.4405                 1.4548
 Red. Mass:       1.4728                 1.0873                 1.0929
 IR Active:          YES                    YES                    YES
 IR Intens:        1.109                  0.191                  3.918
 Raman Active:       YES                    YES                    YES
               X      Y      Z        X      Y      Z        X      Y      Z
 C         -0.011  0.057  0.095    0.011  0.040 -0.032    0.002  0.027 -0.001
 C         -0.019 -0.013 -0.101   -0.006  0.014 -0.001    0.001 -0.000 -0.012
 C          0.036 -0.042  0.098   -0.034  0.018  0.030    0.023 -0.017 -0.001
 C         -0.011  0.038  0.019   -0.008 -0.018  0.020   -0.005 -0.012  0.000
 C         -0.008 -0.004 -0.008    0.005 -0.014 -0.001   -0.052 -0.023 -0.048
 C          0.021 -0.033  0.021    0.019 -0.007 -0.020   -0.015  0.006  0.003
 H         -0.090  0.147 -0.365    0.386  0.039 -0.159   -0.196 -0.015  0.059
 H          0.074  0.070  0.481    0.028 -0.062  0.000    0.008  0.007  0.029
 H         -0.024 -0.154 -0.298    0.243 -0.292  0.219    0.101 -0.158  0.041
 H          0.051 -0.165 -0.352   -0.312 -0.277  0.172   -0.131 -0.122  0.054
 H          0.014 -0.032 -0.018   -0.136  0.149 -0.141   -0.065  0.100 -0.016
 H          0.001 -0.117 -0.238    0.170  0.155 -0.096    0.078  0.061 -0.068
 H         -0.062 -0.025 -0.020    0.013  0.008  0.001    0.562  0.252  0.046
 H         -0.022 -0.013 -0.063   -0.024  0.059  0.014    0.071  0.038  0.609
 H         -0.019  0.037 -0.026   -0.019  0.204  0.139    0.035 -0.143 -0.029
 H         -0.087  0.074 -0.239   -0.232 -0.019  0.092    0.128  0.019 -0.080
 H         -0.123  0.072 -0.304    0.050 -0.352 -0.199   -0.051  0.197  0.044
 N          0.004  0.002 -0.034   -0.000  0.000 -0.000   -0.001 -0.000 -0.002
 H          0.065  0.026  0.117    0.002 -0.003  0.001    0.008  0.003  0.020
 C          0.002  0.001  0.028    0.000  0.000  0.000    0.001  0.000  0.002
 H         -0.006 -0.002  0.039   -0.000  0.000  0.000   -0.001 -0.000  0.003
 O          0.004  0.001 -0.005   -0.000 -0.000  0.000   -0.001 -0.000 -0.000
 TransDip  -0.002 -0.005  0.033    0.006 -0.012  0.003    0.047  0.019  0.038

 Mode:                43                     44                     45
 Frequency:      1505.68                1508.29                1520.83
 Force Cnst:      1.4651                 1.4556                 1.5029
 Red. Mass:       1.0968                 1.0859                 1.1029
 IR Active:          YES                    YES                    YES
 IR Intens:        6.368                 12.790                  1.256
 Raman Active:       YES                    YES                    YES
               X      Y      Z        X      Y      Z        X      Y      Z
 C         -0.000  0.030 -0.018   -0.006 -0.032  0.018   -0.001 -0.034  0.015
 C          0.003 -0.006 -0.000    0.001  0.000  0.012   -0.006 -0.002  0.009
 C         -0.020  0.019  0.015   -0.032  0.021  0.020   -0.027  0.023  0.015
 C          0.004  0.045 -0.033   -0.005 -0.035  0.019    0.000  0.036 -0.018
 C          0.002 -0.001  0.001   -0.005 -0.003  0.001   -0.025 -0.012 -0.034
 C         -0.033  0.025  0.031   -0.033  0.023  0.021    0.027 -0.024 -0.018
 H          0.207  0.036 -0.094    0.337  0.029 -0.119    0.287  0.038 -0.116
 H         -0.010  0.023  0.000   -0.006 -0.003 -0.010   -0.008 -0.005 -0.002
 H          0.144 -0.193  0.114   -0.175  0.219 -0.141   -0.167  0.227 -0.117
 H         -0.187 -0.145  0.107    0.218  0.203 -0.105    0.215  0.178 -0.115
 H          0.251 -0.311  0.217   -0.195  0.243 -0.159    0.172 -0.224  0.131
 H         -0.318 -0.255  0.184    0.239  0.216 -0.119   -0.222 -0.181  0.111
 H         -0.028  0.021 -0.002    0.059  0.028  0.014    0.298  0.132  0.012
 H          0.003 -0.011 -0.016    0.004  0.003  0.062    0.041  0.023  0.332
 H          0.058 -0.362 -0.191    0.057 -0.343 -0.167   -0.053  0.281  0.126
 H          0.367  0.056 -0.166    0.353  0.035 -0.130   -0.285 -0.041  0.110
 H          0.044 -0.213 -0.093    0.054 -0.318 -0.152    0.059 -0.287 -0.113
 N         -0.000  0.001  0.000   -0.002 -0.001 -0.005    0.008  0.003  0.015
 H          0.000 -0.003 -0.001    0.003  0.001  0.006   -0.032 -0.013 -0.088
 C          0.000  0.000 -0.000   -0.000 -0.000  0.002   -0.007 -0.003 -0.009
 H          0.000 -0.001 -0.000   -0.000 -0.000  0.003    0.003  0.001 -0.012
 O         -0.000 -0.000  0.000    0.001  0.000 -0.001    0.002  0.001  0.001
 TransDip   0.027 -0.076  0.003    0.092  0.036 -0.058   -0.017 -0.004 -0.031

 Mode:                46                     47                     48
 Frequency:      1547.11                1717.89                2216.84
 Force Cnst:      2.4505                15.2540                 6.9756
 Red. Mass:       1.7376                 8.7729                 2.4092
 IR Active:          YES                    YES                    YES
 IR Intens:      202.417                606.992                102.706
 Raman Active:       YES                    YES                    YES
               X      Y      Z        X      Y      Z        X      Y      Z
 C         -0.003 -0.004  0.009   -0.005 -0.006  0.017   -0.000 -0.000 -0.000
 C          0.059  0.023  0.062    0.014  0.006 -0.031    0.001  0.000  0.002
 C         -0.006  0.002  0.010   -0.008  0.000  0.017   -0.000  0.000 -0.000
 C         -0.002  0.002 -0.011    0.005 -0.004 -0.004   -0.000  0.000  0.000
 C         -0.002 -0.001 -0.001   -0.001 -0.000  0.001   -0.000 -0.000 -0.000
 C          0.001 -0.003 -0.010    0.000  0.006 -0.004    0.000 -0.000  0.000
 H          0.041  0.004  0.000    0.013  0.015 -0.019    0.001 -0.000  0.000
 H         -0.009 -0.011 -0.364    0.053  0.020  0.069    0.001 -0.000  0.011
 H         -0.013 -0.018 -0.062   -0.015 -0.017 -0.030   -0.000  0.000 -0.000
 H          0.031  0.032  0.003    0.023  0.003 -0.017    0.001  0.001  0.000
 H          0.034 -0.029  0.050    0.006  0.004  0.003   -0.000 -0.000 -0.000
 H         -0.044 -0.024  0.034   -0.010  0.006  0.032    0.000 -0.000 -0.000
 H          0.032  0.016  0.003    0.008  0.004  0.000   -0.000 -0.000  0.000
 H          0.003  0.002  0.029   -0.002 -0.001  0.001    0.000  0.000 -0.000
 H          0.001  0.045  0.047    0.007  0.002  0.005   -0.000  0.000 -0.000
 H         -0.047 -0.015  0.031   -0.003 -0.011  0.033   -0.000  0.000 -0.000
 H         -0.023  0.002 -0.065   -0.024  0.002 -0.028   -0.000 -0.000 -0.000
 N         -0.099 -0.038 -0.167   -0.098 -0.036 -0.006    0.003  0.001  0.014
 H          0.290  0.110  0.816   -0.232 -0.082 -0.326   -0.019 -0.007 -0.065
 C          0.045  0.016  0.087    0.627  0.228 -0.032    0.066  0.023 -0.185
 H         -0.029 -0.010  0.126   -0.052 -0.022 -0.435   -0.252 -0.086  0.941
 O          0.004  0.001 -0.013   -0.371 -0.134  0.105   -0.019 -0.007  0.011
 TransDip   0.264  0.099  0.358    0.709  0.262  0.227    0.144  0.050 -0.287

 Mode:                49                     50                     51
 Frequency:      3006.66                3010.94                3013.40
 Force Cnst:      5.6926                 5.7030                 5.7312
 Red. Mass:       1.0688                 1.0677                 1.0712
 IR Active:          YES                    YES                    YES
 IR Intens:       18.669                 39.726                 34.242
 Raman Active:       YES                    YES                    YES
               X      Y      Z        X      Y      Z        X      Y      Z
 C          0.027  0.025 -0.017   -0.036 -0.035  0.022   -0.017 -0.013  0.009
 C          0.002 -0.000 -0.000    0.007  0.003 -0.000    0.002  0.001 -0.000
 C         -0.055 -0.004  0.024   -0.033 -0.002  0.014   -0.016 -0.003  0.006
 C          0.013  0.005 -0.004    0.000 -0.001  0.000    0.021  0.008 -0.004
 C          0.003  0.000  0.001    0.028  0.013  0.007   -0.056 -0.025 -0.007
 C         -0.010 -0.005  0.003    0.005  0.003 -0.002    0.022  0.011 -0.005
 H         -0.037 -0.214 -0.078   -0.021 -0.135 -0.047   -0.007 -0.038 -0.015
 H         -0.019 -0.008  0.004   -0.091 -0.040  0.020   -0.031 -0.014  0.006
 H         -0.448 -0.218  0.141    0.613  0.301 -0.189    0.251  0.124 -0.080
 H          0.125 -0.077  0.057   -0.171  0.110 -0.077   -0.049  0.030 -0.023
 H         -0.150 -0.076  0.048    0.010  0.005 -0.004   -0.236 -0.121  0.075
 H         -0.014  0.016 -0.007   -0.012  0.010 -0.002   -0.028  0.024 -0.019
 H          0.002  0.003 -0.015    0.027  0.009 -0.158   -0.039 -0.015  0.227
 H         -0.030 -0.010  0.007   -0.362 -0.160  0.079    0.710  0.313 -0.150
 H          0.131  0.049 -0.039   -0.061 -0.023  0.018   -0.275 -0.103  0.083
 H         -0.003  0.008  0.002    0.001 -0.015 -0.002    0.000 -0.034 -0.017
 H          0.691  0.271 -0.207    0.422  0.163 -0.124    0.203  0.078 -0.062
 N         -0.000  0.000 -0.000    0.000  0.000 -0.000   -0.000 -0.000 -0.000
 H         -0.001  0.002 -0.001   -0.000 -0.001 -0.005   -0.000 -0.000 -0.002
 C          0.000  0.000 -0.000    0.000  0.000 -0.000    0.000  0.000 -0.000
 H          0.000 -0.000 -0.000   -0.000 -0.000 -0.000   -0.000 -0.000 -0.000
 O         -0.000  0.000  0.000   -0.000 -0.000  0.000   -0.000 -0.000  0.000
 TransDip  -0.084  0.106  0.029   -0.092 -0.066  0.167   -0.162 -0.080 -0.050

 Mode:                52                     53                     54
 Frequency:      3021.36                3023.21                3064.22
 Force Cnst:      5.7191                 5.7160                 6.0439
 Red. Mass:       1.0633                 1.0615                 1.0925
 IR Active:          YES                    YES                    YES
 IR Intens:       17.720                 73.374                 95.601
 Raman Active:       YES                    YES                    YES
               X      Y      Z        X      Y      Z        X      Y      Z
 C         -0.001 -0.010  0.006    0.001 -0.009  0.006   -0.014  0.004 -0.002
 C          0.000 -0.000 -0.000    0.002  0.001 -0.001    0.006  0.002 -0.001
 C          0.007 -0.007 -0.006   -0.005  0.007  0.005   -0.007 -0.015 -0.003
 C          0.025  0.036 -0.023   -0.017 -0.034  0.022   -0.016  0.014 -0.009
 C          0.000 -0.001  0.000   -0.012 -0.005 -0.023    0.025  0.010 -0.072
 C         -0.042  0.007  0.022   -0.038  0.011  0.022   -0.001 -0.024 -0.010
 H          0.013  0.116  0.042   -0.012 -0.110 -0.040    0.015  0.161  0.062
 H         -0.003  0.002  0.000   -0.030 -0.013  0.008   -0.069 -0.030  0.016
 H          0.106  0.049 -0.032    0.083  0.039 -0.025    0.059  0.031 -0.020
 H         -0.096  0.068 -0.045   -0.092  0.065 -0.044    0.103 -0.076  0.052
 H         -0.536 -0.263  0.166    0.463  0.228 -0.141   -0.014 -0.004  0.001
 H          0.239 -0.163  0.110   -0.254  0.178 -0.119    0.208 -0.157  0.103
 H         -0.002  0.005 -0.003   -0.041 -0.014  0.323   -0.092 -0.030  0.830
 H          0.001 -0.001  0.000    0.176  0.078 -0.044   -0.212 -0.094  0.032
 H          0.542  0.213 -0.161    0.487  0.190 -0.142   -0.006 -0.005 -0.001
 H         -0.037 -0.286 -0.103   -0.038 -0.316 -0.115    0.025  0.287  0.108
 H         -0.090 -0.038  0.026    0.073  0.030 -0.022    0.068  0.024 -0.021
 N         -0.000  0.000 -0.000    0.000  0.000  0.000   -0.000 -0.000 -0.000
 H          0.000 -0.001  0.000    0.000  0.000 -0.001    0.001  0.000 -0.001
 C          0.000  0.000 -0.000   -0.000 -0.000 -0.000    0.000  0.000  0.000
 H          0.000 -0.000 -0.000    0.000  0.000  0.000   -0.000  0.000 -0.000
 O         -0.000 -0.000  0.000    0.000  0.000 -0.000   -0.000 -0.000  0.000
 TransDip  -0.056  0.123 -0.001   -0.226 -0.098  0.122   -0.036 -0.032 -0.309

 Mode:                55                     56                     57
 Frequency:      3065.44                3069.52                3071.48
 Force Cnst:      6.0797                 6.1065                 6.0791
 Red. Mass:       1.0981                 1.1000                 1.0937
 IR Active:          YES                    YES                    YES
 IR Intens:       79.918                 68.653                 46.197
 Raman Active:       YES                    YES                    YES
               X      Y      Z        X      Y      Z        X      Y      Z
 C          0.002 -0.007  0.005    0.006 -0.010  0.006   -0.023  0.012 -0.008
 C         -0.000  0.001 -0.000    0.001  0.001  0.001    0.023  0.010 -0.006
 C          0.004 -0.007 -0.005   -0.002  0.016  0.007   -0.023 -0.067 -0.019
 C          0.059 -0.019  0.014   -0.055  0.015 -0.010   -0.016 -0.006  0.004
 C         -0.001 -0.000  0.002   -0.025 -0.011  0.023   -0.012 -0.005  0.022
 C         -0.025 -0.056 -0.012   -0.026 -0.051 -0.009   -0.008 -0.002  0.003
 H          0.011  0.101  0.040   -0.020 -0.198 -0.077    0.074  0.733  0.289
 H         -0.002  0.001  0.000   -0.008 -0.004  0.003   -0.282 -0.125  0.065
 H          0.052  0.024 -0.017    0.049  0.023 -0.016    0.056  0.032 -0.022
 H         -0.077  0.056 -0.040   -0.117  0.086 -0.060    0.223 -0.162  0.115
 H         -0.232 -0.125  0.079    0.249  0.135 -0.083    0.164  0.085 -0.053
 H         -0.476  0.358 -0.241    0.404 -0.305  0.203    0.026 -0.021  0.013
 H          0.003  0.000 -0.021    0.024  0.008 -0.228    0.026  0.008 -0.237
 H          0.007  0.001 -0.001    0.266  0.117 -0.050    0.114  0.051 -0.019
 H          0.253  0.088 -0.080    0.278  0.096 -0.085    0.090  0.033 -0.026
 H          0.050  0.586  0.224    0.043  0.510  0.194   -0.001 -0.005 -0.002
 H         -0.050 -0.021  0.016    0.031  0.014 -0.010    0.206  0.069 -0.069
 N          0.000 -0.000  0.000   -0.000 -0.000 -0.000   -0.000  0.000  0.000
 H          0.000 -0.001  0.000   -0.000  0.000 -0.001    0.004  0.001 -0.002
 C          0.000 -0.000  0.000    0.000  0.000  0.000    0.000  0.000  0.000
 H         -0.000  0.000  0.000   -0.000 -0.000 -0.000    0.000  0.000 -0.000
 O         -0.000  0.000  0.000   -0.000 -0.000 -0.000   -0.000  0.000  0.000
 TransDip   0.114 -0.262  0.010   -0.246 -0.097  0.024   -0.152 -0.155 -0.017

 Mode:                58                     59                     60
 Frequency:      3073.42                3098.09                3587.11
 Force Cnst:      6.0979                 6.1535                 8.1721
 Red. Mass:       1.0957                 1.0881                 1.0779
 IR Active:          YES                    YES                    YES
 IR Intens:       45.007                 33.347                 28.661
 Raman Active:       YES                    YES                    YES
               X      Y      Z        X      Y      Z        X      Y      Z
 C         -0.071  0.029 -0.021   -0.023  0.004 -0.003    0.000  0.000 -0.000
 C          0.010  0.005 -0.003   -0.070 -0.031  0.015   -0.001 -0.000 -0.001
 C          0.014  0.033  0.008   -0.012 -0.019 -0.003    0.000  0.000 -0.000
 C          0.007  0.000  0.000   -0.006 -0.002  0.001    0.000 -0.000 -0.000
 C         -0.003 -0.002  0.006   -0.002 -0.001  0.002    0.000  0.000 -0.000
 C         -0.012 -0.006  0.003   -0.005 -0.003  0.001    0.000  0.000 -0.000
 H         -0.035 -0.352 -0.139    0.017  0.182  0.070   -0.000 -0.001  0.000
 H         -0.124 -0.052  0.028    0.832  0.366 -0.181    0.009  0.004 -0.005
 H          0.217  0.119 -0.078    0.126  0.070 -0.039   -0.000  0.001  0.001
 H          0.628 -0.458  0.326    0.153 -0.114  0.078   -0.000  0.000 -0.000
 H         -0.051 -0.026  0.018    0.053  0.028 -0.020   -0.000 -0.000 -0.000
 H         -0.033  0.025 -0.017    0.014 -0.010  0.006   -0.000  0.000  0.000
 H          0.007  0.004 -0.066    0.002  0.001 -0.021   -0.000 -0.000  0.000
 H          0.030  0.011 -0.005    0.021  0.009 -0.003   -0.000 -0.000  0.000
 H          0.131  0.049 -0.041    0.057  0.021 -0.020   -0.000 -0.000 -0.000
 H          0.001  0.020  0.007    0.002  0.016  0.005   -0.000 -0.000  0.000
 H         -0.125 -0.043  0.040    0.132  0.044 -0.037    0.000 -0.001  0.001
 N          0.000 -0.000  0.000    0.001  0.000  0.001   -0.064 -0.024  0.028
 H          0.002  0.001 -0.001   -0.010 -0.004 -0.001    0.859  0.319 -0.394
 C          0.000  0.000  0.000   -0.002 -0.001 -0.000    0.001  0.000  0.002
 H          0.000  0.000 -0.000    0.000 -0.000  0.001   -0.000 -0.000 -0.003
 O          0.000 -0.000  0.000    0.001  0.000 -0.001    0.001  0.000 -0.000
 TransDip  -0.144  0.158 -0.018   -0.157 -0.072  0.066    0.161  0.058 -0.010

 STANDARD THERMODYNAMIC QUANTITIES AT   298.18 K  AND     1.00 ATM

   This Molecule has  1 Imaginary Frequencies
   Zero point vibrational energy:      121.918 kcal/mol

   Atom    1 Element C  Has Mass   12.00000
   Atom    2 Element C  Has Mass   12.00000
   Atom    3 Element C  Has Mass   12.00000
   Atom    4 Element C  Has Mass   12.00000
   Atom    5 Element C  Has Mass   12.00000
   Atom    6 Element C  Has Mass   12.00000
   Atom    7 Element H  Has Mass    1.00783
   Atom    8 Element H  Has Mass    1.00783
   Atom    9 Element H  Has Mass    1.00783
   Atom   10 Element H  Has Mass    1.00783
   Atom   11 Element H  Has Mass    1.00783
   Atom   12 Element H  Has Mass    1.00783
   Atom   13 Element H  Has Mass    1.00783
   Atom   14 Element H  Has Mass    1.00783
   Atom   15 Element H  Has Mass    1.00783
   Atom   16 Element H  Has Mass    1.00783
   Atom   17 Element H  Has Mass    1.00783
   Atom   18 Element N  Has Mass   14.00307
   Atom   19 Element H  Has Mass    1.00783
   Atom   20 Element C  Has Mass   12.00000
   Atom   21 Element H  Has Mass    2.01410
   Atom   22 Element O  Has Mass   15.99491
   Molecular Mass:   128.106042 amu
   Principal axes and moments of inertia in amu*Bohr^2:
                             1           2           3
    Eigenvalues --      539.54608  2023.94274  2223.80591
          X               0.39174    -0.43169     0.81252
          Y               0.15945     0.90159     0.40213
          Z               0.90615     0.02798    -0.42202
   Rotational Symmetry Number is   1
   The Molecule is an Asymmetric Top
   Translational Enthalpy:        0.889 kcal/mol
   Rotational Enthalpy:           0.889 kcal/mol
   Vibrational Enthalpy:        125.216 kcal/mol
   gas constant (RT):             0.593 kcal/mol
   Translational Entropy:        40.457  cal/mol.K
   Rotational Entropy:           29.275  cal/mol.K
   Vibrational Entropy:          18.177  cal/mol.K

   Total Enthalpy:              127.587 kcal/mol
   Total Entropy:                87.909  cal/mol.K
Archival summary:
1\1\node029\FREQ\ProcedureUnspecified\6-31+G*\11713\ymao90\ThuApr815:36:342021ThuApr815:36:342021\0\\#,FREQ,ProcedureUnspecified,6-31+G*,\\0,1\N\H,1,1.01413\C,1,1.35422,2,117.089\H,3,1.10499,1,112.437,2,0.696231,0\O,3,1.23024,1,125.829,2,-179.414,0\C,1,1.46521,2,117.958,3,-179.097,0\H,6,1.09482,1,105.507,2,-176.743,0\C,6,1.53889,1,110.788,2,-58.8461,0\H,8,1.09722,6,109.404,1,-58.5092,0\H,8,1.10162,6,108.918,1,58.0852,0\C,8,1.53789,6,111.431,1,178.808,0\H,11,1.09769,8,109.708,6,-177.621,0\H,11,1.10026,8,109.103,6,66.0026,0\C,11,1.53686,8,111.665,6,-54.8593,0\H,14,1.09786,11,110.14,8,177.169,0\H,14,1.10088,11,109.266,8,-66.0209,0\C,14,1.53684,11,111.262,8,54.7103,0\H,17,1.09769,14,110.419,11,-177.094,0\H,17,1.10028,14,109.258,11,66.0361,0\C,17,1.53781,14,111.617,11,-54.7449,0\H,20,1.09712,17,110.681,14,176.85,0\H,20,1.10143,17,109.421,14,-65.5021,0\\\@

 Total job time:  885.50s(wall), 12319.43s(cpu) 
 Thu Apr  8 15:36:34 2021

        *************************************************************
        *                                                           *
        *  Thank you very much for using Q-Chem.  Have a nice day.  *
        *                                                           *
        *************************************************************


