                  Welcome to Q-Chem
     A Quantum Leap Into The Future Of Chemistry


 Q-Chem 5.2 (devel), Q-Chem, Inc., Pleasanton, CA (2019)

 Yihan Shao,  Zhengting Gan,  E. Epifanovsky,  A. T. B. Gilbert,  M. Wormit,  
 J. Kussmann,  A. W. Lange,  A. Behn,  Jia Deng,  Xintian Feng,  D. Ghosh,  
 M. Goldey,  P. R. Horn,  L. D. Jacobson,  I. Kaliman,  T. Kus,  A. Landau,  
 Jie Liu,  E. I. Proynov,  R. M. Richard,  R. P. Steele,  E. J. Sundstrom,  
 H. L. Woodcock III,  P. M. Zimmerman,  D. Zuev,  B. Alam,  B. Albrecht,  
 E. Alguire,  S. A. Baeppler,  D. Barton,  Z. Benda,  Y. A. Bernard,  
 E. J. Berquist,  K. B. Bravaya,  H. Burton,  K. Carter-Fenk,  D. Casanova,  
 Chun-Min Chang,  Yunqing Chen,  A. Chien,  K. D. Closser,  M. P. Coons,  
 S. Coriani,  S. Dasgupta,  A. L. Dempwolff,  M. Diedenhofen,  Hainam Do,  
 R. G. Edgar,  Po-Tung Fang,  S. Faraji,  S. Fatehi,  Qingguo Feng,  
 J. Fosso-Tande,  J. Gayvert,  Qinghui Ge,  A. Ghysels,  G. Gidofalvi,  
 J. Gomes,  J. Gonthier,  A. Gunina,  D. Hait,  M. W. D. Hanson-Heine,  
 P. H. P. Harbach,  A. W. Hauser,  M. F. Herbst,  J. E. Herr,  
 E. G. Hohenstein,  Z. C. Holden,  Kerwin Hui,  B. C. Huynh,  T.-C. Jagau,  
 Hyunjun Ji,  B. Kaduk,  K. Khistyaev,  Jaehoon Kim,  P. Klunzinger,  K. Koh,  
 D. Kosenkov,  L. Koulias,  T. Kowalczyk,  C. M. Krauter,  A. Kunitsa,  
 Ka Un Lao,  A. Laurent,  K. V. Lawler,  Joonho Lee,  D. Lefrancois,  
 S. Lehtola,  D. S. Levine,  Yi-Pei Li,  You-Sheng Lin,  Fenglai Liu,  
 Kuan-Yu Liu,  E. Livshits,  M. Loipersberger,  A. Luenser,  P. Manohar,  
 E. Mansoor,  S. F. Manzer,  Shan-Ping Mao,  Yuezhi Mao,  N. Mardirossian,  
 A. V. Marenich,  T. Markovich,  L. A. Martinez-Martinez,  S. A. Maurer,  
 N. J. Mayhall,  S. C. McKenzie,  J.-M. Mewes,  P. Morgante,  A. F. Morrison,  
 J. W. Mullinax,  K. Nanda,  T. S. Nguyen-Beck,  R. Olivares-Amaya,  
 J. A. Parkhill,  S. K. Paul,  F. Pavosevic,  Zheng Pei,  T. M. Perrine,  
 F. Plasser,  P. Pokhilko,  S. Prager,  A. Prociuk,  E. Ramos,  B. Rana,  
 D. R. Rehn,  F. Rob,  M. Scheurer,  M. Schneider,  N. Sergueev,  
 S. M. Sharada,  S. Sharma,  D. W. Small,  T. Stauch,  C. J. Stein,  
 T. Stein,  Yu-Chuan Su,  S. P. Veccham,  Zhen Tao,  A. J. W. Thom,  
 A. Tkatchenko,  T. Tsuchimochi,  N. M. Tubman,  L. Vogt,  M. L. Vidal,  
 O. Vydrov,  M. A. Watson,  J. Wenzel,  M. de Wergifosse,  T. A. Wesolowski,  
 A. White,  J. Witte,  A. Yamada,  Jun Yang,  K. Yao,  S. Yeganeh,  
 S. R. Yost,  Zhi-Qiang You,  A. Zech,  Igor Ying Zhang,  Xing Zhang,  
 Yan Zhao,  Ying Zhu,  B. R. Brooks,  G. K. L. Chan,  C. J. Cramer,  
 M. S. Gordon,  W. J. Hehre,  A. Klamt,  M. W. Schmidt,  C. D. Sherrill,  
 D. G. Truhlar,  A. Aspuru-Guzik,  R. Baer,  A. T. Bell,  N. A. Besley,  
 Jeng-Da Chai,  A. E. DePrince, III,  R. A. DiStasio Jr.,  A. Dreuw,  
 B. D. Dunietz,  T. R. Furlani,  Chao-Ping Hsu,  Yousung Jung,  Jing Kong,  
 D. S. Lambrecht,  WanZhen Liang,  C. Ochsenfeld,  V. A. Rassolov,  
 L. V. Slipchenko,  J. E. Subotnik,  T. Van Voorhis,  J. M. Herbert,  
 A. I. Krylov,  P. M. W. Gill,  M. Head-Gordon

 Contributors to earlier versions of Q-Chem not listed above: 
 R. D. Adamson,  B. Austin,  J. Baker,  G. J. O. Beran,  K. Brandhorst,  
 S. T. Brown,  E. F. C. Byrd,  A. K. Chakraborty,  C.-L. Cheng,  
 Siu Hung Chien,  D. M. Chipman,  D. L. Crittenden,  H. Dachsel,  
 R. J. Doerksen,  A. D. Dutoi,  L. Fusti-Molnar,  W. A. Goddard III,  
 A. Golubeva-Zadorozhnaya,  S. R. Gwaltney,  G. Hawkins,  A. Heyden,  
 S. Hirata,  G. Kedziora,  F. J. Keil,  C. Kelley,  Jihan Kim,  R. A. King,  
 R. Z. Khaliullin,  P. P. Korambath,  W. Kurlancheek,  A. M. Lee,  M. S. Lee,  
 S. V. Levchenko,  Ching Yeh Lin,  D. Liotard,  R. C. Lochan,  I. Lotan,  
 P. E. Maslen,  N. Nair,  D. P. O'Neill,  D. Neuhauser,  E. Neuscamman,  
 C. M. Oana,  R. Olson,  B. Peters,  R. Peverati,  P. A. Pieniazek,  
 Y. M. Rhee,  J. Ritchie,  M. A. Rohrdanz,  E. Rosta,  N. J. Russ,  
 H. F. Schaefer III,  N. E. Schultz,  N. Shenvi,  A. C. Simmonett,  A. Sodt,  
 D. Stuck,  K. S. Thanthiriwatte,  V. Vanovschi,  Tao Wang,  A. Warshel,  
 C. F. Williams,  Q. Wu,  X. Xu,  W. Zhang

 Please cite Q-Chem as follows:
 Y. Shao et al., Mol. Phys. 113, 184-215 (2015)
 DOI: 10.1080/00268976.2014.952696

 Q-Chem 5.2.2 for Intel X86 EM64T Linux

 Parts of Q-Chem use Armadillo 9.800.1 (Horizon Scraper).
 http://arma.sourceforge.net/

 Q-Chem begins on Thu Apr  8 15:08:49 2021  

Host: node029
0

     Scratch files written to /home/ymao90/scratch/probe_b3lyp_THF20210408150848//
Symmetry turned off for PCM/SM12/SMD calculation

Checking the input file for inconsistencies... 	...done.

--------------------------------------------------------------
User input:
--------------------------------------------------------------
$molecule
0 1
C    0.58000    11.83000   20.41000  
C    0.42000    10.41000   19.83000  
C    1.53000    9.53000    20.44000  
C    1.44000    9.53000    21.98000  
C    1.37000    10.92000   22.65000  
C    0.42000    11.90000   21.94000  
H    1.49000    8.50000    20.05000  
H    -0.52000   10.00000   20.20000  
H    1.40000    12.47000   20.08000  
H    -0.28000   12.43000   20.08000  
H    0.54000    9.00000    22.28000  
H    2.32000    8.99000    22.34000  
H    1.27000    10.83000   23.73000  
H    2.37000    11.32000   22.50000  
H    -0.63000   11.62000   22.11000  
H    0.56000    12.91000   22.33000  
H    2.51000    9.84000    20.07000  
N    0.54000    10.41000   18.38000  
H    1.39000    10.78000   17.99000  
C    -0.47000   10.09000   17.50000  
H    -0.16000   10.30000   16.46000  
O    -1.56000   9.66000    17.84000  
$end

$rem
JOBTYPE  OPT
METHOD  B3LYP
BASIS  6-31+G(D)
SYMMETRY  FALSE
SYM_IGNORE  FALSE
MEM_TOTAL  8000
MEM_STATIC  2000
MAX_SUB_FILE_NUM  16000
BASIS_LIN_DEP_THRESH  6
THRESH  14
SCF_CONVERGENCE  8
GEN_SCFMAN  TRUE
SCF_GUESS  SAD
FD_MAT_VEC_PROD  FALSE
XC_GRID  000099000590
NL_GRID  1
MAX_SCF_CYCLES  200
GEOM_OPT_TOL_GRADIENT  100
GEOM_OPT_TOL_DISPLACEMENT  100
GEOM_OPT_TOL_ENERGY  10
SOLVENT_METHOD       PCM
$end

$PCM
THEORY                     CPCM
METHOD                     SWIG
SOLVER                     INVERSION
HPOINTS                    302
HEAVYPOINTS                302
$END

$SOLVENT
DIELECTRIC                 7.43
$END

--------------------------------------------------------------
 ----------------------------------------------------------------
             Standard Nuclear Orientation (Angstroms)
    I     Atom           X                Y                Z
 ----------------------------------------------------------------
    1      C       0.5800000000    11.8300000000    20.4100000000
    2      C       0.4200000000    10.4100000000    19.8300000000
    3      C       1.5300000000     9.5300000000    20.4400000000
    4      C       1.4400000000     9.5300000000    21.9800000000
    5      C       1.3700000000    10.9200000000    22.6500000000
    6      C       0.4200000000    11.9000000000    21.9400000000
    7      H       1.4900000000     8.5000000000    20.0500000000
    8      H      -0.5200000000    10.0000000000    20.2000000000
    9      H       1.4000000000    12.4700000000    20.0800000000
   10      H      -0.2800000000    12.4300000000    20.0800000000
   11      H       0.5400000000     9.0000000000    22.2800000000
   12      H       2.3200000000     8.9900000000    22.3400000000
   13      H       1.2700000000    10.8300000000    23.7300000000
   14      H       2.3700000000    11.3200000000    22.5000000000
   15      H      -0.6300000000    11.6200000000    22.1100000000
   16      H       0.5600000000    12.9100000000    22.3300000000
   17      H       2.5100000000     9.8400000000    20.0700000000
   18      N       0.5400000000    10.4100000000    18.3800000000
   19      H       1.3900000000    10.7800000000    17.9900000000
   20      C      -0.4700000000    10.0900000000    17.5000000000
   21      H      -0.1600000000    10.3000000000    16.4600000000
   22      O      -1.5600000000     9.6600000000    17.8400000000
 ----------------------------------------------------------------
 Nuclear Repulsion Energy =         465.59151226 hartrees
 There are       35 alpha and       35 beta electrons
 Requested basis set is 6-31+G(d)
 There are 71 shells and 197 basis functions

 Total QAlloc Memory Limit   8000 MB
 Mega-Array Size      1956 MB
 MEM_STATIC part      2000 MB
 Discretize the solute cavity surface with Lebedev spheres
	Using 302 Lebedev grid points for each H atom
	Using 302 Lebedev grid points for other atoms
	Atomic van der Waals radii will be scaled by 1.20
 Remove points where switching function is < 1.0e-08
 Keep 2715 surface tesserae and discard 3929 interior tesserae
 Molecular Surface Area = 182.762 Angst**2
 A cutoff of  1.0D-14 yielded   2410 shell pairs
 There are     18990 function pairs
 Smallest overlap matrix eigenvalue = 2.31E-05

 Scale SEOQF with 1.000000e-01/1.000000e-02/1.000000e-03

 Standard Electronic Orientation quadrupole field applied
 Nucleus-field energy     =     0.0000000281 hartrees
 Guess from superposition of atomic densities
 Warning:  Energy on first SCF cycle will be non-variational
 SAD guess density has 70.000000 electrons

 -----------------------------------------------------------------------
  General SCF calculation program by
  Eric Jon Sundstrom, Paul Horn, Yuezhi Mao, Dmitri Zuev, Alec White,
  David Stuck, Shaama M.S., Shane Yost, Joonho Lee, David Small,
  Daniel Levine, Susi Lehtola, Hugh Burton, Evgeny Epifanovsky,
  Bang C. Huynh
 -----------------------------------------------------------------------
 Exchange:     0.2000 Hartree-Fock + 0.0800 Slater + 0.7200 B88
 Correlation:  0.1900 VWN1RPA + 0.8100 LYP
 Using Euler-Maclaurin-Lebedev (99,590) quadrature formula
 using 16 threads for integral computing
 -------------------------------------------------------
 OpenMP Integral computing Module                
 Release: version 2.0, May 2017, Q-Chem Inc. Pleasanton 
 -------------------------------------------------------
 A restricted SCF calculation will be
 performed using DIIS
 SCF converges when DIIS error is below 1.0e-08
 ---------------------------------------
  Cycle       Energy         DIIS error
 ---------------------------------------
    1    -406.2393373780      5.09e-02  
    2    -404.3880626657      6.43e-03  
    3    -404.1627433372      9.99e-03  
    4    -404.5641502098      2.02e-03  
    5    -404.5793515581      5.43e-04  
    6    -404.5805005027      1.58e-04  
    7    -404.5805974077      5.64e-05  
    8    -404.5806108359      9.98e-06  
    9    -404.5806112496      2.45e-06  
   10    -404.5806112748      5.64e-07  
   11    -404.5806112761      1.95e-07  
   12    -404.5806112763      2.49e-08  
   13    -404.5806112763      6.24e-09  Convergence criterion met
 ---------------------------------------
 SCF time:   CPU 907.79s  wall 68.00s 

************** Final PCM Free Energy Summary **************
 G_electrostatic  =      -0.01504930 hartree =      -9.44357970 kcal/mol
 G_cavitation     =       0.00000000 hartree =       0.00000000 kcal/mol
 G_dispersion     =       0.00000000 hartree =       0.00000000 kcal/mol
 G_repulsion      =       0.00000000 hartree =       0.00000000 kcal/mol
 --------------------------------------------------
 Non-electrostatic Free Energy =       0.00000000 hartree =       0.00000000 kcal/mol
 Total                         =      -0.01504930 hartree =      -9.44357970 kcal/mol
 --------------------------------------------------
 SCF Energy (H0 + V/2)                       =    -404.58061128 
 Solute Internal Energy (H0)                 =    -404.56556197 
 Total Free Energy (H0 + V/2 + non-elec)     =    -404.58061128 hartree
                                             = -253878.16535882 kcal/mol
***********************************************************

 SCF   energy in the final basis set =     -404.5806112763
 Total energy in the final basis set =     -404.5806112763
 
 --------------------------------------------------------------
 
                    Orbital Energies (a.u.)
 --------------------------------------------------------------
 
 Alpha MOs
 -- Occupied --
-19.1389 -14.3688 -10.2967 -10.2288 -10.1815 -10.1812 -10.1811 -10.1785
-10.1752  -1.0493  -0.9301  -0.8222  -0.7435  -0.7410  -0.6397  -0.6117
 -0.5940  -0.5619  -0.5296  -0.4854  -0.4605  -0.4451  -0.4413  -0.4233
 -0.4195  -0.3990  -0.3790  -0.3679  -0.3495  -0.3464  -0.3213  -0.3064
 -0.3048  -0.2749  -0.2567
 -- Virtual --
  0.0053   0.0085   0.0165   0.0249   0.0251   0.0404   0.0483   0.0498
  0.0576   0.0676   0.0696   0.0833   0.0862   0.0954   0.1017   0.1042
  0.1111   0.1160   0.1296   0.1338   0.1400   0.1501   0.1548   0.1642
  0.1706   0.1794   0.1813   0.1852   0.2005   0.2027   0.2092   0.2110
  0.2194   0.2256   0.2340   0.2433   0.2501   0.2548   0.2646   0.2703
  0.2756   0.2798   0.2835   0.2911   0.3032   0.3051   0.3152   0.3269
  0.3338   0.3385   0.3499   0.3736   0.3783   0.3815   0.4155   0.4266
  0.4383   0.4548   0.4866   0.6115   0.6437   0.6598   0.6629   0.6733
  0.6910   0.7040   0.7247   0.7314   0.7479   0.7521   0.7689   0.7782
  0.7946   0.8066   0.8288   0.8381   0.8673   0.8981   0.9495   0.9706
  0.9854   0.9971   1.0241   1.0271   1.0401   1.0606   1.0750   1.1122
  1.1187   1.1268   1.1336   1.1414   1.1445   1.1638   1.1747   1.1905
  1.2408   1.2448   1.2866   1.3173   1.3282   1.3710   1.4078   1.4180
  1.4684   1.4875   1.4957   1.5583   1.5843   1.6177   1.6705   1.7070
  1.7365   1.7599   1.7771   1.7789   1.8262   1.8690   1.8907   1.9000
  1.9231   1.9571   1.9734   2.0042   2.0056   2.0383   2.0707   2.0837
  2.0986   2.1393   2.1863   2.2097   2.2821   2.3026   2.3153   2.3418
  2.3868   2.3962   2.4362   2.4461   2.4605   2.5597   2.5719   2.6127
  2.6782   2.6949   2.7038   2.7510   2.7764   2.8330   2.8732   3.0086
  3.1834   4.0826   4.1862   4.2285   4.2964   4.3443   4.4127   4.5894
  4.6094   4.6581
 --------------------------------------------------------------
 
          Ground-State Mulliken Net Atomic Charges

     Atom                 Charge (a.u.)
  ----------------------------------------
      1 C                    -0.333685
      2 C                    -0.439817
      3 C                    -0.292608
      4 C                    -0.446333
      5 C                    -0.358133
      6 C                    -0.448890
      7 H                     0.210185
      8 H                     0.238142
      9 H                     0.221026
     10 H                     0.211502
     11 H                     0.206448
     12 H                     0.201724
     13 H                     0.201614
     14 H                     0.198001
     15 H                     0.203289
     16 H                     0.206193
     17 H                     0.211856
     18 N                    -0.386772
     19 H                     0.446487
     20 C                     0.341366
     21 H                     0.181928
     22 O                    -0.573524
  ----------------------------------------
  Sum of atomic charges =     0.000000

 -----------------------------------------------------------------
                    Cartesian Multipole Moments
 -----------------------------------------------------------------
    Charge (ESU x 10^10)
                 0.0000
    Dipole Moment (Debye)
         X       4.8433      Y       2.1466      Z       0.7334
       Tot       5.3482
    Quadrupole Moments (Debye-Ang)
        XX     -61.0382     XY      48.2792     YY     -13.2419
        XZ      87.2011     YZ      46.6737     ZZ     -24.8529
    Octopole Moments (Debye-Ang^2)
       XXX     -72.2478    XXY    -634.1014    XYY     454.2199
       YYY   -1122.8287    XXZ   -1221.2290    XYZ     870.2217
       YYZ    -273.7780    XZZ    1541.9488    YZZ     448.1077
       ZZZ   -2421.6869
    Hexadecapole Moments (Debye-Ang^3)
      XXXX    -514.8187   XXXY    -773.7674   XXYY   -6739.5708
      XYYY    3944.0702   YYYY  -28845.8403   XXXZ   -1708.1636
      XXYZ  -12737.9101   XYYZ    8065.2118   YYYZ  -23217.0133
      XXZZ  -24749.6396   XYZZ   15391.2780   YYZZ  -11725.7683
      XZZZ   26350.8442   YZZZ  -12587.7944   ZZZZ -111771.1234
 -----------------------------------------------------------------
 Calculating analytic gradient of the SCF energy
 Gradient of SCF Energy
            1           2           3           4           5           6
    1   0.0289624  -0.0361622  -0.0049827   0.0012457  -0.0249918   0.0071043
    2  -0.0369624  -0.0031980   0.0080644   0.0020407  -0.0024396   0.0214363
    3  -0.0008907  -0.0126989   0.0045733  -0.0018082   0.0182094  -0.0080961
            7           8           9          10          11          12
    1   0.0099981   0.0081712  -0.0119110   0.0023088   0.0031883   0.0041241
    2  -0.0008785  -0.0006647   0.0178544   0.0031770   0.0105779   0.0020951
    3  -0.0045776   0.0137161   0.0039517   0.0088893   0.0002683  -0.0065546
           13          14          15          16          17          18
    1   0.0095371  -0.0074200  -0.0014452   0.0006210  -0.0004341   0.0217312
    2  -0.0003486  -0.0079338  -0.0008260  -0.0007512  -0.0102972   0.0022460
    3  -0.0020588  -0.0031496  -0.0080521   0.0035240  -0.0062311   0.0145757
           19          20          21          22
    1   0.0048003  -0.0409169   0.0082742   0.0181974
    2   0.0017822  -0.0179189   0.0062189   0.0067258
    3  -0.0019719  -0.0106282  -0.0022091   0.0012193
 Max gradient component =       4.092E-02
 RMS gradient           =       1.246E-02
 Computing fast CPCM-SWIG gradient
 Updating gradient with PCM contributions...
 -- total gradient after adding PCM contribution --
---------------------------------------------------
  Atom         X              Y              Z     
---------------------------------------------------
   1       0.031503      -0.028759      -0.003693
   2      -0.035306      -0.003210      -0.014975
   3       0.002405       0.006749       0.000965
   4       0.001063      -0.001775       0.001069
   5      -0.019892      -0.001066       0.020785
   6       0.003831       0.024017      -0.005456
   7       0.009009       0.000251      -0.003959
   8       0.006774      -0.001247       0.012254
   9      -0.015362       0.014022       0.005453
  10       0.002846       0.001906       0.008790
  11       0.004656       0.010887      -0.000173
  12       0.001690       0.002942      -0.006901
  13       0.009305      -0.000140      -0.004177
  14      -0.009767      -0.008655      -0.002360
  15       0.000098      -0.000308      -0.007852
  16      -0.000086      -0.003458       0.002630
  17      -0.004825      -0.011485      -0.003981
  18       0.030541       0.006638       0.011252
  19      -0.006359      -0.003174       0.002906
  20      -0.034919      -0.015594      -0.015619
  21       0.004595       0.004433       0.000925
  22       0.018204       0.007025       0.002116
---------------------------------------------------
 Number of fixed atoms: 0
 Gradient time:  CPU 125.86 s  wall 11.52 s
 Geometry Optimization Parameters
   NAtoms,    NIC,     NZ,  NCons,   NDum,   NFix, NCnnct, MaxDiis
       22     172       0       0       0       0       0       0


** GEOMETRY OPTIMIZATION IN DELOCALIZED INTERNAL COORDINATES **
   Searching for a Minimum

   Optimization Cycle:   1

                       Coordinates (Angstroms)
     ATOM                X               Y               Z
      1  C         0.5800000000   11.8300000000   20.4100000000
      2  C         0.4200000000   10.4100000000   19.8300000000
      3  C         1.5300000000    9.5300000000   20.4400000000
      4  C         1.4400000000    9.5300000000   21.9800000000
      5  C         1.3700000000   10.9200000000   22.6500000000
      6  C         0.4200000000   11.9000000000   21.9400000000
      7  H         1.4900000000    8.5000000000   20.0500000000
      8  H        -0.5200000000   10.0000000000   20.2000000000
      9  H         1.4000000000   12.4700000000   20.0800000000
     10  H        -0.2800000000   12.4300000000   20.0800000000
     11  H         0.5400000000    9.0000000000   22.2800000000
     12  H         2.3200000000    8.9900000000   22.3400000000
     13  H         1.2700000000   10.8300000000   23.7300000000
     14  H         2.3700000000   11.3200000000   22.5000000000
     15  H        -0.6300000000   11.6200000000   22.1100000000
     16  H         0.5600000000   12.9100000000   22.3300000000
     17  H         2.5100000000    9.8400000000   20.0700000000
     18  N         0.5400000000   10.4100000000   18.3800000000
     19  H         1.3900000000   10.7800000000   17.9900000000
     20  C        -0.4700000000   10.0900000000   17.5000000000
     21  H        -0.1600000000   10.3000000000   16.4600000000
     22  O        -1.5600000000    9.6600000000   17.8400000000
   Point Group: c1    Number of degrees of freedom:    60


   Energy is   -404.580611276


 Attempting to generate delocalized internal coordinates
 Initial Hessian constructed with Jon Baker's OPTIMIZE code

 60 Hessian modes will be used to form the next step
  Hessian Eigenvalues:
     0.004850    0.005407    0.006560    0.008376    0.012775    0.018054
     0.018651    0.018677    0.019042    0.033610    0.034591    0.037072
     0.041066    0.046592    0.048162    0.049493    0.050142    0.053390
     0.056519    0.060833    0.066651    0.080982    0.082752    0.082982
     0.085572    0.087172    0.089974    0.096067    0.124538    0.124890
     0.139174    0.159119    0.160000    0.162683    0.172956    0.213045
     0.220010    0.220236    0.268980    0.271008    0.272947    0.282129
     0.284145    0.285211    0.330973    0.334522    0.336922    0.337577
     0.344187    0.345335    0.346174    0.346647    0.347861    0.350043
     0.351115    0.351977    0.376029    0.466943    0.496029    0.953470

 Minimum search - taking simple RFO step
 Searching for Lamda that Minimizes Along All modes
 Value Taken    Lamda =  -0.02457840
 Calculated Step too Large.  Step scaled by  0.538615
 Step Taken.  Stepsize is  0.300000

                             Maximum     Tolerance    Cnvgd?
         Gradient           0.022002      0.000100      NO
         Displacement       0.183085      0.000100      NO
         Energy change     *********      0.000000      NO


 New Cartesian Coordinates Obtained by Inverse Iteration

 Displacement from previous Coordinates is:  0.266689
 ----------------------------------------------------------------
             Standard Nuclear Orientation (Angstroms)
    I     Atom           X                Y                Z
 ----------------------------------------------------------------
    1      C       0.5519186835    11.8427048803    20.4041496577
    2      C       0.4312273998    10.4215008145    19.8307935010
    3      C       1.5294805993     9.5323586626    20.4535701939
    4      C       1.4378423119     9.5176887268    21.9896524276
    5      C       1.3991215992    10.9216002947    22.6314208030
    6      C       0.4158874130    11.8824352735    21.9422204388
    7      H       1.4706556486     8.5050759232    20.0606822838
    8      H      -0.5266236631    10.0120841678    20.1556385399
    9      H       1.4049839343    12.4407193172    20.0666611417
   10      H      -0.3034974929    12.4344924645    20.0392123888
   11      H       0.5318152527     8.9811430957    22.2851821551
   12      H       2.3065908993     8.9680177306    22.3674620357
   13      H       1.2797083486    10.8437645082    23.7142211959
   14      H       2.4023765811    11.3384231913    22.4835880623
   15      H      -0.6236343123    11.5916201727    22.1584475890
   16      H       0.5566851682    12.8966064823    22.3259470843
   17      H       2.5177677129     9.8610522149    20.1083479473
   18      N       0.5404272744    10.4258250773    18.3795341202
   19      H       1.3923287843    10.7969524746    17.9833111543
   20      C      -0.4653670462    10.1063455448    17.5098592600
   21      H      -0.1583907975    10.2837065882    16.4639747816
   22      O      -1.5613042991     9.6658823945    17.8361232381
 ----------------------------------------------------------------
 Nuclear Repulsion Energy =         465.46802643 hartrees
 There are       35 alpha and       35 beta electrons
 Discretize the solute cavity surface with Lebedev spheres
	Using 302 Lebedev grid points for each H atom
	Using 302 Lebedev grid points for other atoms
	Atomic van der Waals radii will be scaled by 1.20
 Remove points where switching function is < 1.0e-08
 Keep 2737 surface tesserae and discard 3907 interior tesserae
 Molecular Surface Area = 182.929 Angst**2
 Applying Cartesian multipole field
    Component          Value
    ---------          -----
     (2,0,0)        1.00000E-11
     (0,2,0)        2.00000E-12
     (0,0,2)       -3.00000E-13
 Nucleus-field energy     =     0.0000000281 hartrees
 Requested basis set is 6-31+G(d)
 There are 71 shells and 197 basis functions
 A cutoff of  1.0D-14 yielded   2411 shell pairs
 There are     18991 function pairs
 Smallest overlap matrix eigenvalue = 2.36E-05
 Guess MOs from SCF MO coefficient file

 -----------------------------------------------------------------------
  General SCF calculation program by
  Eric Jon Sundstrom, Paul Horn, Yuezhi Mao, Dmitri Zuev, Alec White,
  David Stuck, Shaama M.S., Shane Yost, Joonho Lee, David Small,
  Daniel Levine, Susi Lehtola, Hugh Burton, Evgeny Epifanovsky,
  Bang C. Huynh
 -----------------------------------------------------------------------
 Exchange:     0.2000 Hartree-Fock + 0.0800 Slater + 0.7200 B88
 Correlation:  0.1900 VWN1RPA + 0.8100 LYP
 Using Euler-Maclaurin-Lebedev (99,590) quadrature formula
 using 16 threads for integral computing
 -------------------------------------------------------
 OpenMP Integral computing Module                
 Release: version 2.0, May 2017, Q-Chem Inc. Pleasanton 
 -------------------------------------------------------
 A restricted SCF calculation will be
 performed using Roothaan-Hall, DIIS
 SCF converges when DIIS error is below 1.0e-08
 ---------------------------------------
  Cycle       Energy         DIIS error
 ---------------------------------------
    1    -404.5746483437      6.60e-04  Roothaan Step
 ---------------------------------------
  Cycle       Energy         DIIS error
 ---------------------------------------
    1    -404.5832258970      1.08e-03  
    2    -404.5700934191      2.36e-03  
    3    -404.5911546509      1.79e-04  
    4    -404.5912746942      9.84e-05  
    5    -404.5913118242      3.04e-05  
    6    -404.5913155387      7.90e-06  
    7    -404.5913157861      2.44e-06  
    8    -404.5913158145      4.64e-07  
    9    -404.5913158154      2.07e-07  
   10    -404.5913158156      3.90e-08  
   11    -404.5913158156      1.09e-08  
   12    -404.5913158156      2.65e-09  Convergence criterion met
 ---------------------------------------
 SCF time:   CPU 906.69s  wall 63.00s 

************** Final PCM Free Energy Summary **************
 G_electrostatic  =      -0.01537355 hartree =      -9.64704706 kcal/mol
 G_cavitation     =       0.00000000 hartree =       0.00000000 kcal/mol
 G_dispersion     =       0.00000000 hartree =       0.00000000 kcal/mol
 G_repulsion      =       0.00000000 hartree =       0.00000000 kcal/mol
 --------------------------------------------------
 Non-electrostatic Free Energy =       0.00000000 hartree =       0.00000000 kcal/mol
 Total                         =      -0.01537355 hartree =      -9.64704706 kcal/mol
 --------------------------------------------------
 SCF Energy (H0 + V/2)                       =    -404.59131582 
 Solute Internal Energy (H0)                 =    -404.57594227 
 Total Free Energy (H0 + V/2 + non-elec)     =    -404.59131582 hartree
                                             = -253884.88255862 kcal/mol
***********************************************************

 SCF   energy in the final basis set =     -404.5913158156
 Total energy in the final basis set =     -404.5913158156
 
 --------------------------------------------------------------
 
                    Orbital Energies (a.u.)
 --------------------------------------------------------------
 
 Alpha MOs
 -- Occupied --
-19.1374 -14.3702 -10.2958 -10.2274 -10.1827 -10.1823 -10.1815 -10.1799
-10.1774  -1.0460  -0.9318  -0.8222  -0.7424  -0.7417  -0.6391  -0.6121
 -0.5935  -0.5621  -0.5281  -0.4851  -0.4600  -0.4442  -0.4398  -0.4216
 -0.4195  -0.3977  -0.3785  -0.3713  -0.3491  -0.3455  -0.3208  -0.3099
 -0.3075  -0.2733  -0.2585
 -- Virtual --
  0.0059   0.0088   0.0162   0.0246   0.0251   0.0403   0.0483   0.0493
  0.0577   0.0677   0.0697   0.0834   0.0863   0.0956   0.1011   0.1042
  0.1109   0.1161   0.1280   0.1336   0.1402   0.1504   0.1547   0.1628
  0.1705   0.1793   0.1812   0.1855   0.2004   0.2017   0.2101   0.2106
  0.2209   0.2259   0.2334   0.2447   0.2496   0.2549   0.2636   0.2711
  0.2766   0.2804   0.2835   0.2899   0.3013   0.3051   0.3142   0.3262
  0.3328   0.3352   0.3522   0.3737   0.3796   0.3825   0.4158   0.4230
  0.4380   0.4535   0.4854   0.6099   0.6421   0.6591   0.6632   0.6714
  0.6883   0.7018   0.7252   0.7309   0.7476   0.7517   0.7703   0.7786
  0.7963   0.8047   0.8257   0.8375   0.8633   0.9023   0.9506   0.9717
  0.9834   0.9950   1.0220   1.0271   1.0372   1.0588   1.0773   1.1082
  1.1186   1.1254   1.1293   1.1419   1.1560   1.1670   1.1766   1.1845
  1.2409   1.2451   1.2840   1.3204   1.3281   1.3691   1.4103   1.4122
  1.4651   1.4867   1.4949   1.5601   1.5826   1.6191   1.6815   1.7174
  1.7356   1.7598   1.7735   1.7833   1.8284   1.8679   1.8967   1.9016
  1.9210   1.9466   1.9723   1.9977   2.0079   2.0378   2.0675   2.0834
  2.1072   2.1228   2.1924   2.2080   2.2793   2.3026   2.3118   2.3424
  2.3944   2.3980   2.4286   2.4314   2.4538   2.5584   2.5740   2.6161
  2.6832   2.6892   2.7017   2.7526   2.7724   2.8355   2.8687   3.0040
  3.1844   4.0854   4.1873   4.2280   4.2944   4.3398   4.4141   4.5935
  4.6054   4.6623
 --------------------------------------------------------------
 
          Ground-State Mulliken Net Atomic Charges

     Atom                 Charge (a.u.)
  ----------------------------------------
      1 C                    -0.318584
      2 C                    -0.425932
      3 C                    -0.298833
      4 C                    -0.446406
      5 C                    -0.365129
      6 C                    -0.450955
      7 H                     0.210240
      8 H                     0.234509
      9 H                     0.217160
     10 H                     0.210471
     11 H                     0.206528
     12 H                     0.202492
     13 H                     0.200612
     14 H                     0.198549
     15 H                     0.204770
     16 H                     0.204905
     17 H                     0.210763
     18 N                    -0.383601
     19 H                     0.445737
     20 C                     0.343991
     21 H                     0.180058
     22 O                    -0.581345
  ----------------------------------------
  Sum of atomic charges =     0.000000

 -----------------------------------------------------------------
                    Cartesian Multipole Moments
 -----------------------------------------------------------------
    Charge (ESU x 10^10)
                 0.0000
    Dipole Moment (Debye)
         X       4.9530      Y       2.1417      Z       0.8597
       Tot       5.4643
    Quadrupole Moments (Debye-Ang)
        XX     -61.0691     XY      49.4235     YY     -13.3941
        XZ      89.2882     YZ      47.6647     ZZ     -20.0092
    Octopole Moments (Debye-Ang^2)
       XXX     -71.9713    XXY    -634.1206    XYY     466.0411
       YYY   -1127.4362    XXZ   -1221.3940    XYZ     891.9039
       YYZ    -267.8848    XZZ    1582.0260    YZZ     487.2879
       ZZZ   -2281.3629
    Hexadecapole Moments (Debye-Ang^3)
      XXXX    -517.2366   XXXY    -769.2243   XXYY   -6736.9257
      XYYY    4064.3150   YYYY  -28961.1070   XXXZ   -1703.8699
      XXYZ  -12732.6426   XYYZ    8287.8540   YYYZ  -23240.0162
      XXZZ  -24744.2231   XYZZ   15805.2380   YYZZ  -11456.2653
      XZZZ   27124.8466   YZZZ  -11450.4479   ZZZZ -108134.2944
 -----------------------------------------------------------------
 Calculating analytic gradient of the SCF energy
 Gradient of SCF Energy
            1           2           3           4           5           6
    1   0.0196368  -0.0232829  -0.0074808   0.0013934  -0.0200782   0.0054223
    2  -0.0288256  -0.0006923   0.0066612   0.0008439  -0.0017316   0.0120336
    3  -0.0005935  -0.0106441   0.0073111  -0.0026835   0.0107513  -0.0041724
            7           8           9          10          11          12
    1   0.0067269   0.0060085  -0.0062573  -0.0002565   0.0005257   0.0040571
    2  -0.0019882   0.0005743   0.0141202   0.0035890   0.0045069   0.0013216
    3  -0.0026282   0.0098828   0.0002377   0.0038955   0.0000741  -0.0035103
           13          14          15          16          17          18
    1   0.0065680  -0.0012696  -0.0023407   0.0012526   0.0026710   0.0103124
    2  -0.0010140  -0.0028621  -0.0006559   0.0001639  -0.0058858  -0.0006966
    3  -0.0001562  -0.0021446  -0.0043664   0.0023005  -0.0050864   0.0115243
           19          20          21          22
    1   0.0083417  -0.0314092   0.0070521   0.0124068
    2   0.0034303  -0.0097725   0.0035952   0.0032846
    3  -0.0028827  -0.0046084  -0.0023461  -0.0001543
 Max gradient component =       3.141E-02
 RMS gradient           =       8.774E-03
 Computing fast CPCM-SWIG gradient
 Updating gradient with PCM contributions...
 -- total gradient after adding PCM contribution --
---------------------------------------------------
  Atom         X              Y              Z     
---------------------------------------------------
   1       0.022868      -0.021323      -0.003829
   2      -0.022641      -0.000783      -0.013066
   3       0.000009       0.005498       0.003866
   4       0.001231      -0.003286       0.000314
   5      -0.015004      -0.000075       0.013565
   6       0.002052       0.014805      -0.001435
   7       0.005926      -0.000696      -0.002085
   8       0.004438      -0.000095       0.008505
   9      -0.010166       0.010770       0.001996
  10       0.000343       0.002328       0.004075
  11       0.002041       0.005036      -0.000371
  12       0.001599       0.002270      -0.004037
  13       0.006481      -0.000812      -0.002310
  14      -0.003868      -0.003823      -0.001384
  15      -0.000776      -0.000095      -0.004427
  16       0.000509      -0.002467       0.001476
  17      -0.001830      -0.007391      -0.003056
  18       0.019308       0.003806       0.008351
  19      -0.002956      -0.001619       0.001971
  20      -0.025369      -0.007521      -0.009351
  21       0.003361       0.001933       0.000634
  22       0.012445       0.003541       0.000597
---------------------------------------------------
 Number of fixed atoms: 0
 Gradient time:  CPU 127.53 s  wall 12.88 s
 Geometry Optimization Parameters
   NAtoms,    NIC,     NZ,  NCons,   NDum,   NFix, NCnnct, MaxDiis
       22     172       0       0       0       0       0       0

 Cartesian Hessian Update
 Hessian updated using BFGS update


** GEOMETRY OPTIMIZATION IN DELOCALIZED INTERNAL COORDINATES **
   Searching for a Minimum

   Optimization Cycle:   2

                       Coordinates (Angstroms)
     ATOM                X               Y               Z
      1  C         0.5519186835   11.8427048803   20.4041496577
      2  C         0.4312273998   10.4215008145   19.8307935010
      3  C         1.5294805993    9.5323586626   20.4535701939
      4  C         1.4378423119    9.5176887268   21.9896524276
      5  C         1.3991215992   10.9216002947   22.6314208030
      6  C         0.4158874130   11.8824352735   21.9422204388
      7  H         1.4706556486    8.5050759232   20.0606822838
      8  H        -0.5266236631   10.0120841678   20.1556385399
      9  H         1.4049839343   12.4407193172   20.0666611417
     10  H        -0.3034974929   12.4344924645   20.0392123888
     11  H         0.5318152527    8.9811430957   22.2851821551
     12  H         2.3065908993    8.9680177306   22.3674620357
     13  H         1.2797083486   10.8437645082   23.7142211959
     14  H         2.4023765811   11.3384231913   22.4835880623
     15  H        -0.6236343123   11.5916201727   22.1584475890
     16  H         0.5566851682   12.8966064823   22.3259470843
     17  H         2.5177677129    9.8610522149   20.1083479473
     18  N         0.5404272744   10.4258250773   18.3795341202
     19  H         1.3923287843   10.7969524746   17.9833111543
     20  C        -0.4653670462   10.1063455448   17.5098592600
     21  H        -0.1583907975   10.2837065882   16.4639747816
     22  O        -1.5613042991    9.6658823945   17.8361232381
   Point Group: c1    Number of degrees of freedom:    60


   Energy is   -404.591315816

 Hessian updated using BFGS update

 60 Hessian modes will be used to form the next step
  Hessian Eigenvalues:
     0.004847    0.005415    0.006557    0.008377    0.012772    0.017375
     0.018564    0.018772    0.019907    0.033179    0.035893    0.037092
     0.041507    0.046152    0.047347    0.049688    0.051188    0.053460
     0.057143    0.060695    0.066923    0.080927    0.082147    0.083337
     0.084308    0.087378    0.090016    0.093078    0.123587    0.125511
     0.139276    0.158163    0.159374    0.162703    0.178972    0.211955
     0.220156    0.220232    0.269244    0.272590    0.275338    0.281722
     0.284853    0.286939    0.330961    0.334412    0.336963    0.338667
     0.344126    0.345301    0.345902    0.346569    0.347717    0.349715
     0.351689    0.356275    0.376857    0.466177    0.485720    0.942553

 Minimum search - taking simple RFO step
 Searching for Lamda that Minimizes Along All modes
 Value Taken    Lamda =  -0.01323264
 Calculated Step too Large.  Step scaled by  0.583856
 Step Taken.  Stepsize is  0.300000

                             Maximum     Tolerance    Cnvgd?
         Gradient           0.014756      0.000100      NO
         Displacement       0.165242      0.000100      NO
         Energy change     -0.010705      0.000000      NO


 New Cartesian Coordinates Obtained by Inverse Iteration

 Displacement from previous Coordinates is:  0.249945
 ----------------------------------------------------------------
             Standard Nuclear Orientation (Angstroms)
    I     Atom           X                Y                Z
 ----------------------------------------------------------------
    1      C       0.5203938673    11.8495737663    20.4052099125
    2      C       0.4385085097    10.4248324802    19.8364089186
    3      C       1.5294459766     9.5343448701    20.4606465711
    4      C       1.4355802416     9.5141630069    21.9941485403
    5      C       1.4269617480    10.9260556311    22.6092708873
    6      C       0.4120752443    11.8675948408    21.9430536310
    7      H       1.4535153283     8.5131316038    20.0598803399
    8      H      -0.5323967908    10.0063088076    20.1142639572
    9      H       1.4100892811    12.3996160933    20.0713320576
   10      H      -0.3277447848    12.4336914784    20.0149460683
   11      H       0.5219676888     8.9838445391    22.2925235141
   12      H       2.2891776266     8.9498311242    22.3885395471
   13      H       1.2885343192    10.8665810034    23.6944140330
   14      H       2.4311682356    11.3494918999    22.4575977212
   15      H      -0.6138875841    11.5639711390    22.2007208513
   16      H       0.5492876729    12.8874044115    22.3195506333
   17      H       2.5202967626     9.8862361000    20.1373841638
   18      N       0.5464681932    10.4293485558    18.3822737852
   19      H       1.3980192645    10.8036874485    17.9805145360
   20      C      -0.4457176768    10.0992222532    17.5194229383
   21      H      -0.1575528882    10.2871156895    16.4707710574
   22      O      -1.5641902357     9.6939532574    17.8371263356
 ----------------------------------------------------------------
 Nuclear Repulsion Energy =         466.01808170 hartrees
 There are       35 alpha and       35 beta electrons
 Discretize the solute cavity surface with Lebedev spheres
	Using 302 Lebedev grid points for each H atom
	Using 302 Lebedev grid points for other atoms
	Atomic van der Waals radii will be scaled by 1.20
 Remove points where switching function is < 1.0e-08
 Keep 2748 surface tesserae and discard 3896 interior tesserae
 Molecular Surface Area = 182.735 Angst**2
 Applying Cartesian multipole field
    Component          Value
    ---------          -----
     (2,0,0)        1.00000E-11
     (0,2,0)        2.00000E-12
     (0,0,2)       -3.00000E-13
 Nucleus-field energy     =     0.0000000281 hartrees
 Requested basis set is 6-31+G(d)
 There are 71 shells and 197 basis functions
 A cutoff of  1.0D-14 yielded   2411 shell pairs
 There are     18991 function pairs
 Smallest overlap matrix eigenvalue = 2.39E-05
 Guess MOs from SCF MO coefficient file

 -----------------------------------------------------------------------
  General SCF calculation program by
  Eric Jon Sundstrom, Paul Horn, Yuezhi Mao, Dmitri Zuev, Alec White,
  David Stuck, Shaama M.S., Shane Yost, Joonho Lee, David Small,
  Daniel Levine, Susi Lehtola, Hugh Burton, Evgeny Epifanovsky,
  Bang C. Huynh
 -----------------------------------------------------------------------
 Exchange:     0.2000 Hartree-Fock + 0.0800 Slater + 0.7200 B88
 Correlation:  0.1900 VWN1RPA + 0.8100 LYP
 Using Euler-Maclaurin-Lebedev (99,590) quadrature formula
 using 16 threads for integral computing
 -------------------------------------------------------
 OpenMP Integral computing Module                
 Release: version 2.0, May 2017, Q-Chem Inc. Pleasanton 
 -------------------------------------------------------
 A restricted SCF calculation will be
 performed using Roothaan-Hall, DIIS
 SCF converges when DIIS error is below 1.0e-08
 ---------------------------------------
  Cycle       Energy         DIIS error
 ---------------------------------------
    1    -404.5794109228      7.09e-04  Roothaan Step
 ---------------------------------------
  Cycle       Energy         DIIS error
 ---------------------------------------
    1    -404.5884731374      1.12e-03  
    2    -404.5744006766      2.43e-03  
    3    -404.5968592941      1.85e-04  
    4    -404.5969876070      1.02e-04  
    5    -404.5970277474      3.09e-05  
    6    -404.5970316128      7.93e-06  
    7    -404.5970318562      2.62e-06  
    8    -404.5970318889      4.91e-07  
    9    -404.5970318899      2.14e-07  
   10    -404.5970318901      3.98e-08  
   11    -404.5970318901      1.07e-08  
   12    -404.5970318901      2.68e-09  Convergence criterion met
 ---------------------------------------
 SCF time:   CPU 903.83s  wall 62.00s 

************** Final PCM Free Energy Summary **************
 G_electrostatic  =      -0.01581355 hartree =      -9.92315149 kcal/mol
 G_cavitation     =       0.00000000 hartree =       0.00000000 kcal/mol
 G_dispersion     =       0.00000000 hartree =       0.00000000 kcal/mol
 G_repulsion      =       0.00000000 hartree =       0.00000000 kcal/mol
 --------------------------------------------------
 Non-electrostatic Free Energy =       0.00000000 hartree =       0.00000000 kcal/mol
 Total                         =      -0.01581355 hartree =      -9.92315149 kcal/mol
 --------------------------------------------------
 SCF Energy (H0 + V/2)                       =    -404.59703189 
 Solute Internal Energy (H0)                 =    -404.58121834 
 Total Free Energy (H0 + V/2 + non-elec)     =    -404.59703189 hartree
                                             = -253888.46944954 kcal/mol
***********************************************************

 SCF   energy in the final basis set =     -404.5970318901
 Total energy in the final basis set =     -404.5970318901
 
 --------------------------------------------------------------
 
                    Orbital Energies (a.u.)
 --------------------------------------------------------------
 
 Alpha MOs
 -- Occupied --
-19.1353 -14.3712 -10.2945 -10.2263 -10.1833 -10.1829 -10.1813 -10.1805
-10.1785  -1.0425  -0.9333  -0.8237  -0.7430  -0.7426  -0.6388  -0.6127
 -0.5931  -0.5625  -0.5272  -0.4848  -0.4604  -0.4441  -0.4392  -0.4209
 -0.4187  -0.3969  -0.3782  -0.3740  -0.3484  -0.3453  -0.3209  -0.3118
 -0.3096  -0.2715  -0.2597
 -- Virtual --
  0.0072   0.0085   0.0160   0.0244   0.0251   0.0403   0.0484   0.0488
  0.0580   0.0679   0.0696   0.0834   0.0865   0.0954   0.1007   0.1043
  0.1109   0.1165   0.1266   0.1335   0.1403   0.1507   0.1549   0.1621
  0.1703   0.1796   0.1812   0.1862   0.1994   0.2019   0.2100   0.2120
  0.2219   0.2258   0.2330   0.2456   0.2487   0.2546   0.2638   0.2711
  0.2784   0.2815   0.2841   0.2907   0.2983   0.3055   0.3136   0.3263
  0.3313   0.3334   0.3554   0.3730   0.3820   0.3848   0.4162   0.4209
  0.4390   0.4538   0.4850   0.6090   0.6405   0.6583   0.6636   0.6696
  0.6867   0.7004   0.7266   0.7316   0.7439   0.7544   0.7722   0.7795
  0.7977   0.8042   0.8233   0.8389   0.8618   0.9053   0.9519   0.9734
  0.9813   0.9931   1.0205   1.0272   1.0333   1.0573   1.0810   1.1045
  1.1192   1.1234   1.1277   1.1423   1.1635   1.1711   1.1802   1.1839
  1.2391   1.2474   1.2828   1.3221   1.3320   1.3713   1.4028   1.4132
  1.4710   1.4864   1.4894   1.5620   1.5832   1.6199   1.6887   1.7258
  1.7397   1.7587   1.7689   1.7917   1.8338   1.8713   1.9012   1.9088
  1.9180   1.9394   1.9711   2.0029   2.0088   2.0412   2.0632   2.0852
  2.1128   2.1179   2.1992   2.2098   2.2793   2.2998   2.3194   2.3411
  2.3988   2.4076   2.4198   2.4237   2.4500   2.5589   2.5791   2.6200
  2.6831   2.6878   2.7034   2.7551   2.7752   2.8372   2.8668   3.0000
  3.1869   4.0896   4.1904   4.2297   4.2951   4.3372   4.4147   4.5983
  4.6036   4.6663
 --------------------------------------------------------------
 
          Ground-State Mulliken Net Atomic Charges

     Atom                 Charge (a.u.)
  ----------------------------------------
      1 C                    -0.303501
      2 C                    -0.420207
      3 C                    -0.294645
      4 C                    -0.448901
      5 C                    -0.371744
      6 C                    -0.454049
      7 H                     0.210801
      8 H                     0.232097
      9 H                     0.213802
     10 H                     0.210758
     11 H                     0.206762
     12 H                     0.202881
     13 H                     0.199865
     14 H                     0.199896
     15 H                     0.206234
     16 H                     0.204056
     17 H                     0.210438
     18 N                    -0.381495
     19 H                     0.445069
     20 C                     0.343494
     21 H                     0.179014
     22 O                    -0.590625
  ----------------------------------------
  Sum of atomic charges =     0.000000

 -----------------------------------------------------------------
                    Cartesian Multipole Moments
 -----------------------------------------------------------------
    Charge (ESU x 10^10)
                 0.0000
    Dipole Moment (Debye)
         X       5.0894      Y       2.0846      Z       0.9805
       Tot       5.5865
    Quadrupole Moments (Debye-Ang)
        XX     -61.1563     XY      50.9264     YY     -14.5216
        XZ      91.8239     YZ      47.7808     ZZ     -15.3853
    Octopole Moments (Debye-Ang^2)
       XXX     -71.6664    XXY    -634.8052    XYY     482.1662
       YYY   -1145.2090    XXZ   -1222.6435    XYZ     919.7510
       YYZ    -277.5600    XZZ    1629.2665    YZZ     512.3010
       ZZZ   -2147.9121
    Hexadecapole Moments (Debye-Ang^3)
      XXXX    -518.9615   XXXY    -763.7780   XXYY   -6741.5735
      XYYY    4233.0831   YYYY  -29224.0620   XXXZ   -1698.0122
      XXYZ  -12740.2842   XYYZ    8585.6378   YYYZ  -23465.6277
      XXZZ  -24759.7271   XYZZ   16322.2597   YYZZ  -11419.6649
      XZZZ   28005.2762   YZZZ  -10534.5673   ZZZZ -104689.2379
 -----------------------------------------------------------------
 Calculating analytic gradient of the SCF energy
 Gradient of SCF Energy
            1           2           3           4           5           6
    1   0.0083139  -0.0108228  -0.0089182   0.0009779  -0.0141822   0.0046796
    2  -0.0189753   0.0006338   0.0045173   0.0026867  -0.0023256   0.0040453
    3   0.0017290  -0.0057754   0.0065347  -0.0036454   0.0031740  -0.0030397
            7           8           9          10          11          12
    1   0.0034012   0.0037574  -0.0007230  -0.0014300  -0.0006557   0.0036233
    2  -0.0019499   0.0009062   0.0091711   0.0026331   0.0010395   0.0004572
    3  -0.0017287   0.0060680  -0.0011574   0.0015623   0.0004834  -0.0012484
           13          14          15          16          17          18
    1   0.0030188   0.0019892  -0.0022130   0.0015824   0.0044198  -0.0012515
    2  -0.0006839  -0.0005342  -0.0003264   0.0014673  -0.0018825  -0.0024725
    3   0.0013999  -0.0015091  -0.0021815   0.0013165  -0.0036270   0.0079548
           19          20          21          22
    1   0.0101458  -0.0155766   0.0043395   0.0055241
    2   0.0051654  -0.0129706   0.0052559   0.0041424
    3  -0.0040465   0.0004888  -0.0022991  -0.0004532
 Max gradient component =       1.898E-02
 RMS gradient           =       5.496E-03
 Computing fast CPCM-SWIG gradient
 Updating gradient with PCM contributions...
 -- total gradient after adding PCM contribution --
---------------------------------------------------
  Atom         X              Y              Z     
---------------------------------------------------
   1       0.012266      -0.012246      -0.001770
   2      -0.010418       0.000537      -0.008396
   3      -0.001177       0.003523       0.003176
   4       0.000746      -0.001807      -0.000436
   5      -0.009080      -0.000369       0.006169
   6       0.001168       0.006989      -0.000175
   7       0.002797      -0.000455      -0.001150
   8       0.001963       0.000200       0.004752
   9      -0.005127       0.006394       0.000658
  10      -0.000778       0.001389       0.001894
  11       0.000915       0.001703      -0.000005
  12       0.001172       0.001511      -0.001924
  13       0.003121      -0.000536      -0.000794
  14      -0.000891      -0.001663      -0.000714
  15      -0.000649       0.000276      -0.002461
  16       0.000821      -0.001132       0.000556
  17      -0.000228      -0.003754      -0.001763
  18       0.007827       0.002162       0.004851
  19      -0.001253      -0.000030       0.000818
  20      -0.009506      -0.010783      -0.004025
  21       0.000647       0.003588       0.000548
  22       0.005662       0.004503       0.000193
---------------------------------------------------
 Number of fixed atoms: 0
 Gradient time:  CPU 127.16 s  wall 12.20 s
 Geometry Optimization Parameters
   NAtoms,    NIC,     NZ,  NCons,   NDum,   NFix, NCnnct, MaxDiis
       22     172       0       0       0       0       0       0

 Cartesian Hessian Update
 Hessian updated using BFGS update


** GEOMETRY OPTIMIZATION IN DELOCALIZED INTERNAL COORDINATES **
   Searching for a Minimum

   Optimization Cycle:   3

                       Coordinates (Angstroms)
     ATOM                X               Y               Z
      1  C         0.5203938673   11.8495737663   20.4052099125
      2  C         0.4385085097   10.4248324802   19.8364089186
      3  C         1.5294459766    9.5343448701   20.4606465711
      4  C         1.4355802416    9.5141630069   21.9941485403
      5  C         1.4269617480   10.9260556311   22.6092708873
      6  C         0.4120752443   11.8675948408   21.9430536310
      7  H         1.4535153283    8.5131316038   20.0598803399
      8  H        -0.5323967908   10.0063088076   20.1142639572
      9  H         1.4100892811   12.3996160933   20.0713320576
     10  H        -0.3277447848   12.4336914784   20.0149460683
     11  H         0.5219676888    8.9838445391   22.2925235141
     12  H         2.2891776266    8.9498311242   22.3885395471
     13  H         1.2885343192   10.8665810034   23.6944140330
     14  H         2.4311682356   11.3494918999   22.4575977212
     15  H        -0.6138875841   11.5639711390   22.2007208513
     16  H         0.5492876729   12.8874044115   22.3195506333
     17  H         2.5202967626    9.8862361000   20.1373841638
     18  N         0.5464681932   10.4293485558   18.3822737852
     19  H         1.3980192645   10.8036874485   17.9805145360
     20  C        -0.4457176768   10.0992222532   17.5194229383
     21  H        -0.1575528882   10.2871156895   16.4707710574
     22  O        -1.5641902357    9.6939532574   17.8371263356
   Point Group: c1    Number of degrees of freedom:    60


   Energy is   -404.597031890

 Hessian updated using BFGS update

 60 Hessian modes will be used to form the next step
  Hessian Eigenvalues:
     0.004842    0.005405    0.006546    0.008377    0.012668    0.016712
     0.018529    0.018735    0.023138    0.034584    0.037043    0.037233
     0.043540    0.046559    0.048112    0.049735    0.051238    0.053385
     0.056982    0.060496    0.066947    0.080780    0.081184    0.083207
     0.083998    0.087335    0.090067    0.092035    0.123445    0.125705
     0.139237    0.157549    0.159333    0.162699    0.178112    0.211907
     0.219862    0.220232    0.269138    0.272588    0.275498    0.282029
     0.284853    0.287175    0.330951    0.334330    0.336977    0.338462
     0.344088    0.345384    0.345843    0.346534    0.347721    0.349704
     0.351661    0.356893    0.377601    0.466294    0.485068    0.936512

 Minimum search - taking simple RFO step
 Searching for Lamda that Minimizes Along All modes
 Value Taken    Lamda =  -0.00711375
 Calculated Step too Large.  Step scaled by  0.580576
 Step Taken.  Stepsize is  0.300000

                             Maximum     Tolerance    Cnvgd?
         Gradient           0.007616      0.000100      NO
         Displacement       0.132378      0.000100      NO
         Energy change     -0.005716      0.000000      NO


 New Cartesian Coordinates Obtained by Inverse Iteration

 Displacement from previous Coordinates is:  0.308019
 ----------------------------------------------------------------
             Standard Nuclear Orientation (Angstroms)
    I     Atom           X                Y                Z
 ----------------------------------------------------------------
    1      C       0.4977672840    11.8653392298    20.4178413970
    2      C       0.4339448851    10.4412478785    19.8422729398
    3      C       1.5183937668     9.5414216607    20.4563705283
    4      C       1.4273054414     9.5136495292    21.9893826269
    5      C       1.4544914993    10.9271958105    22.5920294113
    6      C       0.4143087515    11.8594070948    21.9541782557
    7      H       1.4242399696     8.5279260290    20.0446377574
    8      H      -0.5463352995    10.0166375486    20.0817324517
    9      H       1.4200895483    12.3686087663    20.0925852298
   10      H      -0.3375838249    12.4533154381    20.0133564188
   11      H       0.5026655964     9.0001916910    22.2907168795
   12      H       2.2626318784     8.9256812126    22.3908746035
   13      H       1.3084505383    10.8779617223    23.6788682564
   14      H       2.4582440129    11.3511151115    22.4321423828
   15      H      -0.5982330267    11.5431874217    22.2457167877
   16      H       0.5482378831    12.8807827446    22.3325713139
   17      H       2.5098586281     9.9083362514    20.1482018396
   18      N       0.5404181994    10.4588026597    18.3838675098
   19      H       1.3955594402    10.8271978704    17.9800751234
   20      C      -0.4405694090    10.1231138080    17.5232084500
   21      H      -0.1269165634    10.2180959972    16.4697861133
   22      O      -1.5369691992     9.6407845240    17.8295837234
 ----------------------------------------------------------------
 Nuclear Repulsion Energy =         466.37680641 hartrees
 There are       35 alpha and       35 beta electrons
 Discretize the solute cavity surface with Lebedev spheres
	Using 302 Lebedev grid points for each H atom
	Using 302 Lebedev grid points for other atoms
	Atomic van der Waals radii will be scaled by 1.20
 Remove points where switching function is < 1.0e-08
 Keep 2746 surface tesserae and discard 3898 interior tesserae
 Molecular Surface Area = 182.641 Angst**2
 Applying Cartesian multipole field
    Component          Value
    ---------          -----
     (2,0,0)        1.00000E-11
     (0,2,0)        2.00000E-12
     (0,0,2)       -3.00000E-13
 Nucleus-field energy     =     0.0000000281 hartrees
 Requested basis set is 6-31+G(d)
 There are 71 shells and 197 basis functions
 A cutoff of  1.0D-14 yielded   2412 shell pairs
 There are     18992 function pairs
 Smallest overlap matrix eigenvalue = 2.42E-05
 Guess MOs from SCF MO coefficient file

 -----------------------------------------------------------------------
  General SCF calculation program by
  Eric Jon Sundstrom, Paul Horn, Yuezhi Mao, Dmitri Zuev, Alec White,
  David Stuck, Shaama M.S., Shane Yost, Joonho Lee, David Small,
  Daniel Levine, Susi Lehtola, Hugh Burton, Evgeny Epifanovsky,
  Bang C. Huynh
 -----------------------------------------------------------------------
 Exchange:     0.2000 Hartree-Fock + 0.0800 Slater + 0.7200 B88
 Correlation:  0.1900 VWN1RPA + 0.8100 LYP
 Using Euler-Maclaurin-Lebedev (99,590) quadrature formula
 using 16 threads for integral computing
 -------------------------------------------------------
 OpenMP Integral computing Module                
 Release: version 2.0, May 2017, Q-Chem Inc. Pleasanton 
 -------------------------------------------------------
 A restricted SCF calculation will be
 performed using Roothaan-Hall, DIIS
 SCF converges when DIIS error is below 1.0e-08
 ---------------------------------------
  Cycle       Energy         DIIS error
 ---------------------------------------
    1    -404.5787469998      8.62e-04  Roothaan Step
 ---------------------------------------
  Cycle       Energy         DIIS error
 ---------------------------------------
    1    -404.5899124649      1.14e-03  
    2    -404.5751904210      2.49e-03  
    3    -404.5986976198      1.89e-04  
    4    -404.5988321997      1.05e-04  
    5    -404.5988746335      3.17e-05  
    6    -404.5988787145      8.05e-06  
    7    -404.5988789619      2.75e-06  
    8    -404.5988789982      5.09e-07  
    9    -404.5988789993      2.20e-07  
   10    -404.5988789995      4.12e-08  
   11    -404.5988789995      1.03e-08  
   12    -404.5988789995      2.81e-09  Convergence criterion met
 ---------------------------------------
 SCF time:   CPU 917.55s  wall 61.00s 

************** Final PCM Free Energy Summary **************
 G_electrostatic  =      -0.01621138 hartree =     -10.17279472 kcal/mol
 G_cavitation     =       0.00000000 hartree =       0.00000000 kcal/mol
 G_dispersion     =       0.00000000 hartree =       0.00000000 kcal/mol
 G_repulsion      =       0.00000000 hartree =       0.00000000 kcal/mol
 --------------------------------------------------
 Non-electrostatic Free Energy =       0.00000000 hartree =       0.00000000 kcal/mol
 Total                         =      -0.01621138 hartree =     -10.17279472 kcal/mol
 --------------------------------------------------
 SCF Energy (H0 + V/2)                       =    -404.59887900 
 Solute Internal Energy (H0)                 =    -404.58266762 
 Total Free Energy (H0 + V/2 + non-elec)     =    -404.59887900 hartree
                                             = -253889.62852817 kcal/mol
***********************************************************

 SCF   energy in the final basis set =     -404.5988789995
 Total energy in the final basis set =     -404.5988789995
 
 --------------------------------------------------------------
 
                    Orbital Energies (a.u.)
 --------------------------------------------------------------
 
 Alpha MOs
 -- Occupied --
-19.1336 -14.3719 -10.2935 -10.2259 -10.1836 -10.1835 -10.1810 -10.1810
-10.1791  -1.0396  -0.9339  -0.8250  -0.7439  -0.7430  -0.6384  -0.6131
 -0.5930  -0.5631  -0.5267  -0.4845  -0.4610  -0.4440  -0.4390  -0.4200
 -0.4183  -0.3963  -0.3787  -0.3750  -0.3479  -0.3454  -0.3215  -0.3128
 -0.3106  -0.2696  -0.2606
 -- Virtual --
  0.0061   0.0095   0.0158   0.0242   0.0252   0.0404   0.0484   0.0485
  0.0582   0.0682   0.0697   0.0833   0.0866   0.0951   0.1003   0.1043
  0.1110   0.1168   0.1255   0.1335   0.1404   0.1508   0.1552   0.1615
  0.1701   0.1800   0.1809   0.1871   0.1999   0.2010   0.2099   0.2130
  0.2219   0.2254   0.2323   0.2450   0.2485   0.2552   0.2634   0.2708
  0.2793   0.2828   0.2850   0.2914   0.2953   0.3052   0.3129   0.3262
  0.3299   0.3323   0.3577   0.3721   0.3836   0.3860   0.4176   0.4193
  0.4394   0.4553   0.4840   0.6087   0.6392   0.6571   0.6656   0.6680
  0.6852   0.6987   0.7277   0.7318   0.7480   0.7500   0.7738   0.7795
  0.7993   0.8043   0.8213   0.8410   0.8617   0.9087   0.9534   0.9744
  0.9797   0.9918   1.0201   1.0266   1.0307   1.0566   1.0853   1.1030
  1.1194   1.1222   1.1270   1.1429   1.1644   1.1709   1.1840   1.1869
  1.2370   1.2503   1.2819   1.3211   1.3384   1.3653   1.3964   1.4138
  1.4663   1.4889   1.4997   1.5629   1.5818   1.6175   1.6977   1.7301
  1.7438   1.7541   1.7671   1.7993   1.8433   1.8697   1.9049   1.9102
  1.9138   1.9376   1.9715   2.0079   2.0110   2.0437   2.0589   2.0859
  2.1056   2.1261   2.2044   2.2129   2.2776   2.3062   2.3178   2.3406
  2.3969   2.4131   2.4169   2.4223   2.4502   2.5591   2.5818   2.6209
  2.6794   2.6884   2.7041   2.7568   2.7789   2.8365   2.8663   2.9947
  3.1852   4.0920   4.1932   4.2292   4.2957   4.3348   4.4143   4.6027
  4.6028   4.6695
 --------------------------------------------------------------
 
          Ground-State Mulliken Net Atomic Charges

     Atom                 Charge (a.u.)
  ----------------------------------------
      1 C                    -0.285629
      2 C                    -0.424551
      3 C                    -0.291183
      4 C                    -0.451208
      5 C                    -0.376991
      6 C                    -0.456502
      7 H                     0.211688
      8 H                     0.230672
      9 H                     0.211499
     10 H                     0.211013
     11 H                     0.207269
     12 H                     0.203127
     13 H                     0.199523
     14 H                     0.201334
     15 H                     0.207259
     16 H                     0.203288
     17 H                     0.210731
     18 N                    -0.380083
     19 H                     0.444636
     20 C                     0.343393
     21 H                     0.178339
     22 O                    -0.597623
  ----------------------------------------
  Sum of atomic charges =     0.000000

 -----------------------------------------------------------------
                    Cartesian Multipole Moments
 -----------------------------------------------------------------
    Charge (ESU x 10^10)
                 0.0000
    Dipole Moment (Debye)
         X       5.1359      Y       2.2045      Z       1.0949
       Tot       5.6953
    Quadrupole Moments (Debye-Ang)
        XX     -60.9263     XY      51.1419     YY     -12.3141
        XZ      92.6838     YZ      51.0688     ZZ     -11.0225
    Octopole Moments (Debye-Ang^2)
       XXX     -71.9551    XXY    -631.9900    XYY     481.8032
       YYY   -1115.8705    XXZ   -1218.2132    XYZ     923.9098
       YYZ    -226.6993    XZZ    1645.3633    YZZ     593.8242
       ZZZ   -2022.3911
    Hexadecapole Moments (Debye-Ang^3)
      XXXX    -514.0262   XXXY    -768.3117   XXYY   -6708.0536
      XYYY    4200.4954   YYYY  -28900.1416   XXXZ   -1702.1630
      XXYZ  -12686.7538   XYYZ    8582.3586   YYYZ  -22832.3157
      XXZZ  -24673.3595   XYZZ   16403.3741   YYZZ  -10288.5711
      XZZZ   28309.7234   YZZZ   -8619.9947   ZZZZ -101457.9635
 -----------------------------------------------------------------
 Calculating analytic gradient of the SCF energy
 Gradient of SCF Energy
            1           2           3           4           5           6
    1  -0.0012398  -0.0014733  -0.0090755   0.0004339  -0.0088107   0.0044830
    2  -0.0101837   0.0000483   0.0023458   0.0045150  -0.0027061  -0.0018160
    3   0.0027396  -0.0005850   0.0052905  -0.0040232  -0.0021227  -0.0029911
            7           8           9          10          11          12
    1   0.0010620   0.0021909   0.0032771  -0.0016083  -0.0011350   0.0030646
    2  -0.0014331   0.0011368   0.0045006   0.0014696  -0.0007398  -0.0003451
    3  -0.0012226   0.0030435  -0.0014991   0.0003716   0.0008150   0.0003136
           13          14          15          16          17          18
    1   0.0002342   0.0033262  -0.0018868   0.0015641   0.0050646  -0.0075125
    2  -0.0001484   0.0006503  -0.0001191   0.0023957   0.0009500  -0.0082481
    3   0.0022039  -0.0009791  -0.0005160   0.0006874  -0.0022852   0.0042765
           19          20          21          22
    1   0.0115549  -0.0126644   0.0055283   0.0036226
    2   0.0045596   0.0095384  -0.0022771  -0.0040937
    3  -0.0049044   0.0047732  -0.0026064  -0.0007797
 Max gradient component =       1.266E-02
 RMS gradient           =       4.246E-03
 Computing fast CPCM-SWIG gradient
 Updating gradient with PCM contributions...
 -- total gradient after adding PCM contribution --
---------------------------------------------------
  Atom         X              Y              Z     
---------------------------------------------------
   1       0.003365      -0.003855      -0.000880
   2      -0.001322      -0.000097      -0.003311
   3      -0.001322       0.001604       0.001893
   4       0.000140      -0.000201      -0.000698
   5      -0.003642      -0.000554       0.000987
   6       0.000715       0.001263       0.000112
   7       0.000563       0.000091      -0.000646
   8       0.000279       0.000298       0.001768
   9      -0.001504       0.002252       0.000293
  10      -0.000735       0.000148       0.000885
  11       0.000467      -0.000048       0.000275
  12       0.000657       0.000814      -0.000464
  13       0.000491      -0.000048      -0.000033
  14       0.000213      -0.000613      -0.000128
  15      -0.000268       0.000538      -0.000974
  16       0.000809      -0.000204      -0.000052
  17       0.000276      -0.001225      -0.000544
  18       0.001742      -0.003839       0.001194
  19      -0.000029      -0.000477      -0.000062
  20      -0.006595       0.011860       0.000485
  21       0.001749      -0.003739       0.000122
  22       0.003951      -0.003967      -0.000222
---------------------------------------------------
 Number of fixed atoms: 0
 Gradient time:  CPU 133.02 s  wall 12.84 s
 Geometry Optimization Parameters
   NAtoms,    NIC,     NZ,  NCons,   NDum,   NFix, NCnnct, MaxDiis
       22     172       0       0       0       0       0       0

 Cartesian Hessian Update
 Hessian updated using BFGS update


** GEOMETRY OPTIMIZATION IN DELOCALIZED INTERNAL COORDINATES **
   Searching for a Minimum

   Optimization Cycle:   4

                       Coordinates (Angstroms)
     ATOM                X               Y               Z
      1  C         0.4977672840   11.8653392298   20.4178413970
      2  C         0.4339448851   10.4412478785   19.8422729398
      3  C         1.5183937668    9.5414216607   20.4563705283
      4  C         1.4273054414    9.5136495292   21.9893826269
      5  C         1.4544914993   10.9271958105   22.5920294113
      6  C         0.4143087515   11.8594070948   21.9541782557
      7  H         1.4242399696    8.5279260290   20.0446377574
      8  H        -0.5463352995   10.0166375486   20.0817324517
      9  H         1.4200895483   12.3686087663   20.0925852298
     10  H        -0.3375838249   12.4533154381   20.0133564188
     11  H         0.5026655964    9.0001916910   22.2907168795
     12  H         2.2626318784    8.9256812126   22.3908746035
     13  H         1.3084505383   10.8779617223   23.6788682564
     14  H         2.4582440129   11.3511151115   22.4321423828
     15  H        -0.5982330267   11.5431874217   22.2457167877
     16  H         0.5482378831   12.8807827446   22.3325713139
     17  H         2.5098586281    9.9083362514   20.1482018396
     18  N         0.5404181994   10.4588026597   18.3838675098
     19  H         1.3955594402   10.8271978704   17.9800751234
     20  C        -0.4405694090   10.1231138080   17.5232084500
     21  H        -0.1269165634   10.2180959972   16.4697861133
     22  O        -1.5369691992    9.6407845240   17.8295837234
   Point Group: c1    Number of degrees of freedom:    60


   Energy is   -404.598879000

 Hessian updated using BFGS update

 60 Hessian modes will be used to form the next step
  Hessian Eigenvalues:
     0.004830    0.005383    0.006545    0.008377    0.012701    0.017712
     0.018547    0.018763    0.032652    0.035885    0.037094    0.041076
     0.045207    0.047335    0.049631    0.050927    0.053319    0.056685
     0.060023    0.066740    0.071793    0.080438    0.081341    0.083096
     0.083945    0.087315    0.090101    0.091321    0.123545    0.125719
     0.139395    0.157379    0.159311    0.162718    0.178346    0.211753
     0.219506    0.220234    0.269072    0.272581    0.275514    0.282262
     0.284854    0.287465    0.330944    0.334314    0.336969    0.338397
     0.344061    0.345333    0.345824    0.346506    0.347748    0.349691
     0.351638    0.356615    0.377401    0.466409    0.487188    0.933400

 Minimum search - taking simple RFO step
 Searching for Lamda that Minimizes Along All modes
 Value Taken    Lamda =  -0.00234710
 Calculated Step too Large.  Step scaled by  0.944406
 Step Taken.  Stepsize is  0.300000

                             Maximum     Tolerance    Cnvgd?
         Gradient           0.007567      0.000100      NO
         Displacement       0.158106      0.000100      NO
         Energy change     -0.001847      0.000000      NO


 New Cartesian Coordinates Obtained by Inverse Iteration

 Displacement from previous Coordinates is:  0.286346
 ----------------------------------------------------------------
             Standard Nuclear Orientation (Angstroms)
    I     Atom           X                Y                Z
 ----------------------------------------------------------------
    1      C       0.4793869583    11.8602903387    20.4214242128
    2      C       0.4320702443    10.4331393110    19.8463886094
    3      C       1.5189600759     9.5363247281    20.4626701686
    4      C       1.4278633751     9.5207099272    21.9969417583
    5      C       1.4820132505    10.9422053769    22.5770377741
    6      C       0.4043108016    11.8444408562    21.9581443142
    7      H       1.4223068915     8.5214165274    20.0572956360
    8      H      -0.5509537844     9.9987298905    20.0577033884
    9      H       1.4254985998    12.3274437558    20.1071463336
   10      H      -0.3402218496    12.4521188308    19.9960877043
   11      H       0.4894075840     9.0318946927    22.2999444918
   12      H       2.2429666930     8.9127354417    22.4112950083
   13      H       1.3475850426    10.9070116973    23.6666761178
   14      H       2.4768182082    11.3771223521    22.3934212493
   15      H      -0.5900831760    11.4945379895    22.2732024207
   16      H       0.5092161255    12.8695582737    22.3376329624
   17      H       2.5076161176     9.9161928616    20.1607978239
   18      N       0.5453856680    10.4564079751    18.3842907771
   19      H       1.4050361784    10.8203744857    17.9845764977
   20      C      -0.4238604645    10.1076520399    17.5185495017
   21      H      -0.1261695223    10.2437058664    16.4652156363
   22      O      -1.5551530175     9.6959867817    17.8135576132
 ----------------------------------------------------------------
 Nuclear Repulsion Energy =         466.33650890 hartrees
 There are       35 alpha and       35 beta electrons
 Discretize the solute cavity surface with Lebedev spheres
	Using 302 Lebedev grid points for each H atom
	Using 302 Lebedev grid points for other atoms
	Atomic van der Waals radii will be scaled by 1.20
 Remove points where switching function is < 1.0e-08
 Keep 2734 surface tesserae and discard 3910 interior tesserae
 Molecular Surface Area = 182.612 Angst**2
 Applying Cartesian multipole field
    Component          Value
    ---------          -----
     (2,0,0)        1.00000E-11
     (0,2,0)        2.00000E-12
     (0,0,2)       -3.00000E-13
 Nucleus-field energy     =     0.0000000282 hartrees
 Requested basis set is 6-31+G(d)
 There are 71 shells and 197 basis functions
 A cutoff of  1.0D-14 yielded   2411 shell pairs
 There are     18991 function pairs
 Smallest overlap matrix eigenvalue = 2.47E-05
 Guess MOs from SCF MO coefficient file

 -----------------------------------------------------------------------
  General SCF calculation program by
  Eric Jon Sundstrom, Paul Horn, Yuezhi Mao, Dmitri Zuev, Alec White,
  David Stuck, Shaama M.S., Shane Yost, Joonho Lee, David Small,
  Daniel Levine, Susi Lehtola, Hugh Burton, Evgeny Epifanovsky,
  Bang C. Huynh
 -----------------------------------------------------------------------
 Exchange:     0.2000 Hartree-Fock + 0.0800 Slater + 0.7200 B88
 Correlation:  0.1900 VWN1RPA + 0.8100 LYP
 Using Euler-Maclaurin-Lebedev (99,590) quadrature formula
 using 16 threads for integral computing
 -------------------------------------------------------
 OpenMP Integral computing Module                
 Release: version 2.0, May 2017, Q-Chem Inc. Pleasanton 
 -------------------------------------------------------
 A restricted SCF calculation will be
 performed using Roothaan-Hall, DIIS
 SCF converges when DIIS error is below 1.0e-08
 ---------------------------------------
  Cycle       Energy         DIIS error
 ---------------------------------------
    1    -404.5796783817      8.37e-04  Roothaan Step
 ---------------------------------------
  Cycle       Energy         DIIS error
 ---------------------------------------
    1    -404.5906117447      1.15e-03  
    2    -404.5758079732      2.50e-03  
    3    -404.5995339811      1.92e-04  
    4    -404.5996742383      1.06e-04  
    5    -404.5997172559      3.20e-05  
    6    -404.5997214159      8.31e-06  
    7    -404.5997216763      2.88e-06  
    8    -404.5997217160      5.35e-07  
    9    -404.5997217172      2.24e-07  
   10    -404.5997217174      4.11e-08  
   11    -404.5997217174      1.03e-08  
   12    -404.5997217174      2.88e-09  Convergence criterion met
 ---------------------------------------
 SCF time:   CPU 897.93s  wall 60.00s 

************** Final PCM Free Energy Summary **************
 G_electrostatic  =      -0.01640710 hartree =     -10.29561016 kcal/mol
 G_cavitation     =       0.00000000 hartree =       0.00000000 kcal/mol
 G_dispersion     =       0.00000000 hartree =       0.00000000 kcal/mol
 G_repulsion      =       0.00000000 hartree =       0.00000000 kcal/mol
 --------------------------------------------------
 Non-electrostatic Free Energy =       0.00000000 hartree =       0.00000000 kcal/mol
 Total                         =      -0.01640710 hartree =     -10.29561016 kcal/mol
 --------------------------------------------------
 SCF Energy (H0 + V/2)                       =    -404.59972172 
 Solute Internal Energy (H0)                 =    -404.58331462 
 Total Free Energy (H0 + V/2 + non-elec)     =    -404.59972172 hartree
                                             = -253890.15734165 kcal/mol
***********************************************************

 SCF   energy in the final basis set =     -404.5997217174
 Total energy in the final basis set =     -404.5997217174
 
 --------------------------------------------------------------
 
                    Orbital Energies (a.u.)
 --------------------------------------------------------------
 
 Alpha MOs
 -- Occupied --
-19.1331 -14.3723 -10.2934 -10.2260 -10.1841 -10.1840 -10.1813 -10.1811
-10.1794  -1.0378  -0.9336  -0.8256  -0.7440  -0.7426  -0.6377  -0.6129
 -0.5928  -0.5640  -0.5267  -0.4842  -0.4614  -0.4434  -0.4386  -0.4193
 -0.4180  -0.3962  -0.3797  -0.3745  -0.3483  -0.3450  -0.3228  -0.3132
 -0.3107  -0.2691  -0.2609
 -- Virtual --
  0.0074   0.0093   0.0157   0.0239   0.0251   0.0404   0.0480   0.0486
  0.0583   0.0687   0.0694   0.0830   0.0867   0.0944   0.0997   0.1042
  0.1112   0.1167   0.1246   0.1335   0.1402   0.1510   0.1554   0.1609
  0.1698   0.1794   0.1820   0.1881   0.1985   0.2017   0.2100   0.2135
  0.2208   0.2255   0.2315   0.2442   0.2476   0.2548   0.2636   0.2693
  0.2788   0.2816   0.2878   0.2894   0.2939   0.3044   0.3105   0.3256
  0.3287   0.3312   0.3593   0.3711   0.3850   0.3866   0.4158   0.4200
  0.4385   0.4581   0.4847   0.6087   0.6385   0.6555   0.6661   0.6668
  0.6839   0.6975   0.7295   0.7323   0.7448   0.7531   0.7754   0.7791
  0.8006   0.8045   0.8192   0.8482   0.8618   0.9114   0.9533   0.9747
  0.9785   0.9918   1.0206   1.0269   1.0295   1.0557   1.0889   1.1015
  1.1176   1.1226   1.1266   1.1437   1.1623   1.1705   1.1841   1.1914
  1.2380   1.2471   1.2824   1.3288   1.3418   1.3711   1.3896   1.4155
  1.4781   1.4876   1.4926   1.5672   1.5764   1.6158   1.6937   1.7311
  1.7358   1.7545   1.7675   1.8052   1.8512   1.8716   1.9018   1.9072
  1.9113   1.9393   1.9775   2.0087   2.0178   2.0441   2.0552   2.0855
  2.0936   2.1296   2.2026   2.2149   2.2772   2.3080   2.3163   2.3437
  2.3953   2.4100   2.4195   2.4246   2.4478   2.5598   2.5852   2.6212
  2.6728   2.6832   2.7046   2.7612   2.7795   2.8334   2.8634   2.9926
  3.1862   4.0927   4.1939   4.2294   4.2948   4.3327   4.4150   4.6024
  4.6078   4.6721
 --------------------------------------------------------------
 
          Ground-State Mulliken Net Atomic Charges

     Atom                 Charge (a.u.)
  ----------------------------------------
      1 C                    -0.273831
      2 C                    -0.434559
      3 C                    -0.281274
      4 C                    -0.449622
      5 C                    -0.382363
      6 C                    -0.457209
      7 H                     0.211631
      8 H                     0.229497
      9 H                     0.210664
     10 H                     0.211471
     11 H                     0.207723
     12 H                     0.202699
     13 H                     0.199285
     14 H                     0.202472
     15 H                     0.208071
     16 H                     0.202655
     17 H                     0.210744
     18 N                    -0.382916
     19 H                     0.444302
     20 C                     0.343839
     21 H                     0.178646
     22 O                    -0.601924
  ----------------------------------------
  Sum of atomic charges =     0.000000

 -----------------------------------------------------------------
                    Cartesian Multipole Moments
 -----------------------------------------------------------------
    Charge (ESU x 10^10)
[...]

 Mode:                40                     41                     42
 Frequency:      1404.48                1495.20                1497.76
 Force Cnst:      1.7093                 1.4331                 1.4396
 Red. Mass:       1.4708                 1.0880                 1.0892
 IR Active:          YES                    YES                    YES
 IR Intens:        0.707                  0.120                  5.157
 Raman Active:       YES                    YES                    YES
               X      Y      Z        X      Y      Z        X      Y      Z
 C         -0.010  0.056  0.094    0.011  0.038 -0.031    0.001  0.017  0.004
 C         -0.021 -0.011 -0.099   -0.007  0.015 -0.001    0.001  0.000 -0.009
 C          0.036 -0.044  0.098   -0.033  0.017  0.030    0.014 -0.011  0.004
 C         -0.011  0.041  0.023   -0.008 -0.021  0.022   -0.006 -0.022  0.006
 C         -0.008 -0.004 -0.010    0.005 -0.014 -0.000   -0.053 -0.024 -0.046
 C          0.023 -0.034  0.025    0.021 -0.008 -0.022   -0.021  0.011  0.006
 H         -0.090  0.146 -0.371    0.375  0.035 -0.153   -0.096 -0.007  0.024
 H          0.078  0.053  0.470    0.031 -0.069  0.000    0.007  0.004  0.026
 H         -0.028 -0.143 -0.286    0.233 -0.277  0.213    0.047 -0.089 -0.002
 H          0.051 -0.166 -0.358   -0.297 -0.266  0.164   -0.063 -0.060  0.021
 H          0.014 -0.041 -0.035   -0.150  0.162 -0.155   -0.120  0.171 -0.058
 H          0.001 -0.125 -0.252    0.187  0.169 -0.106    0.146  0.122 -0.103
 H         -0.064 -0.026 -0.022    0.006  0.002  0.000    0.563  0.251  0.045
 H         -0.023 -0.011 -0.062   -0.027  0.063  0.006    0.073  0.039  0.609
 H         -0.023  0.040 -0.041   -0.021  0.226  0.153    0.047 -0.209 -0.057
 H         -0.091  0.079 -0.249   -0.255 -0.023  0.104    0.194  0.025 -0.104
 H         -0.125  0.071 -0.301    0.045 -0.341 -0.196   -0.035  0.104 -0.000
 N          0.005  0.002 -0.032   -0.000 -0.000 -0.000   -0.000 -0.000 -0.002
 H          0.060  0.024  0.106    0.001 -0.001  0.001    0.005  0.002  0.011
 C          0.002  0.001  0.026    0.000 -0.000  0.000    0.001  0.000  0.001
 H         -0.005 -0.002  0.037   -0.000  0.001  0.000   -0.001 -0.000  0.002
 O          0.003  0.001 -0.005   -0.000 -0.000  0.000   -0.000 -0.000 -0.000
 TransDip   0.000 -0.003  0.027    0.004 -0.010  0.002    0.064  0.028  0.018

 Mode:                43                     44                     45
 Frequency:      1500.73                1501.76                1514.09
 Force Cnst:      1.4573                 1.4494                 1.4874
 Red. Mass:       1.0982                 1.0908                 1.1012
 IR Active:          YES                    YES                    YES
 IR Intens:        7.410                 11.362                  0.695
 Raman Active:       YES                    YES                    YES
               X      Y      Z        X      Y      Z        X      Y      Z
 C         -0.001 -0.036  0.021   -0.006 -0.035  0.015   -0.000 -0.035  0.016
 C         -0.002  0.005  0.002    0.000 -0.000  0.015   -0.004 -0.001  0.012
 C          0.019 -0.018 -0.015   -0.038  0.026  0.020   -0.027  0.024  0.015
 C         -0.004 -0.046  0.034   -0.003 -0.028  0.016    0.000  0.036 -0.019
 C          0.000  0.002  0.002    0.009  0.004  0.013   -0.024 -0.011 -0.033
 C          0.031 -0.023 -0.028   -0.031  0.023  0.022    0.027 -0.024 -0.018
 H         -0.195 -0.035  0.093    0.388  0.033 -0.136    0.291  0.038 -0.117
 H          0.005 -0.015 -0.002   -0.009 -0.003 -0.017   -0.010 -0.006 -0.015
 H         -0.176  0.235 -0.135   -0.181  0.235 -0.136   -0.170  0.232 -0.118
 H          0.226  0.181 -0.126    0.225  0.213 -0.104    0.218  0.181 -0.116
 H         -0.252  0.312 -0.215   -0.154  0.184 -0.136    0.173 -0.226  0.133
 H          0.318  0.256 -0.185    0.188  0.175 -0.084   -0.224 -0.181  0.114
 H          0.002 -0.034  0.001   -0.092 -0.037  0.002    0.286  0.127  0.009
 H         -0.007  0.012 -0.012   -0.014 -0.008 -0.100    0.041  0.023  0.320
 H         -0.053  0.331  0.169    0.049 -0.324 -0.172   -0.052  0.284  0.128
 H         -0.331 -0.053  0.157    0.339  0.033 -0.121   -0.287 -0.042  0.113
 H         -0.041  0.203  0.089    0.068 -0.374 -0.165    0.060 -0.293 -0.115
 N          0.000 -0.001 -0.000   -0.000  0.000 -0.002    0.005  0.002  0.009
 H         -0.001  0.001 -0.001   -0.004 -0.002 -0.010   -0.022 -0.009 -0.061
 C         -0.000 -0.000  0.000   -0.001 -0.000 -0.000   -0.006 -0.002 -0.006
 H         -0.000  0.001  0.000    0.001  0.000  0.000    0.003  0.001 -0.007
 O          0.000  0.000 -0.000    0.001  0.000 -0.000    0.002  0.001  0.000
 TransDip  -0.027  0.082 -0.011    0.073  0.020 -0.076   -0.012 -0.003 -0.023

 Mode:                46                     47                     48
 Frequency:      1553.09                1680.34                2236.04
 Force Cnst:      2.5042                14.3625                 7.0609
 Red. Mass:       1.7621                 8.6334                 2.3969
 IR Active:          YES                    YES                    YES
 IR Intens:      253.429                834.365                100.475
 Raman Active:       YES                    YES                    YES
               X      Y      Z        X      Y      Z        X      Y      Z
 C         -0.003 -0.004  0.009   -0.005 -0.007  0.018   -0.000 -0.000 -0.000
 C          0.058  0.023  0.058    0.015  0.006 -0.032    0.000  0.000  0.003
 C         -0.006  0.001  0.010   -0.009  0.001  0.018   -0.000  0.000 -0.000
 C         -0.001 -0.000 -0.009    0.005 -0.004 -0.005   -0.000  0.000 -0.000
 C         -0.002 -0.001  0.000   -0.001 -0.000  0.001   -0.000 -0.000 -0.000
 C         -0.001 -0.001 -0.008    0.000  0.007 -0.005    0.000 -0.000 -0.000
 H          0.031  0.004  0.002    0.013  0.017 -0.019    0.001 -0.000  0.000
 H         -0.008 -0.009 -0.343    0.051  0.021  0.057    0.000 -0.000  0.008
 H         -0.009 -0.022 -0.052   -0.018 -0.018 -0.028   -0.000  0.000  0.000
 H          0.025  0.025  0.004    0.023 -0.000 -0.018    0.001  0.001  0.001
 H          0.019 -0.012  0.033    0.007  0.002  0.002   -0.000 -0.000 -0.000
 H         -0.025 -0.009  0.025   -0.013  0.007  0.040    0.000 -0.000 -0.000
 H          0.023  0.011  0.003    0.011  0.005  0.001   -0.000 -0.000  0.000
 H          0.002  0.001  0.019   -0.001 -0.000  0.004    0.000  0.000 -0.000
 H          0.003  0.023  0.031    0.007  0.004  0.004   -0.000 -0.000 -0.000
 H         -0.024 -0.011  0.023   -0.005 -0.014  0.041    0.000  0.000 -0.000
 H         -0.024  0.008 -0.056   -0.026 -0.000 -0.026   -0.000 -0.000  0.000
 N         -0.100 -0.039 -0.171   -0.110 -0.042 -0.014    0.004  0.002  0.014
 H          0.288  0.113  0.833   -0.253 -0.093 -0.368   -0.015 -0.006 -0.058
 C          0.044  0.016  0.092    0.629  0.234 -0.017    0.060  0.021 -0.184
 H         -0.031 -0.011  0.131   -0.080 -0.033 -0.385   -0.259 -0.090  0.939
 O          0.006  0.002 -0.013   -0.357 -0.132  0.095   -0.015 -0.006  0.009
 TransDip   0.308  0.118  0.388    0.835  0.315  0.242    0.151  0.055 -0.278

 Mode:                49                     50                     51
 Frequency:      3013.48                3013.73                3017.68
 Force Cnst:      5.7131                 5.7185                 5.7366
 Red. Mass:       1.0678                 1.0686                 1.0692
 IR Active:          YES                    YES                    YES
 IR Intens:       36.203                 33.389                 21.855
 Raman Active:       YES                    YES                    YES
               X      Y      Z        X      Y      Z        X      Y      Z
 C          0.023  0.022 -0.015    0.012  0.016 -0.010   -0.032 -0.030  0.020
 C          0.002 -0.000 -0.000   -0.001 -0.001  0.000    0.006  0.003 -0.000
 C         -0.047 -0.000  0.022   -0.009 -0.003  0.004   -0.039 -0.002  0.018
 C          0.012  0.009 -0.007    0.024  0.012 -0.007    0.015  0.007 -0.005
 C          0.021  0.009  0.004   -0.057 -0.026 -0.010   -0.003 -0.001  0.009
 C         -0.025 -0.006  0.009    0.010  0.006 -0.001    0.029  0.006 -0.012
 H         -0.036 -0.224 -0.082   -0.004 -0.010 -0.006   -0.026 -0.166 -0.060
 H         -0.018 -0.007  0.004    0.018  0.008 -0.004   -0.080 -0.035  0.017
 H         -0.394 -0.190  0.126   -0.249 -0.120  0.077    0.537  0.263 -0.170
 H          0.115 -0.072  0.054    0.104 -0.069  0.047   -0.145  0.093 -0.066
 H         -0.179 -0.089  0.057   -0.295 -0.149  0.095   -0.183 -0.093  0.058
 H          0.033 -0.018  0.017    0.004  0.002 -0.005   -0.001  0.005 -0.001
 H          0.015  0.009 -0.103   -0.044 -0.015  0.269    0.012  0.003 -0.099
 H         -0.266 -0.115  0.058    0.731  0.323 -0.161    0.031  0.013 -0.003
 H          0.311  0.118 -0.095   -0.119 -0.044  0.036   -0.370 -0.141  0.111
 H         -0.010 -0.037 -0.012   -0.003 -0.027 -0.015    0.014  0.069  0.025
 H          0.596  0.234 -0.182    0.120  0.047 -0.039    0.493  0.192 -0.150
 N         -0.000  0.000 -0.000   -0.000  0.000 -0.000   -0.000 -0.000 -0.000
 H         -0.000  0.001 -0.001   -0.000  0.000  0.001   -0.000 -0.000 -0.004
 C          0.000  0.000 -0.000    0.000  0.000  0.000    0.001  0.000 -0.000
 H          0.000 -0.000 -0.000    0.000 -0.000 -0.000   -0.000 -0.000 -0.001
 O         -0.000  0.000  0.000   -0.000 -0.000 -0.000   -0.000 -0.000  0.000
 TransDip  -0.063  0.168  0.070   -0.111  0.023 -0.146   -0.087 -0.072  0.098

 Mode:                52                     53                     54
 Frequency:      3019.51                3020.96                3062.59
 Force Cnst:      5.7067                 5.7021                 6.0458
 Red. Mass:       1.0623                 1.0605                 1.0940
 IR Active:          YES                    YES                    YES
 IR Intens:       10.182                136.092                115.229
 Raman Active:       YES                    YES                    YES
               X      Y      Z        X      Y      Z        X      Y      Z
 C          0.009  0.020 -0.013   -0.007 -0.017  0.011   -0.017  0.004 -0.002
 C         -0.001  0.000  0.000    0.004  0.002 -0.000    0.006  0.003 -0.001
 C         -0.012  0.007  0.009   -0.014  0.007  0.010   -0.009 -0.017 -0.003
 C         -0.023 -0.035  0.023   -0.014 -0.031  0.020   -0.012  0.013 -0.009
 C         -0.000  0.000 -0.002   -0.015 -0.007 -0.022    0.027  0.011 -0.073
 C          0.035 -0.008 -0.020   -0.033  0.012  0.020    0.000 -0.020 -0.009
 H         -0.019 -0.155 -0.057   -0.019 -0.152 -0.056    0.016  0.168  0.064
 H          0.009  0.002 -0.002   -0.045 -0.020  0.011   -0.075 -0.033  0.017
 H         -0.267 -0.127  0.083    0.224  0.107 -0.070    0.080  0.042 -0.027
 H          0.155 -0.107  0.072   -0.141  0.098 -0.066    0.117 -0.087  0.059
 H          0.521  0.254 -0.164    0.407  0.199 -0.126   -0.031 -0.013  0.007
 H         -0.240  0.164 -0.110   -0.243  0.171 -0.113    0.178 -0.133  0.088
 H         -0.001 -0.004  0.020   -0.039 -0.013  0.313   -0.088 -0.029  0.834
 H          0.003  0.003 -0.001    0.219  0.096 -0.053   -0.247 -0.109  0.041
 H         -0.454 -0.179  0.137    0.429  0.169 -0.127   -0.021 -0.010  0.004
 H          0.035  0.270  0.097   -0.037 -0.309 -0.112    0.022  0.251  0.094
 H          0.161  0.066 -0.049    0.190  0.076 -0.057    0.087  0.031 -0.027
 N          0.000 -0.000  0.000    0.000  0.000 -0.000   -0.000 -0.000 -0.000
 H         -0.000  0.001  0.000    0.000  0.000 -0.002    0.001  0.000 -0.001
 C         -0.000 -0.000  0.000    0.000  0.000 -0.000    0.000  0.000  0.000
 H          0.000 -0.000  0.000   -0.000 -0.000 -0.000   -0.000 -0.000 -0.000
 O          0.000  0.000 -0.000    0.000  0.000  0.000   -0.000 -0.000  0.000
 TransDip   0.045 -0.091 -0.007   -0.306 -0.136  0.165   -0.025 -0.027 -0.342

 Mode:                55                     56                     57
 Frequency:      3063.93                3067.63                3069.21
 Force Cnst:      6.0684                 6.0861                 6.0843
 Red. Mass:       1.0971                 1.0977                 1.0962
 IR Active:          YES                    YES                    YES
 IR Intens:      116.391                 76.974                 83.540
 Raman Active:       YES                    YES                    YES
               X      Y      Z        X      Y      Z        X      Y      Z
 C          0.007 -0.009  0.006    0.011 -0.012  0.008   -0.039  0.015 -0.011
 C         -0.000  0.001 -0.000   -0.002 -0.001  0.002    0.023  0.010 -0.006
 C          0.002 -0.011 -0.006   -0.000  0.019  0.008   -0.023 -0.057 -0.014
 C          0.057 -0.020  0.014   -0.054  0.017 -0.011   -0.020 -0.004  0.002
 C         -0.001 -0.001  0.002   -0.022 -0.010  0.015   -0.014 -0.006  0.026
 C         -0.025 -0.056 -0.013   -0.023 -0.051 -0.010   -0.012 -0.008  0.002
 H          0.016  0.149  0.059   -0.024 -0.234 -0.091    0.062  0.604  0.237
 H         -0.000  0.001  0.000    0.035  0.015 -0.008   -0.288 -0.127  0.067
 H          0.034  0.015 -0.011    0.031  0.013 -0.010    0.131  0.071 -0.048
 H         -0.124  0.090 -0.063   -0.162  0.118 -0.083    0.334 -0.244  0.172
 H         -0.214 -0.116  0.075    0.222  0.121 -0.076    0.174  0.090 -0.058
 H         -0.468  0.351 -0.234    0.427 -0.322  0.213    0.067 -0.051  0.034
 H          0.003  0.000 -0.026    0.014  0.005 -0.141    0.029  0.009 -0.276
 H          0.012  0.003 -0.002    0.240  0.106 -0.047    0.147  0.065 -0.026
 H          0.242  0.084 -0.078    0.240  0.082 -0.075    0.139  0.051 -0.043
 H          0.052  0.590  0.224    0.046  0.524  0.197    0.004  0.046  0.017
 H         -0.032 -0.014  0.010    0.018  0.010 -0.006    0.217  0.075 -0.073
 N          0.000 -0.000  0.000   -0.000 -0.000 -0.000   -0.000  0.000  0.000
 H          0.000 -0.000 -0.000   -0.000 -0.000 -0.001    0.004  0.002 -0.002
 C          0.000 -0.000  0.000    0.000  0.000 -0.000    0.000  0.000  0.000
 H         -0.000  0.000  0.000   -0.000 -0.000 -0.000    0.000  0.000 -0.000
 O         -0.000  0.000 -0.000   -0.000 -0.000 -0.000   -0.000 -0.000  0.000
 TransDip   0.134 -0.318  0.013   -0.261 -0.104  0.010   -0.253 -0.148 -0.008

 Mode:                58                     59                     60
 Frequency:      3070.89                3097.44                3581.55
 Force Cnst:      6.1082                 6.1498                 8.1499
 Red. Mass:       1.0993                 1.0879                 1.0783
 IR Active:          YES                    YES                    YES
 IR Intens:       48.553                 54.342                 56.326
 Raman Active:       YES                    YES                    YES
               X      Y      Z        X      Y      Z        X      Y      Z
 C         -0.066  0.022 -0.016   -0.023  0.003 -0.002    0.000  0.000 -0.000
 C          0.004  0.002 -0.001   -0.071 -0.031  0.016   -0.001 -0.000 -0.001
 C          0.022  0.047  0.011   -0.012 -0.019 -0.002    0.000  0.000 -0.000
 C          0.013  0.000  0.000   -0.004 -0.001  0.001    0.000  0.000 -0.000
 C         -0.001 -0.001  0.003   -0.001 -0.000  0.002    0.000  0.000 -0.000
 C         -0.013 -0.011  0.001   -0.004 -0.002  0.001    0.000  0.000 -0.000
 H         -0.049 -0.486 -0.191    0.016  0.174  0.066    0.000 -0.000  0.000
 H         -0.053 -0.021  0.012    0.837  0.367 -0.185    0.009  0.004 -0.005
 H          0.252  0.134 -0.089    0.129  0.070 -0.041   -0.000  0.001  0.001
 H          0.537 -0.393  0.277    0.141 -0.105  0.071   -0.000  0.000 -0.000
 H         -0.094 -0.048  0.032    0.044  0.023 -0.017   -0.000 -0.000 -0.000
 H         -0.064  0.049 -0.032    0.008 -0.005  0.003   -0.000  0.000  0.000
 H          0.003  0.003 -0.033    0.002  0.001 -0.017   -0.000 -0.000  0.000
 H          0.016  0.005 -0.003    0.013  0.006 -0.002   -0.000 -0.000  0.000
 H          0.138  0.051 -0.044    0.046  0.017 -0.017   -0.000 -0.000 -0.000
 H          0.007  0.081  0.031    0.001  0.008  0.002   -0.000 -0.000 -0.000
 H         -0.206 -0.073  0.067    0.136  0.046 -0.040    0.000 -0.001  0.001
 N          0.000 -0.000  0.000    0.001  0.000  0.001   -0.064 -0.024  0.028
 H          0.001 -0.000 -0.000   -0.010 -0.004 -0.001    0.860  0.325 -0.388
 C          0.000  0.000  0.000   -0.002 -0.001 -0.000    0.001  0.000  0.002
 H          0.000 -0.000 -0.000    0.000 -0.000  0.001   -0.000 -0.000 -0.003
 O          0.000 -0.000  0.000    0.001  0.000 -0.001    0.001  0.000 -0.000
 TransDip  -0.126  0.184 -0.008   -0.204 -0.093  0.072    0.224  0.084 -0.022

 STANDARD THERMODYNAMIC QUANTITIES AT   298.18 K  AND     1.00 ATM

   This Molecule has  1 Imaginary Frequencies
   Zero point vibrational energy:      121.855 kcal/mol

   Atom    1 Element C  Has Mass   12.00000
   Atom    2 Element C  Has Mass   12.00000
   Atom    3 Element C  Has Mass   12.00000
   Atom    4 Element C  Has Mass   12.00000
   Atom    5 Element C  Has Mass   12.00000
   Atom    6 Element C  Has Mass   12.00000
   Atom    7 Element H  Has Mass    1.00783
   Atom    8 Element H  Has Mass    1.00783
   Atom    9 Element H  Has Mass    1.00783
   Atom   10 Element H  Has Mass    1.00783
   Atom   11 Element H  Has Mass    1.00783
   Atom   12 Element H  Has Mass    1.00783
   Atom   13 Element H  Has Mass    1.00783
   Atom   14 Element H  Has Mass    1.00783
   Atom   15 Element H  Has Mass    1.00783
   Atom   16 Element H  Has Mass    1.00783
   Atom   17 Element H  Has Mass    1.00783
   Atom   18 Element N  Has Mass   14.00307
   Atom   19 Element H  Has Mass    1.00783
   Atom   20 Element C  Has Mass   12.00000
   Atom   21 Element H  Has Mass    2.01410
   Atom   22 Element O  Has Mass   15.99491
   Molecular Mass:   128.106042 amu
   Principal axes and moments of inertia in amu*Bohr^2:
                             1           2           3
    Eigenvalues --      538.16322  2028.36367  2229.00680
          X               0.39065    -0.42735     0.81533
          Y               0.16117     0.90378     0.39649
          Z               0.90632     0.02348    -0.42193
   Rotational Symmetry Number is   1
   The Molecule is an Asymmetric Top
   Translational Enthalpy:        0.889 kcal/mol
   Rotational Enthalpy:           0.889 kcal/mol
   Vibrational Enthalpy:        125.140 kcal/mol
   gas constant (RT):             0.593 kcal/mol
   Translational Entropy:        40.457  cal/mol.K
   Rotational Entropy:           29.277  cal/mol.K
   Vibrational Entropy:          18.132  cal/mol.K

   Total Enthalpy:              127.510 kcal/mol
   Total Entropy:                87.866  cal/mol.K
Archival summary:
1\1\node029\FREQ\ProcedureUnspecified\6-31+G*\11713\ymao90\ThuApr815:37:162021ThuApr815:37:162021\0\\#,FREQ,ProcedureUnspecified,6-31+G*,\\0,1\N\H,1,1.01507\C,1,1.34698,2,116.826\H,3,1.10289,1,112.628,2,0.569776,0\O,3,1.23788,1,125.946,2,-179.521,0\C,1,1.46644,2,117.65,3,-179.265,0\H,6,1.09469,1,105.886,2,-177.075,0\C,6,1.53891,1,110.604,2,-59.0662,0\H,8,1.0974,6,109.432,1,-58.8858,0\H,8,1.10093,6,108.789,1,57.7726,0\C,8,1.53786,6,111.37,1,178.507,0\H,11,1.09771,8,109.633,6,-177.621,0\H,11,1.10036,8,109.139,6,65.9178,0\C,11,1.53688,8,111.645,6,-54.9337,0\H,14,1.09796,11,110.126,8,177.2,0\H,14,1.1007,11,109.247,8,-65.8738,0\C,14,1.53687,11,111.232,8,54.798,0\H,17,1.09772,14,110.419,11,-177.074,0\H,17,1.10039,14,109.237,11,65.9582,0\C,17,1.53782,14,111.598,11,-54.8337,0\H,20,1.09737,17,110.635,14,176.915,0\H,20,1.10079,17,109.512,14,-65.2937,0\\\@

 Total job time:  895.12s(wall), 12282.60s(cpu) 
 Thu Apr  8 15:37:16 2021

        *************************************************************
        *                                                           *
        *  Thank you very much for using Q-Chem.  Have a nice day.  *
        *                                                           *
        *************************************************************


