                  Welcome to Q-Chem
     A Quantum Leap Into The Future Of Chemistry


 Q-Chem 5.2 (devel), Q-Chem, Inc., Pleasanton, CA (2019)

 Yihan Shao,  Zhengting Gan,  E. Epifanovsky,  A. T. B. Gilbert,  M. Wormit,  
 J. Kussmann,  A. W. Lange,  A. Behn,  Jia Deng,  Xintian Feng,  D. Ghosh,  
 M. Goldey,  P. R. Horn,  L. D. Jacobson,  I. Kaliman,  T. Kus,  A. Landau,  
 Jie Liu,  E. I. Proynov,  R. M. Richard,  R. P. Steele,  E. J. Sundstrom,  
 H. L. Woodcock III,  P. M. Zimmerman,  D. Zuev,  B. Alam,  B. Albrecht,  
 E. Alguire,  S. A. Baeppler,  D. Barton,  Z. Benda,  Y. A. Bernard,  
 E. J. Berquist,  K. B. Bravaya,  H. Burton,  K. Carter-Fenk,  D. Casanova,  
 Chun-Min Chang,  Yunqing Chen,  A. Chien,  K. D. Closser,  M. P. Coons,  
 S. Coriani,  S. Dasgupta,  A. L. Dempwolff,  M. Diedenhofen,  Hainam Do,  
 R. G. Edgar,  Po-Tung Fang,  S. Faraji,  S. Fatehi,  Qingguo Feng,  
 J. Fosso-Tande,  J. Gayvert,  Qinghui Ge,  A. Ghysels,  G. Gidofalvi,  
 J. Gomes,  J. Gonthier,  A. Gunina,  D. Hait,  M. W. D. Hanson-Heine,  
 P. H. P. Harbach,  A. W. Hauser,  M. F. Herbst,  J. E. Herr,  
 E. G. Hohenstein,  Z. C. Holden,  Kerwin Hui,  B. C. Huynh,  T.-C. Jagau,  
 Hyunjun Ji,  B. Kaduk,  K. Khistyaev,  Jaehoon Kim,  P. Klunzinger,  K. Koh,  
 D. Kosenkov,  L. Koulias,  T. Kowalczyk,  C. M. Krauter,  A. Kunitsa,  
 Ka Un Lao,  A. Laurent,  K. V. Lawler,  Joonho Lee,  D. Lefrancois,  
 S. Lehtola,  D. S. Levine,  Yi-Pei Li,  You-Sheng Lin,  Fenglai Liu,  
 Kuan-Yu Liu,  E. Livshits,  M. Loipersberger,  A. Luenser,  P. Manohar,  
 E. Mansoor,  S. F. Manzer,  Shan-Ping Mao,  Yuezhi Mao,  N. Mardirossian,  
 A. V. Marenich,  T. Markovich,  L. A. Martinez-Martinez,  S. A. Maurer,  
 N. J. Mayhall,  S. C. McKenzie,  J.-M. Mewes,  P. Morgante,  A. F. Morrison,  
 J. W. Mullinax,  K. Nanda,  T. S. Nguyen-Beck,  R. Olivares-Amaya,  
 J. A. Parkhill,  S. K. Paul,  F. Pavosevic,  Zheng Pei,  T. M. Perrine,  
 F. Plasser,  P. Pokhilko,  S. Prager,  A. Prociuk,  E. Ramos,  B. Rana,  
 D. R. Rehn,  F. Rob,  M. Scheurer,  M. Schneider,  N. Sergueev,  
 S. M. Sharada,  S. Sharma,  D. W. Small,  T. Stauch,  C. J. Stein,  
 T. Stein,  Yu-Chuan Su,  S. P. Veccham,  Zhen Tao,  A. J. W. Thom,  
 A. Tkatchenko,  T. Tsuchimochi,  N. M. Tubman,  L. Vogt,  M. L. Vidal,  
 O. Vydrov,  M. A. Watson,  J. Wenzel,  M. de Wergifosse,  T. A. Wesolowski,  
 A. White,  J. Witte,  A. Yamada,  Jun Yang,  K. Yao,  S. Yeganeh,  
 S. R. Yost,  Zhi-Qiang You,  A. Zech,  Igor Ying Zhang,  Xing Zhang,  
 Yan Zhao,  Ying Zhu,  B. R. Brooks,  G. K. L. Chan,  C. J. Cramer,  
 M. S. Gordon,  W. J. Hehre,  A. Klamt,  M. W. Schmidt,  C. D. Sherrill,  
 D. G. Truhlar,  A. Aspuru-Guzik,  R. Baer,  A. T. Bell,  N. A. Besley,  
 Jeng-Da Chai,  A. E. DePrince, III,  R. A. DiStasio Jr.,  A. Dreuw,  
 B. D. Dunietz,  T. R. Furlani,  Chao-Ping Hsu,  Yousung Jung,  Jing Kong,  
 D. S. Lambrecht,  WanZhen Liang,  C. Ochsenfeld,  V. A. Rassolov,  
 L. V. Slipchenko,  J. E. Subotnik,  T. Van Voorhis,  J. M. Herbert,  
 A. I. Krylov,  P. M. W. Gill,  M. Head-Gordon

 Contributors to earlier versions of Q-Chem not listed above: 
 R. D. Adamson,  B. Austin,  J. Baker,  G. J. O. Beran,  K. Brandhorst,  
 S. T. Brown,  E. F. C. Byrd,  A. K. Chakraborty,  C.-L. Cheng,  
 Siu Hung Chien,  D. M. Chipman,  D. L. Crittenden,  H. Dachsel,  
 R. J. Doerksen,  A. D. Dutoi,  L. Fusti-Molnar,  W. A. Goddard III,  
 A. Golubeva-Zadorozhnaya,  S. R. Gwaltney,  G. Hawkins,  A. Heyden,  
 S. Hirata,  G. Kedziora,  F. J. Keil,  C. Kelley,  Jihan Kim,  R. A. King,  
 R. Z. Khaliullin,  P. P. Korambath,  W. Kurlancheek,  A. M. Lee,  M. S. Lee,  
 S. V. Levchenko,  Ching Yeh Lin,  D. Liotard,  R. C. Lochan,  I. Lotan,  
 P. E. Maslen,  N. Nair,  D. P. O'Neill,  D. Neuhauser,  E. Neuscamman,  
 C. M. Oana,  R. Olson,  B. Peters,  R. Peverati,  P. A. Pieniazek,  
 Y. M. Rhee,  J. Ritchie,  M. A. Rohrdanz,  E. Rosta,  N. J. Russ,  
 H. F. Schaefer III,  N. E. Schultz,  N. Shenvi,  A. C. Simmonett,  A. Sodt,  
 D. Stuck,  K. S. Thanthiriwatte,  V. Vanovschi,  Tao Wang,  A. Warshel,  
 C. F. Williams,  Q. Wu,  X. Xu,  W. Zhang

 Please cite Q-Chem as follows:
 Y. Shao et al., Mol. Phys. 113, 184-215 (2015)
 DOI: 10.1080/00268976.2014.952696

 Q-Chem 5.2.2 for Intel X86 EM64T Linux

 Parts of Q-Chem use Armadillo 9.800.1 (Horizon Scraper).
 http://arma.sourceforge.net/

 Q-Chem begins on Thu Apr  8 15:08:48 2021  

Host: node028
0

     Scratch files written to /home/ymao90/scratch/probe_b3lyp_acetone20210408150847//
Symmetry turned off for PCM/SM12/SMD calculation

Checking the input file for inconsistencies... 	...done.

--------------------------------------------------------------
User input:
--------------------------------------------------------------
$molecule
0 1
C    0.58000    11.83000   20.41000  
C    0.42000    10.41000   19.83000  
C    1.53000    9.53000    20.44000  
C    1.44000    9.53000    21.98000  
C    1.37000    10.92000   22.65000  
C    0.42000    11.90000   21.94000  
H    1.49000    8.50000    20.05000  
H    -0.52000   10.00000   20.20000  
H    1.40000    12.47000   20.08000  
H    -0.28000   12.43000   20.08000  
H    0.54000    9.00000    22.28000  
H    2.32000    8.99000    22.34000  
H    1.27000    10.83000   23.73000  
H    2.37000    11.32000   22.50000  
H    -0.63000   11.62000   22.11000  
H    0.56000    12.91000   22.33000  
H    2.51000    9.84000    20.07000  
N    0.54000    10.41000   18.38000  
H    1.39000    10.78000   17.99000  
C    -0.47000   10.09000   17.50000  
H    -0.16000   10.30000   16.46000  
O    -1.56000   9.66000    17.84000  
$end

$rem
JOBTYPE  OPT
METHOD  B3LYP
BASIS  6-31+G(D)
SYMMETRY  FALSE
SYM_IGNORE  FALSE
MEM_TOTAL  8000
MEM_STATIC  2000
MAX_SUB_FILE_NUM  16000
BASIS_LIN_DEP_THRESH  6
THRESH  14
SCF_CONVERGENCE  8
GEN_SCFMAN  TRUE
SCF_GUESS  SAD
FD_MAT_VEC_PROD  FALSE
XC_GRID  000099000590
NL_GRID  1
MAX_SCF_CYCLES  200
GEOM_OPT_TOL_GRADIENT  100
GEOM_OPT_TOL_DISPLACEMENT  100
GEOM_OPT_TOL_ENERGY  10
SOLVENT_METHOD       PCM
$end

$PCM
THEORY                     CPCM
METHOD                     SWIG
SOLVER                     INVERSION
HPOINTS                    302
HEAVYPOINTS                302
$END

$SOLVENT
DIELECTRIC                 20.49
$END

--------------------------------------------------------------
 ----------------------------------------------------------------
             Standard Nuclear Orientation (Angstroms)
    I     Atom           X                Y                Z
 ----------------------------------------------------------------
    1      C       0.5800000000    11.8300000000    20.4100000000
    2      C       0.4200000000    10.4100000000    19.8300000000
    3      C       1.5300000000     9.5300000000    20.4400000000
    4      C       1.4400000000     9.5300000000    21.9800000000
    5      C       1.3700000000    10.9200000000    22.6500000000
    6      C       0.4200000000    11.9000000000    21.9400000000
    7      H       1.4900000000     8.5000000000    20.0500000000
    8      H      -0.5200000000    10.0000000000    20.2000000000
    9      H       1.4000000000    12.4700000000    20.0800000000
   10      H      -0.2800000000    12.4300000000    20.0800000000
   11      H       0.5400000000     9.0000000000    22.2800000000
   12      H       2.3200000000     8.9900000000    22.3400000000
   13      H       1.2700000000    10.8300000000    23.7300000000
   14      H       2.3700000000    11.3200000000    22.5000000000
   15      H      -0.6300000000    11.6200000000    22.1100000000
   16      H       0.5600000000    12.9100000000    22.3300000000
   17      H       2.5100000000     9.8400000000    20.0700000000
   18      N       0.5400000000    10.4100000000    18.3800000000
   19      H       1.3900000000    10.7800000000    17.9900000000
   20      C      -0.4700000000    10.0900000000    17.5000000000
   21      H      -0.1600000000    10.3000000000    16.4600000000
   22      O      -1.5600000000     9.6600000000    17.8400000000
 ----------------------------------------------------------------
 Nuclear Repulsion Energy =         465.59151226 hartrees
 There are       35 alpha and       35 beta electrons
 Requested basis set is 6-31+G(d)
 There are 71 shells and 197 basis functions

 Total QAlloc Memory Limit   8000 MB
 Mega-Array Size      1956 MB
 MEM_STATIC part      2000 MB
 Discretize the solute cavity surface with Lebedev spheres
	Using 302 Lebedev grid points for each H atom
	Using 302 Lebedev grid points for other atoms
	Atomic van der Waals radii will be scaled by 1.20
 Remove points where switching function is < 1.0e-08
 Keep 2715 surface tesserae and discard 3929 interior tesserae
 Molecular Surface Area = 182.762 Angst**2
 A cutoff of  1.0D-14 yielded   2410 shell pairs
 There are     18990 function pairs
 Smallest overlap matrix eigenvalue = 2.31E-05

 Scale SEOQF with 1.000000e-01/1.000000e-02/1.000000e-03

 Standard Electronic Orientation quadrupole field applied
 Nucleus-field energy     =     0.0000000281 hartrees
 Guess from superposition of atomic densities
 Warning:  Energy on first SCF cycle will be non-variational
 SAD guess density has 70.000000 electrons

 -----------------------------------------------------------------------
  General SCF calculation program by
  Eric Jon Sundstrom, Paul Horn, Yuezhi Mao, Dmitri Zuev, Alec White,
  David Stuck, Shaama M.S., Shane Yost, Joonho Lee, David Small,
  Daniel Levine, Susi Lehtola, Hugh Burton, Evgeny Epifanovsky,
  Bang C. Huynh
 -----------------------------------------------------------------------
 Exchange:     0.2000 Hartree-Fock + 0.0800 Slater + 0.7200 B88
 Correlation:  0.1900 VWN1RPA + 0.8100 LYP
 Using Euler-Maclaurin-Lebedev (99,590) quadrature formula
 using 16 threads for integral computing
 -------------------------------------------------------
 OpenMP Integral computing Module                
 Release: version 2.0, May 2017, Q-Chem Inc. Pleasanton 
 -------------------------------------------------------
 A restricted SCF calculation will be
 performed using DIIS
 SCF converges when DIIS error is below 1.0e-08
 ---------------------------------------
  Cycle       Energy         DIIS error
 ---------------------------------------
    1    -406.2393373780      5.09e-02  
    2    -404.3906313000      6.42e-03  
    3    -404.1742259100      9.87e-03  
    4    -404.5665892183      1.96e-03  
    5    -404.5809203461      5.34e-04  
    6    -404.5820310644      1.55e-04  
    7    -404.5821245460      5.52e-05  
    8    -404.5821374242      9.76e-06  
    9    -404.5821378205      2.33e-06  
   10    -404.5821378435      5.44e-07  
   11    -404.5821378447      1.86e-07  
   12    -404.5821378448      2.29e-08  
   13    -404.5821378448      5.78e-09  Convergence criterion met
 ---------------------------------------
 SCF time:   CPU 885.08s  wall 60.00s 

************** Final PCM Free Energy Summary **************
 G_electrostatic  =      -0.01732379 hartree =     -10.87084121 kcal/mol
 G_cavitation     =       0.00000000 hartree =       0.00000000 kcal/mol
 G_dispersion     =       0.00000000 hartree =       0.00000000 kcal/mol
 G_repulsion      =       0.00000000 hartree =       0.00000000 kcal/mol
 --------------------------------------------------
 Non-electrostatic Free Energy =       0.00000000 hartree =       0.00000000 kcal/mol
 Total                         =      -0.01732379 hartree =     -10.87084121 kcal/mol
 --------------------------------------------------
 SCF Energy (H0 + V/2)                       =    -404.58213784 
 Solute Internal Energy (H0)                 =    -404.56481406 
 Total Free Energy (H0 + V/2 + non-elec)     =    -404.58213784 hartree
                                             = -253879.12329506 kcal/mol
***********************************************************

 SCF   energy in the final basis set =     -404.5821378448
 Total energy in the final basis set =     -404.5821378448
 
 --------------------------------------------------------------
 
                    Orbital Energies (a.u.)
 --------------------------------------------------------------
 
 Alpha MOs
 -- Occupied --
-19.1401 -14.3683 -10.2970 -10.2280 -10.1802 -10.1800 -10.1799 -10.1774
-10.1740  -1.0505  -0.9296  -0.8211  -0.7424  -0.7399  -0.6388  -0.6105
 -0.5931  -0.5610  -0.5288  -0.4852  -0.4600  -0.4441  -0.4408  -0.4234
 -0.4194  -0.3980  -0.3787  -0.3668  -0.3484  -0.3452  -0.3202  -0.3054
 -0.3038  -0.2761  -0.2565
 -- Virtual --
  0.0051   0.0091   0.0180   0.0247   0.0259   0.0412   0.0490   0.0498
  0.0585   0.0683   0.0704   0.0840   0.0865   0.0964   0.1023   0.1051
  0.1121   0.1165   0.1306   0.1343   0.1407   0.1510   0.1559   0.1646
  0.1709   0.1802   0.1818   0.1861   0.2010   0.2035   0.2098   0.2113
  0.2199   0.2266   0.2336   0.2441   0.2509   0.2558   0.2654   0.2709
  0.2757   0.2793   0.2841   0.2913   0.3026   0.3059   0.3160   0.3273
  0.3347   0.3395   0.3504   0.3746   0.3792   0.3818   0.4161   0.4277
  0.4391   0.4559   0.4862   0.6125   0.6446   0.6608   0.6638   0.6743
  0.6919   0.7048   0.7257   0.7322   0.7484   0.7527   0.7696   0.7786
  0.7951   0.8077   0.8298   0.8392   0.8685   0.8990   0.9503   0.9718
  0.9865   0.9983   1.0253   1.0279   1.0408   1.0616   1.0761   1.1142
  1.1198   1.1280   1.1348   1.1415   1.1454   1.1647   1.1760   1.1917
  1.2394   1.2442   1.2850   1.3162   1.3289   1.3712   1.4088   1.4190
  1.4686   1.4881   1.4961   1.5583   1.5853   1.6174   1.6710   1.7081
  1.7375   1.7597   1.7772   1.7797   1.8255   1.8692   1.8915   1.9007
  1.9231   1.9581   1.9744   2.0052   2.0064   2.0392   2.0719   2.0844
  2.0989   2.1404   2.1871   2.2106   2.2826   2.3033   2.3158   2.3428
  2.3880   2.3971   2.4369   2.4471   2.4613   2.5601   2.5727   2.6125
  2.6789   2.6960   2.7045   2.7520   2.7772   2.8340   2.8738   3.0076
  3.1828   4.0833   4.1859   4.2283   4.2976   4.3451   4.4125   4.5906
  4.6106   4.6591
 --------------------------------------------------------------
 
          Ground-State Mulliken Net Atomic Charges

     Atom                 Charge (a.u.)
  ----------------------------------------
      1 C                    -0.335302
      2 C                    -0.431874
      3 C                    -0.295176
      4 C                    -0.448879
      5 C                    -0.357661
      6 C                    -0.451290
      7 H                     0.209652
      8 H                     0.236441
      9 H                     0.223242
     10 H                     0.210818
     11 H                     0.206280
     12 H                     0.202278
     13 H                     0.201795
     14 H                     0.198601
     15 H                     0.203086
     16 H                     0.206920
     17 H                     0.214263
     18 N                    -0.388439
     19 H                     0.452345
     20 C                     0.342132
     21 H                     0.186472
     22 O                    -0.585705
  ----------------------------------------
  Sum of atomic charges =     0.000000

 -----------------------------------------------------------------
                    Cartesian Multipole Moments
 -----------------------------------------------------------------
    Charge (ESU x 10^10)
                 0.0000
    Dipole Moment (Debye)
         X       5.0045      Y       2.2168      Z       0.7184
       Tot       5.5204
    Quadrupole Moments (Debye-Ang)
        XX     -61.0678     XY      49.9285     YY     -11.8038
        XZ      90.1884     YZ      47.8297     ZZ     -25.3901
    Octopole Moments (Debye-Ang^2)
       XXX     -71.4457    XXY    -634.2089    XYY     471.3059
       YYY   -1100.4823    XXZ   -1221.5503    XYZ     900.9041
       YYZ    -248.4717    XZZ    1597.6128    YZZ     467.2227
       ZZZ   -2436.3861
    Hexadecapole Moments (Debye-Ang^3)
      XXXX    -514.8802   XXXY    -765.6665   XXYY   -6738.6565
      XYYY    4123.3307   YYYY  -28533.7011   XXXZ   -1693.1494
      XXYZ  -12737.5832   XYYZ    8384.2883   YYYZ  -22814.5878
      XXZZ  -24751.1747   XYZZ   15965.1987   YYZZ  -11276.1677
      XZZZ   27393.6600   YZZZ  -12272.6428   ZZZZ -112137.5280
 -----------------------------------------------------------------
 Calculating analytic gradient of the SCF energy
 Gradient of SCF Energy
            1           2           3           4           5           6
    1   0.0283173  -0.0362619  -0.0061836   0.0011936  -0.0256597   0.0074058
    2  -0.0380564  -0.0032063   0.0080359   0.0024665  -0.0026342   0.0210994
    3  -0.0004488  -0.0124437   0.0051023  -0.0021354   0.0179440  -0.0084019
            7           8           9          10          11          12
    1   0.0101370   0.0084709  -0.0113469   0.0023472   0.0031552   0.0043874
    2  -0.0009219  -0.0005331   0.0184628   0.0032984   0.0105582   0.0019843
    3  -0.0046597   0.0136633   0.0037316   0.0088704   0.0002810  -0.0064870
           13          14          15          16          17          18
    1   0.0095912  -0.0070783  -0.0015071   0.0006874   0.0003132   0.0214938
    2  -0.0003498  -0.0078170  -0.0008154  -0.0004368  -0.0101060   0.0019291
    3  -0.0018738  -0.0032343  -0.0080815   0.0036559  -0.0065457   0.0156307
           19          20          21          22
    1   0.0061863  -0.0446300   0.0088614   0.0201199
    2   0.0024140  -0.0193445   0.0065213   0.0074514
    3  -0.0024796  -0.0098170  -0.0028410   0.0005702
 Max gradient component =       4.463E-02
 RMS gradient           =       1.281E-02
 Computing fast CPCM-SWIG gradient
 Updating gradient with PCM contributions...
 -- total gradient after adding PCM contribution --
---------------------------------------------------
  Atom         X              Y              Z     
---------------------------------------------------
   1       0.031379      -0.028850      -0.003637
   2      -0.035304      -0.003201      -0.015049
   3       0.002253       0.006711       0.000996
   4       0.001098      -0.001745       0.001064
   5      -0.019911      -0.001074       0.020781
   6       0.003872       0.024024      -0.005459
   7       0.008998       0.000299      -0.003961
   8       0.006767      -0.001249       0.012106
   9      -0.015311       0.014111       0.005464
  10       0.002888       0.001876       0.008768
  11       0.004709       0.010869      -0.000192
  12       0.001656       0.002922      -0.006867
  13       0.009316      -0.000128      -0.004199
  14      -0.009747      -0.008642      -0.002332
  15       0.000127      -0.000269      -0.007857
  16      -0.000119      -0.003465       0.002665
  17      -0.004712      -0.011486      -0.003967
  18       0.031561       0.006935       0.011778
  19      -0.006497      -0.003221       0.003060
  20      -0.037917      -0.016733      -0.015418
  21       0.004659       0.004485       0.000708
  22       0.020235       0.007830       0.001550
---------------------------------------------------
 Number of fixed atoms: 0
 Gradient time:  CPU 127.01 s  wall 11.65 s
 Geometry Optimization Parameters
   NAtoms,    NIC,     NZ,  NCons,   NDum,   NFix, NCnnct, MaxDiis
       22     172       0       0       0       0       0       0


** GEOMETRY OPTIMIZATION IN DELOCALIZED INTERNAL COORDINATES **
   Searching for a Minimum

   Optimization Cycle:   1

                       Coordinates (Angstroms)
     ATOM                X               Y               Z
      1  C         0.5800000000   11.8300000000   20.4100000000
      2  C         0.4200000000   10.4100000000   19.8300000000
      3  C         1.5300000000    9.5300000000   20.4400000000
      4  C         1.4400000000    9.5300000000   21.9800000000
      5  C         1.3700000000   10.9200000000   22.6500000000
      6  C         0.4200000000   11.9000000000   21.9400000000
      7  H         1.4900000000    8.5000000000   20.0500000000
      8  H        -0.5200000000   10.0000000000   20.2000000000
      9  H         1.4000000000   12.4700000000   20.0800000000
     10  H        -0.2800000000   12.4300000000   20.0800000000
     11  H         0.5400000000    9.0000000000   22.2800000000
     12  H         2.3200000000    8.9900000000   22.3400000000
     13  H         1.2700000000   10.8300000000   23.7300000000
     14  H         2.3700000000   11.3200000000   22.5000000000
     15  H        -0.6300000000   11.6200000000   22.1100000000
     16  H         0.5600000000   12.9100000000   22.3300000000
     17  H         2.5100000000    9.8400000000   20.0700000000
     18  N         0.5400000000   10.4100000000   18.3800000000
     19  H         1.3900000000   10.7800000000   17.9900000000
     20  C        -0.4700000000   10.0900000000   17.5000000000
     21  H        -0.1600000000   10.3000000000   16.4600000000
     22  O        -1.5600000000    9.6600000000   17.8400000000
   Point Group: c1    Number of degrees of freedom:    60


   Energy is   -404.582137845


 Attempting to generate delocalized internal coordinates
 Initial Hessian constructed with Jon Baker's OPTIMIZE code

 60 Hessian modes will be used to form the next step
  Hessian Eigenvalues:
     0.004850    0.005407    0.006560    0.008376    0.012775    0.018054
     0.018651    0.018677    0.019042    0.033610    0.034591    0.037072
     0.041066    0.046592    0.048162    0.049493    0.050142    0.053390
     0.056519    0.060833    0.066651    0.080982    0.082752    0.082982
     0.085572    0.087172    0.089974    0.096067    0.124538    0.124890
     0.139174    0.159119    0.160000    0.162683    0.172956    0.213045
     0.220010    0.220236    0.268980    0.271008    0.272947    0.282129
     0.284145    0.285211    0.330973    0.334522    0.336922    0.337577
     0.344187    0.345335    0.346174    0.346647    0.347861    0.350043
     0.351115    0.351977    0.376029    0.466943    0.496029    0.953470

 Minimum search - taking simple RFO step
 Searching for Lamda that Minimizes Along All modes
 Value Taken    Lamda =  -0.02467461
 Calculated Step too Large.  Step scaled by  0.539848
 Step Taken.  Stepsize is  0.300000

                             Maximum     Tolerance    Cnvgd?
         Gradient           0.023271      0.000100      NO
         Displacement       0.182985      0.000100      NO
         Energy change     *********      0.000000      NO


 New Cartesian Coordinates Obtained by Inverse Iteration

 Displacement from previous Coordinates is:  0.266936
 ----------------------------------------------------------------
             Standard Nuclear Orientation (Angstroms)
    I     Atom           X                Y                Z
 ----------------------------------------------------------------
    1      C       0.5515947615    11.8426293814    20.4041805012
    2      C       0.4307385051    10.4213735553    19.8311070830
    3      C       1.5291670382     9.5322768450    20.4535906192
    4      C       1.4378934559     9.5176770581    21.9896789372
    5      C       1.3993513615    10.9216547887    22.6312854159
    6      C       0.4159365497    11.8824408943    21.9422709920
    7      H       1.4702936735     8.5049185414    20.0608128517
    8      H      -0.5270009026    10.0120090592    20.1564643697
    9      H       1.4045908733    12.4403898817    20.0662626882
   10      H      -0.3039470868    12.4344384989    20.0394538880
   11      H       0.5319153624     8.9811504502    22.2855587393
   12      H       2.3068456133     8.9681225608    22.3672141021
   13      H       1.2802445279    10.8439444429    23.7141551179
   14      H       2.4025620086    11.3384452055    22.4830342412
   15      H      -0.6235447005    11.5916311244    22.1588639458
   16      H       0.5569603651    12.8966765565    22.3257506080
   17      H       2.5172037672     9.8610879402    20.1079698454
   18      N       0.5400293928    10.4257776419    18.3797828086
   19      H       1.3921324455    10.7969020014    17.9836796497
   20      C      -0.4646549471    10.1066172624    17.5096877299
   21      H      -0.1568255450    10.2840806858    16.4642706495
   22      O      -1.5614865196     9.6657556242    17.8349252165
 ----------------------------------------------------------------
 Nuclear Repulsion Energy =         465.46057015 hartrees
 There are       35 alpha and       35 beta electrons
 Discretize the solute cavity surface with Lebedev spheres
	Using 302 Lebedev grid points for each H atom
	Using 302 Lebedev grid points for other atoms
	Atomic van der Waals radii will be scaled by 1.20
 Remove points where switching function is < 1.0e-08
 Keep 2737 surface tesserae and discard 3907 interior tesserae
 Molecular Surface Area = 182.933 Angst**2
 Applying Cartesian multipole field
    Component          Value
    ---------          -----
     (2,0,0)        1.00000E-11
     (0,2,0)        2.00000E-12
     (0,0,2)       -3.00000E-13
 Nucleus-field energy     =     0.0000000281 hartrees
 Requested basis set is 6-31+G(d)
 There are 71 shells and 197 basis functions
 A cutoff of  1.0D-14 yielded   2411 shell pairs
 There are     18991 function pairs
 Smallest overlap matrix eigenvalue = 2.36E-05
 Guess MOs from SCF MO coefficient file

 -----------------------------------------------------------------------
  General SCF calculation program by
  Eric Jon Sundstrom, Paul Horn, Yuezhi Mao, Dmitri Zuev, Alec White,
  David Stuck, Shaama M.S., Shane Yost, Joonho Lee, David Small,
  Daniel Levine, Susi Lehtola, Hugh Burton, Evgeny Epifanovsky,
  Bang C. Huynh
 -----------------------------------------------------------------------
 Exchange:     0.2000 Hartree-Fock + 0.0800 Slater + 0.7200 B88
 Correlation:  0.1900 VWN1RPA + 0.8100 LYP
 Using Euler-Maclaurin-Lebedev (99,590) quadrature formula
 using 16 threads for integral computing
 -------------------------------------------------------
 OpenMP Integral computing Module                
 Release: version 2.0, May 2017, Q-Chem Inc. Pleasanton 
 -------------------------------------------------------
 A restricted SCF calculation will be
 performed using Roothaan-Hall, DIIS
 SCF converges when DIIS error is below 1.0e-08
 ---------------------------------------
  Cycle       Energy         DIIS error
 ---------------------------------------
    1    -404.5739010525      7.11e-04  Roothaan Step
 ---------------------------------------
  Cycle       Energy         DIIS error
 ---------------------------------------
    1    -404.5827921750      1.20e-03  
    2    -404.5671446996      2.60e-03  
    3    -404.5927078390      2.02e-04  
    4    -404.5928535524      1.16e-04  
    5    -404.5929053889      3.45e-05  
    6    -404.5929102532      8.98e-06  
    7    -404.5929105745      2.82e-06  
    8    -404.5929106125      5.29e-07  
    9    -404.5929106136      2.35e-07  
   10    -404.5929106139      4.33e-08  
   11    -404.5929106139      1.26e-08  
   12    -404.5929106139      2.92e-09  Convergence criterion met
 ---------------------------------------
 SCF time:   CPU 880.28s  wall 62.00s 

************** Final PCM Free Energy Summary **************
 G_electrostatic  =      -0.01776861 hartree =     -11.14997325 kcal/mol
 G_cavitation     =       0.00000000 hartree =       0.00000000 kcal/mol
 G_dispersion     =       0.00000000 hartree =       0.00000000 kcal/mol
 G_repulsion      =       0.00000000 hartree =       0.00000000 kcal/mol
 --------------------------------------------------
 Non-electrostatic Free Energy =       0.00000000 hartree =       0.00000000 kcal/mol
 Total                         =      -0.01776861 hartree =     -11.14997325 kcal/mol
 --------------------------------------------------
 SCF Energy (H0 + V/2)                       =    -404.59291061 
 Solute Internal Energy (H0)                 =    -404.57514200 
 Total Free Energy (H0 + V/2 + non-elec)     =    -404.59291061 hartree
                                             = -253885.88330967 kcal/mol
***********************************************************

 SCF   energy in the final basis set =     -404.5929106139
 Total energy in the final basis set =     -404.5929106139
 
 --------------------------------------------------------------
 
                    Orbital Energies (a.u.)
 --------------------------------------------------------------
 
 Alpha MOs
 -- Occupied --
-19.1386 -14.3698 -10.2961 -10.2267 -10.1815 -10.1811 -10.1803 -10.1787
-10.1761  -1.0469  -0.9314  -0.8211  -0.7413  -0.7407  -0.6384  -0.6110
 -0.5926  -0.5612  -0.5274  -0.4849  -0.4594  -0.4431  -0.4392  -0.4216
 -0.4194  -0.3966  -0.3782  -0.3703  -0.3480  -0.3442  -0.3197  -0.3088
 -0.3065  -0.2746  -0.2584
 -- Virtual --
  0.0059   0.0093   0.0178   0.0244   0.0259   0.0412   0.0489   0.0493
  0.0587   0.0685   0.0704   0.0841   0.0867   0.0967   0.1018   0.1051
  0.1120   0.1167   0.1290   0.1341   0.1409   0.1513   0.1557   0.1632
  0.1708   0.1801   0.1817   0.1865   0.2010   0.2025   0.2106   0.2110
  0.2213   0.2269   0.2329   0.2454   0.2503   0.2559   0.2645   0.2717
  0.2762   0.2804   0.2841   0.2902   0.3021   0.3047   0.3150   0.3267
  0.3338   0.3361   0.3526   0.3748   0.3802   0.3831   0.4165   0.4241
  0.4387   0.4546   0.4847   0.6108   0.6430   0.6602   0.6641   0.6725
  0.6891   0.7025   0.7262   0.7317   0.7481   0.7523   0.7710   0.7788
  0.7966   0.8058   0.8267   0.8385   0.8645   0.9032   0.9515   0.9729
  0.9845   0.9962   1.0232   1.0280   1.0377   1.0599   1.0784   1.1102
  1.1197   1.1267   1.1305   1.1418   1.1570   1.1679   1.1779   1.1857
  1.2410   1.2433   1.2826   1.3189   1.3289   1.3695   1.4112   1.4132
  1.4653   1.4873   1.4952   1.5600   1.5837   1.6190   1.6816   1.7185
  1.7366   1.7596   1.7738   1.7841   1.8277   1.8682   1.8976   1.9024
  1.9211   1.9475   1.9733   1.9988   2.0086   2.0385   2.0687   2.0839
  2.1076   2.1238   2.1932   2.2086   2.2799   2.3032   2.3125   2.3434
  2.3952   2.3992   2.4291   2.4326   2.4544   2.5587   2.5748   2.6158
  2.6841   2.6901   2.7024   2.7536   2.7732   2.8365   2.8690   3.0024
  3.1839   4.0862   4.1870   4.2276   4.2957   4.3407   4.4139   4.5947
  4.6066   4.6632
 --------------------------------------------------------------
 
          Ground-State Mulliken Net Atomic Charges

     Atom                 Charge (a.u.)
  ----------------------------------------
      1 C                    -0.320198
      2 C                    -0.418142
      3 C                    -0.301291
      4 C                    -0.448944
      5 C                    -0.364645
      6 C                    -0.453516
      7 H                     0.209729
      8 H                     0.232601
      9 H                     0.219530
     10 H                     0.209817
     11 H                     0.206377
     12 H                     0.203052
     13 H                     0.200754
     14 H                     0.199265
     15 H                     0.204586
     16 H                     0.205552
     17 H                     0.213225
     18 N                    -0.384455
     19 H                     0.451752
     20 C                     0.345037
     21 H                     0.184560
     22 O                    -0.594647
  ----------------------------------------
  Sum of atomic charges =     0.000000

 -----------------------------------------------------------------
                    Cartesian Multipole Moments
 -----------------------------------------------------------------
    Charge (ESU x 10^10)
                -0.0000
    Dipole Moment (Debye)
         X       5.1303      Y       2.2167      Z       0.8542
       Tot       5.6536
    Quadrupole Moments (Debye-Ang)
        XX     -61.1049     XY      51.2367     YY     -11.8582
        XZ      92.5673     YZ      49.0007     ZZ     -20.1889
    Octopole Moments (Debye-Ang^2)
       XXX     -71.0935    XXY    -634.2757    XYY     484.8102
       YYY   -1103.5841    XXZ   -1221.7811    XYZ     925.5522
       YYZ    -239.8962    XZZ    1643.0045    YZZ     511.4379
       ZZZ   -2286.0248
    Hexadecapole Moments (Debye-Ang^3)
      XXXX    -517.2689   XXXY    -760.3404   XXYY   -6736.3280
      XYYY    4261.0870   YYYY  -28628.2611   XXXZ   -1687.4565
      XXYZ  -12732.7078   XYYZ    8637.4837   YYYZ  -22801.3838
      XXZZ  -24746.0624   XYZZ   16433.3204   YYZZ  -10940.7960
      XZZZ   28265.3831   YZZZ  -11009.6992   ZZZZ -108248.5136
 -----------------------------------------------------------------
 Calculating analytic gradient of the SCF energy
 Gradient of SCF Energy
            1           2           3           4           5           6
    1   0.0189187  -0.0233296  -0.0086916   0.0013402  -0.0207775   0.0057316
    2  -0.0298516  -0.0006619   0.0066424   0.0013060  -0.0019789   0.0116669
    3  -0.0001103  -0.0103391   0.0078259  -0.0030379   0.0104388  -0.0044967
            7           8           9          10          11          12
    1   0.0068572   0.0063278  -0.0056315  -0.0002468   0.0004472   0.0043486
    2  -0.0020805   0.0007137   0.0146485   0.0037308   0.0044626   0.0012016
    3  -0.0027084   0.0098907  -0.0000317   0.0038520   0.0001040  -0.0034317
           13          14          15          16          17          18
    1   0.0066071  -0.0008824  -0.0024285   0.0013384   0.0034049   0.0097531
    2  -0.0010190  -0.0027129  -0.0006685   0.0004819  -0.0056530  -0.0011364
    3   0.0000563  -0.0022363  -0.0043647   0.0024089  -0.0053861   0.0124364
           19          20          21          22
    1   0.0098324  -0.0341567   0.0076721   0.0135654
    2   0.0041141  -0.0107905   0.0038661   0.0037185
    3  -0.0034914  -0.0039934  -0.0028482  -0.0005370
 Max gradient component =       3.416E-02
 RMS gradient           =       9.106E-03
 Computing fast CPCM-SWIG gradient
 Updating gradient with PCM contributions...
 -- total gradient after adding PCM contribution --
---------------------------------------------------
  Atom         X              Y              Z     
---------------------------------------------------
   1       0.022777      -0.021406      -0.003793
   2      -0.022627      -0.000760      -0.013125
   3      -0.000107       0.005490       0.003895
   4       0.001271      -0.003261       0.000304
   5      -0.015035      -0.000095       0.013548
   6       0.002087       0.014810      -0.001443
   7       0.005925      -0.000671      -0.002091
   8       0.004427      -0.000097       0.008416
   9      -0.010128       0.010834       0.002001
  10       0.000365       0.002316       0.004059
  11       0.002059       0.005016      -0.000377
  12       0.001582       0.002254      -0.004013
  13       0.006490      -0.000804      -0.002315
  14      -0.003843      -0.003809      -0.001363
  15      -0.000767      -0.000073      -0.004426
  16       0.000488      -0.002468       0.001495
  17      -0.001759      -0.007397      -0.003045
  18       0.020046       0.003998       0.008755
  19      -0.003035      -0.001637       0.002029
  20      -0.027386      -0.008258      -0.009312
  21       0.003444       0.001965       0.000524
  22       0.013727       0.004054       0.000279
---------------------------------------------------
 Number of fixed atoms: 0
 Gradient time:  CPU 125.81 s  wall 11.68 s
 Geometry Optimization Parameters
   NAtoms,    NIC,     NZ,  NCons,   NDum,   NFix, NCnnct, MaxDiis
       22     172       0       0       0       0       0       0

 Cartesian Hessian Update
 Hessian updated using BFGS update


** GEOMETRY OPTIMIZATION IN DELOCALIZED INTERNAL COORDINATES **
   Searching for a Minimum

   Optimization Cycle:   2

                       Coordinates (Angstroms)
     ATOM                X               Y               Z
      1  C         0.5515947615   11.8426293814   20.4041805012
      2  C         0.4307385051   10.4213735553   19.8311070830
      3  C         1.5291670382    9.5322768450   20.4535906192
      4  C         1.4378934559    9.5176770581   21.9896789372
      5  C         1.3993513615   10.9216547887   22.6312854159
      6  C         0.4159365497   11.8824408943   21.9422709920
      7  H         1.4702936735    8.5049185414   20.0608128517
      8  H        -0.5270009026   10.0120090592   20.1564643697
      9  H         1.4045908733   12.4403898817   20.0662626882
     10  H        -0.3039470868   12.4344384989   20.0394538880
     11  H         0.5319153624    8.9811504502   22.2855587393
     12  H         2.3068456133    8.9681225608   22.3672141021
     13  H         1.2802445279   10.8439444429   23.7141551179
     14  H         2.4025620086   11.3384452055   22.4830342412
     15  H        -0.6235447005   11.5916311244   22.1588639458
     16  H         0.5569603651   12.8966765565   22.3257506080
     17  H         2.5172037672    9.8610879402   20.1079698454
     18  N         0.5400293928   10.4257776419   18.3797828086
     19  H         1.3921324455   10.7969020014   17.9836796497
     20  C        -0.4646549471   10.1066172624   17.5096877299
     21  H        -0.1568255450   10.2840806858   16.4642706495
     22  O        -1.5614865196    9.6657556242   17.8349252165
   Point Group: c1    Number of degrees of freedom:    60


   Energy is   -404.592910614

 Hessian updated using BFGS update

 60 Hessian modes will be used to form the next step
  Hessian Eigenvalues:
     0.004847    0.005414    0.006557    0.008377    0.012772    0.017374
     0.018564    0.018772    0.019913    0.033188    0.035895    0.037093
     0.041531    0.046154    0.047341    0.049690    0.051186    0.053459
     0.057144    0.060703    0.066924    0.080926    0.082139    0.083335
     0.084314    0.087373    0.090015    0.093094    0.123591    0.125506
     0.139276    0.158088    0.159339    0.162702    0.178970    0.211977
     0.220099    0.220276    0.269244    0.272587    0.275328    0.281715
     0.284850    0.286903    0.330951    0.334418    0.336964    0.338681
     0.344129    0.345317    0.345899    0.346577    0.347709    0.349713
     0.351687    0.356303    0.376845    0.466021    0.484514    0.940047

 Minimum search - taking simple RFO step
 Searching for Lamda that Minimizes Along All modes
 Value Taken    Lamda =  -0.01333809
 Calculated Step too Large.  Step scaled by  0.584150
 Step Taken.  Stepsize is  0.300000

                             Maximum     Tolerance    Cnvgd?
         Gradient           0.015638      0.000100      NO
         Displacement       0.164984      0.000100      NO
         Energy change     -0.010773      0.000000      NO


 New Cartesian Coordinates Obtained by Inverse Iteration

 Displacement from previous Coordinates is:  0.250444
 ----------------------------------------------------------------
             Standard Nuclear Orientation (Angstroms)
    I     Atom           X                Y                Z
 ----------------------------------------------------------------
    1      C       0.5197533579    11.8493938471    20.4052950967
    2      C       0.4374375193    10.4245057993    19.8370758248
    3      C       1.5287876954     9.5341517880    20.4606949782
    4      C       1.4357061790     9.5141534406    21.9942212784
    5      C       1.4274198366    10.9261865498    22.6090082365
    6      C       0.4122198638    11.8676562420    21.9431729262
    7      H       1.4527052496     8.5127922354    20.0601859506
    8      H      -0.5332504238    10.0060570624    20.1159679844
    9      H       1.4092629839    12.3989098416    20.0704654261
   10      H      -0.3286586957    12.4335014217    20.0154406235
   11      H       0.5222650711     8.9838162014    22.2933150274
   12      H       2.2897511504     8.9500926352    22.3880436984
   13      H       1.2895929691    10.8669927601    23.6942824979
   14      H       2.4315198505    11.3495395893    22.4564751222
   15      H      -0.6136376154    11.5641268998    22.2015725971
   16      H       0.5499420895    12.8875823181    22.3191804435
   17      H       2.5191365723     9.8863063284    20.1365973067
   18      N       0.5455683839    10.4291931044    18.3827914133
   19      H       1.3976120140    10.8035855940    17.9815906962
   20      C      -0.4441010678    10.0996788067    17.5189808174
   21      H      -0.1546097088    10.2881249774    16.4711714472
   22      O      -1.5644232749     9.6936525573    17.8344706072
 ----------------------------------------------------------------
 Nuclear Repulsion Energy =         466.00353394 hartrees
 There are       35 alpha and       35 beta electrons
 Discretize the solute cavity surface with Lebedev spheres
	Using 302 Lebedev grid points for each H atom
	Using 302 Lebedev grid points for other atoms
	Atomic van der Waals radii will be scaled by 1.20
 Remove points where switching function is < 1.0e-08
 Keep 2748 surface tesserae and discard 3896 interior tesserae
 Molecular Surface Area = 182.741 Angst**2
 Applying Cartesian multipole field
    Component          Value
    ---------          -----
     (2,0,0)        1.00000E-11
     (0,2,0)        2.00000E-12
     (0,0,2)       -3.00000E-13
 Nucleus-field energy     =     0.0000000281 hartrees
 Requested basis set is 6-31+G(d)
 There are 71 shells and 197 basis functions
 A cutoff of  1.0D-14 yielded   2411 shell pairs
 There are     18991 function pairs
 Smallest overlap matrix eigenvalue = 2.39E-05
 Guess MOs from SCF MO coefficient file

 -----------------------------------------------------------------------
  General SCF calculation program by
  Eric Jon Sundstrom, Paul Horn, Yuezhi Mao, Dmitri Zuev, Alec White,
  David Stuck, Shaama M.S., Shane Yost, Joonho Lee, David Small,
  Daniel Levine, Susi Lehtola, Hugh Burton, Evgeny Epifanovsky,
  Bang C. Huynh
 -----------------------------------------------------------------------
 Exchange:     0.2000 Hartree-Fock + 0.0800 Slater + 0.7200 B88
 Correlation:  0.1900 VWN1RPA + 0.8100 LYP
 Using Euler-Maclaurin-Lebedev (99,590) quadrature formula
 using 16 threads for integral computing
 -------------------------------------------------------
 OpenMP Integral computing Module                
 Release: version 2.0, May 2017, Q-Chem Inc. Pleasanton 
 -------------------------------------------------------
 A restricted SCF calculation will be
 performed using Roothaan-Hall, DIIS
 SCF converges when DIIS error is below 1.0e-08
 ---------------------------------------
  Cycle       Energy         DIIS error
 ---------------------------------------
    1    -404.5785801285      7.59e-04  Roothaan Step
 ---------------------------------------
  Cycle       Energy         DIIS error
 ---------------------------------------
    1    -404.5879104781      1.25e-03  
    2    -404.5710137806      2.70e-03  
    3    -404.5984543316      2.09e-04  
    4    -404.5986119403      1.20e-04  
    5    -404.5986674141      3.51e-05  
    6    -404.5986725103      9.02e-06  
    7    -404.5986728269      3.03e-06  
    8    -404.5986728707      5.54e-07  
    9    -404.5986728720      2.43e-07  
   10    -404.5986728722      4.42e-08  
   11    -404.5986728723      1.23e-08  
   12    -404.5986728723      2.99e-09  Convergence criterion met
 ---------------------------------------
 SCF time:   CPU 865.26s  wall 58.00s 

************** Final PCM Free Energy Summary **************
 G_electrostatic  =      -0.01835430 hartree =     -11.51749648 kcal/mol
 G_cavitation     =       0.00000000 hartree =       0.00000000 kcal/mol
 G_dispersion     =       0.00000000 hartree =       0.00000000 kcal/mol
 G_repulsion      =       0.00000000 hartree =       0.00000000 kcal/mol
 --------------------------------------------------
 Non-electrostatic Free Energy =       0.00000000 hartree =       0.00000000 kcal/mol
 Total                         =      -0.01835430 hartree =     -11.51749648 kcal/mol
 --------------------------------------------------
 SCF Energy (H0 + V/2)                       =    -404.59867287 
 Solute Internal Energy (H0)                 =    -404.58031857 
 Total Free Energy (H0 + V/2 + non-elec)     =    -404.59867287 hartree
                                             = -253889.49918137 kcal/mol
***********************************************************

 SCF   energy in the final basis set =     -404.5986728723
 Total energy in the final basis set =     -404.5986728723
 
 --------------------------------------------------------------
 
                    Orbital Energies (a.u.)
 --------------------------------------------------------------
 
 Alpha MOs
 -- Occupied --
-19.1364 -14.3709 -10.2948 -10.2256 -10.1821 -10.1817 -10.1801 -10.1793
-10.1772  -1.0430  -0.9331  -0.8226  -0.7421  -0.7414  -0.6381  -0.6115
 -0.5923  -0.5616  -0.5266  -0.4846  -0.4598  -0.4430  -0.4384  -0.4208
 -0.4187  -0.3959  -0.3776  -0.3731  -0.3473  -0.3441  -0.3197  -0.3106
 -0.3087  -0.2727  -0.2597
 -- Virtual --
  0.0075   0.0086   0.0175   0.0242   0.0260   0.0412   0.0487   0.0491
  0.0590   0.0688   0.0704   0.0841   0.0869   0.0965   0.1013   0.1052
  0.1120   0.1170   0.1276   0.1341   0.1410   0.1516   0.1559   0.1625
  0.1706   0.1803   0.1818   0.1872   0.2000   0.2027   0.2104   0.2125
  0.2224   0.2268   0.2326   0.2462   0.2496   0.2557   0.2645   0.2718
  0.2772   0.2822   0.2847   0.2911   0.2995   0.3047   0.3145   0.3268
  0.3324   0.3343   0.3558   0.3743   0.3825   0.3855   0.4172   0.4220
  0.4396   0.4549   0.4840   0.6100   0.6414   0.6594   0.6645   0.6707
  0.6875   0.7011   0.7276   0.7324   0.7445   0.7550   0.7728   0.7795
  0.7981   0.8054   0.8243   0.8399   0.8632   0.9064   0.9528   0.9745
  0.9825   0.9943   1.0218   1.0281   1.0337   1.0585   1.0822   1.1066
  1.1204   1.1247   1.1290   1.1421   1.1646   1.1723   1.1814   1.1849
  1.2395   1.2458   1.2814   1.3208   1.3323   1.3719   1.4036   1.4142
  1.4712   1.4867   1.4900   1.5620   1.5843   1.6200   1.6884   1.7269
  1.7405   1.7591   1.7689   1.7922   1.8335   1.8716   1.9023   1.9097
  1.9185   1.9398   1.9720   2.0039   2.0095   2.0418   2.0644   2.0855
  2.1138   2.1185   2.2000   2.2102   2.2799   2.3005   2.3201   2.3419
  2.3993   2.4088   2.4208   2.4247   2.4505   2.5592   2.5798   2.6197
  2.6843   2.6886   2.7041   2.7562   2.7763   2.8381   2.8669   2.9978
  3.1866   4.0906   4.1902   4.2291   4.2964   4.3381   4.4143   4.5997
  4.6049   4.6673
 --------------------------------------------------------------
 
          Ground-State Mulliken Net Atomic Charges

     Atom                 Charge (a.u.)
  ----------------------------------------
      1 C                    -0.305385
      2 C                    -0.412393
      3 C                    -0.296808
      4 C                    -0.451699
      5 C                    -0.371119
      6 C                    -0.456811
      7 H                     0.210367
      8 H                     0.229986
      9 H                     0.216342
     10 H                     0.210131
     11 H                     0.206638
     12 H                     0.203431
     13 H                     0.199972
     14 H                     0.200743
     15 H                     0.206068
     16 H                     0.204648
     17 H                     0.212997
     18 N                    -0.381462
     19 H                     0.451234
     20 C                     0.344786
     21 H                     0.183520
     22 O                    -0.605186
  ----------------------------------------
  Sum of atomic charges =     0.000000

 -----------------------------------------------------------------
                    Cartesian Multipole Moments
 -----------------------------------------------------------------
    Charge (ESU x 10^10)
                -0.0000
    Dipole Moment (Debye)
         X       5.2849      Y       2.1627      Z       0.9863
       Tot       5.7948
    Quadrupole Moments (Debye-Ang)
        XX     -61.1987     XY      52.9254     YY     -12.9196
        XZ      95.4310     YZ      49.2851     ZZ     -15.1474
    Octopole Moments (Debye-Ang^2)
       XXX     -70.7074    XXY    -635.0153    XYY     502.8578
       YYY   -1120.3094    XXZ   -1223.0995    XYZ     956.7664
       YYZ    -247.2574    XZZ    1696.2152    YZZ     541.6288
       ZZZ   -2140.8495
    Hexadecapole Moments (Debye-Ang^3)
      XXXX    -518.9383   XXXY    -754.0480   XXYY   -6741.3931
      XYYY    4449.9620   YYYY  -28876.3908   XXXZ   -1680.1106
      XXYZ  -12740.8185   XYYZ    8970.2238   YYYZ  -22996.7049
      XXZZ  -24761.8447   XYZZ   17011.8335   YYZZ  -10840.8545
      XZZZ   29255.3605   YZZZ   -9958.5555   ZZZZ -104508.9648
 -----------------------------------------------------------------
 Calculating analytic gradient of the SCF energy
 Gradient of SCF Energy
            1           2           3           4           5           6
    1   0.0075244  -0.0108139  -0.0101563   0.0009256  -0.0149171   0.0049964
    2  -0.0199077   0.0006991   0.0045030   0.0031867  -0.0026194   0.0036492
    3   0.0022530  -0.0054169   0.0070447  -0.0040331   0.0028304  -0.0033849
            7           8           9          10          11          12
    1   0.0035144   0.0041048  -0.0000350  -0.0014385  -0.0007625   0.0039332
    2  -0.0020940   0.0010506   0.0096037   0.0027801   0.0009795   0.0003292
    3  -0.0018167   0.0061357  -0.0014544   0.0015043   0.0005264  -0.0011628
           13          14          15          16          17          18
    1   0.0030386   0.0024180  -0.0023135   0.0016859   0.0051562  -0.0022719
    2  -0.0006840  -0.0003622  -0.0003584   0.0017922  -0.0015937  -0.0030796
    3   0.0016339  -0.0016186  -0.0021540   0.0014079  -0.0039202   0.0086188
           19          20          21          22
    1   0.0117126  -0.0172276   0.0049339   0.0059923
    2   0.0059038  -0.0135965   0.0055345   0.0042842
    3  -0.0047208   0.0010641  -0.0027055  -0.0006313
 Max gradient component =       1.991E-02
 RMS gradient           =       5.851E-03
 Computing fast CPCM-SWIG gradient
 Updating gradient with PCM contributions...
 -- total gradient after adding PCM contribution --
---------------------------------------------------
  Atom         X              Y              Z     
---------------------------------------------------
   1       0.012222      -0.012306      -0.001738
   2      -0.010397       0.000574      -0.008440
   3      -0.001254       0.003538       0.003205
   4       0.000781      -0.001797      -0.000447
   5      -0.009120      -0.000392       0.006149
   6       0.001192       0.006992      -0.000185
   7       0.002799      -0.000448      -0.001157
   8       0.001951       0.000199       0.004716
   9      -0.005111       0.006431       0.000654
  10      -0.000769       0.001383       0.001880
  11       0.000916       0.001685      -0.000005
  12       0.001164       0.001503      -0.001911
  13       0.003131      -0.000528      -0.000790
  14      -0.000870      -0.001652      -0.000700
  15      -0.000650       0.000284      -0.002457
  16       0.000812      -0.001130       0.000565
  17      -0.000191      -0.003761      -0.001758
  18       0.008131       0.002212       0.005021
  19      -0.001299      -0.000023       0.000814
  20      -0.010417      -0.011128      -0.003990
  21       0.000694       0.003622       0.000511
  22       0.006284       0.004740       0.000064
---------------------------------------------------
 Number of fixed atoms: 0
 Gradient time:  CPU 123.97 s  wall 11.58 s
 Geometry Optimization Parameters
   NAtoms,    NIC,     NZ,  NCons,   NDum,   NFix, NCnnct, MaxDiis
       22     172       0       0       0       0       0       0

 Cartesian Hessian Update
 Hessian updated using BFGS update


** GEOMETRY OPTIMIZATION IN DELOCALIZED INTERNAL COORDINATES **
   Searching for a Minimum

   Optimization Cycle:   3

                       Coordinates (Angstroms)
     ATOM                X               Y               Z
      1  C         0.5197533579   11.8493938471   20.4052950967
      2  C         0.4374375193   10.4245057993   19.8370758248
      3  C         1.5287876954    9.5341517880   20.4606949782
      4  C         1.4357061790    9.5141534406   21.9942212784
      5  C         1.4274198366   10.9261865498   22.6090082365
      6  C         0.4122198638   11.8676562420   21.9431729262
      7  H         1.4527052496    8.5127922354   20.0601859506
      8  H        -0.5332504238   10.0060570624   20.1159679844
      9  H         1.4092629839   12.3989098416   20.0704654261
     10  H        -0.3286586957   12.4335014217   20.0154406235
     11  H         0.5222650711    8.9838162014   22.2933150274
     12  H         2.2897511504    8.9500926352   22.3880436984
     13  H         1.2895929691   10.8669927601   23.6942824979
     14  H         2.4315198505   11.3495395893   22.4564751222
     15  H        -0.6136376154   11.5641268998   22.2015725971
     16  H         0.5499420895   12.8875823181   22.3191804435
     17  H         2.5191365723    9.8863063284   20.1365973067
     18  N         0.5455683839   10.4291931044   18.3827914133
     19  H         1.3976120140   10.8035855940   17.9815906962
     20  C        -0.4441010678   10.0996788067   17.5189808174
     21  H        -0.1546097088   10.2881249774   16.4711714472
     22  O        -1.5644232749    9.6936525573   17.8344706072
   Point Group: c1    Number of degrees of freedom:    60


   Energy is   -404.598672872

 Hessian updated using BFGS update

 60 Hessian modes will be used to form the next step
  Hessian Eigenvalues:
     0.004843    0.005405    0.006547    0.008377    0.012664    0.016737
     0.018531    0.018733    0.023162    0.034583    0.037046    0.037231
     0.043526    0.046560    0.048105    0.049739    0.051240    0.053384
     0.056989    0.060510    0.066949    0.080790    0.081183    0.083208
     0.084007    0.087332    0.090066    0.092068    0.123452    0.125699
     0.139233    0.157434    0.159295    0.162698    0.178142    0.211939
     0.219806    0.220249    0.269141    0.272585    0.275488    0.282036
     0.284850    0.287141    0.330936    0.334337    0.336977    0.338479
     0.344093    0.345408    0.345837    0.346542    0.347716    0.349701
     0.351657    0.356935    0.377550    0.466138    0.483853    0.932827

 Minimum search - taking simple RFO step
 Searching for Lamda that Minimizes Along All modes
 Value Taken    Lamda =  -0.00716358
 Calculated Step too Large.  Step scaled by  0.580204
 Step Taken.  Stepsize is  0.300000

                             Maximum     Tolerance    Cnvgd?
         Gradient           0.007659      0.000100      NO
         Displacement       0.131920      0.000100      NO
         Energy change     -0.005762      0.000000      NO


 New Cartesian Coordinates Obtained by Inverse Iteration

 Displacement from previous Coordinates is:  0.309372
 ----------------------------------------------------------------
             Standard Nuclear Orientation (Angstroms)
    I     Atom           X                Y                Z
 ----------------------------------------------------------------
    1      C       0.4968904280    11.8651455441    20.4180595469
    2      C       0.4323053692    10.4408214497    19.8432317085
    3      C       1.5174028021     9.5411745671    20.4563596734
    4      C       1.4274796919     9.5136776531    21.9894225816
    5      C       1.4551471819    10.9273795889    22.5916912424
    6      C       0.4145787781    11.8595703991    21.9544403989
    7      H       1.4229913684     8.5274880828    20.0449974395
    8      H      -0.5476648132    10.0162689418    20.0841621101
    9      H       1.4189047359    12.3677248965    20.0914732085
   10      H      -0.3388560040    12.4531626165    20.0142621940
   11      H       0.5031281707     9.0001953124    22.2917769090
   12      H       2.2634702846     8.9260742183    22.3900506954
   13      H       1.3099645686    10.8784372041    23.6786906387
   14      H       2.4587256631    11.3511342960    22.4305821545
   15      H      -0.5978069184    11.5435692608    22.2469444546
   16      H       0.5492879055    12.8810741459    22.3322039402
   17      H       2.5081558114     9.9084577055    20.1469533736
   18      N       0.5390368891    10.4586946554    18.3846217711
   19      H       1.3950597587    10.8270297303    17.9819877196
   20      C      -0.4382865494    10.1236864010    17.5224351757
   21      H      -0.1228247404    10.2192945351    16.4701021158
   22      O      -1.5370903817     9.6399387956    17.8255509479
 ----------------------------------------------------------------
 Nuclear Repulsion Energy =         466.35121592 hartrees
 There are       35 alpha and       35 beta electrons
 Discretize the solute cavity surface with Lebedev spheres
	Using 302 Lebedev grid points for each H atom
	Using 302 Lebedev grid points for other atoms
	Atomic van der Waals radii will be scaled by 1.20
 Remove points where switching function is < 1.0e-08
 Keep 2748 surface tesserae and discard 3896 interior tesserae
 Molecular Surface Area = 182.651 Angst**2
 Applying Cartesian multipole field
    Component          Value
    ---------          -----
     (2,0,0)        1.00000E-11
     (0,2,0)        2.00000E-12
     (0,0,2)       -3.00000E-13
 Nucleus-field energy     =     0.0000000281 hartrees
 Requested basis set is 6-31+G(d)
 There are 71 shells and 197 basis functions
 A cutoff of  1.0D-14 yielded   2412 shell pairs
 There are     18992 function pairs
 Smallest overlap matrix eigenvalue = 2.42E-05
 Guess MOs from SCF MO coefficient file

 -----------------------------------------------------------------------
  General SCF calculation program by
  Eric Jon Sundstrom, Paul Horn, Yuezhi Mao, Dmitri Zuev, Alec White,
  David Stuck, Shaama M.S., Shane Yost, Joonho Lee, David Small,
  Daniel Levine, Susi Lehtola, Hugh Burton, Evgeny Epifanovsky,
  Bang C. Huynh
 -----------------------------------------------------------------------
 Exchange:     0.2000 Hartree-Fock + 0.0800 Slater + 0.7200 B88
 Correlation:  0.1900 VWN1RPA + 0.8100 LYP
 Using Euler-Maclaurin-Lebedev (99,590) quadrature formula
 using 16 threads for integral computing
 -------------------------------------------------------
 OpenMP Integral computing Module                
 Release: version 2.0, May 2017, Q-Chem Inc. Pleasanton 
 -------------------------------------------------------
 A restricted SCF calculation will be
 performed using Roothaan-Hall, DIIS
 SCF converges when DIIS error is below 1.0e-08
 ---------------------------------------
  Cycle       Energy         DIIS error
 ---------------------------------------
    1    -404.5777815266      9.07e-04  Roothaan Step
 ---------------------------------------
  Cycle       Energy         DIIS error
 ---------------------------------------
    1    -404.5892202362      1.28e-03  
    2    -404.5714365406      2.76e-03  
    3    -404.6003047988      2.15e-04  
    4    -404.6004718564      1.23e-04  
    5    -404.6005302802      3.61e-05  
    6    -404.6005356744      9.16e-06  
    7    -404.6005359965      3.18e-06  
    8    -404.6005360450      5.74e-07  
    9    -404.6005360464      2.50e-07  
   10    -404.6005360467      4.57e-08  
   11    -404.6005360467      1.19e-08  
   12    -404.6005360467      3.14e-09  Convergence criterion met
 ---------------------------------------
 SCF time:   CPU 868.73s  wall 59.00s 

************** Final PCM Free Energy Summary **************
 G_electrostatic  =      -0.01887256 hartree =     -11.84270725 kcal/mol
 G_cavitation     =       0.00000000 hartree =       0.00000000 kcal/mol
 G_dispersion     =       0.00000000 hartree =       0.00000000 kcal/mol
 G_repulsion      =       0.00000000 hartree =       0.00000000 kcal/mol
 --------------------------------------------------
 Non-electrostatic Free Energy =       0.00000000 hartree =       0.00000000 kcal/mol
 Total                         =      -0.01887256 hartree =     -11.84270725 kcal/mol
 --------------------------------------------------
 SCF Energy (H0 + V/2)                       =    -404.60053605 
 Solute Internal Energy (H0)                 =    -404.58166349 
 Total Free Energy (H0 + V/2 + non-elec)     =    -404.60053605 hartree
                                             = -253890.66834099 kcal/mol
***********************************************************

 SCF   energy in the final basis set =     -404.6005360467
 Total energy in the final basis set =     -404.6005360467
 
 --------------------------------------------------------------
 
                    Orbital Energies (a.u.)
 --------------------------------------------------------------
 
 Alpha MOs
 -- Occupied --
-19.1347 -14.3717 -10.2938 -10.2252 -10.1824 -10.1822 -10.1798 -10.1798
-10.1777  -1.0399  -0.9338  -0.8240  -0.7430  -0.7418  -0.6377  -0.6119
 -0.5922  -0.5621  -0.5261  -0.4842  -0.4604  -0.4430  -0.4381  -0.4198
 -0.4185  -0.3953  -0.3778  -0.3744  -0.3469  -0.3441  -0.3202  -0.3116
 -0.3097  -0.2708  -0.2607
 -- Virtual --
  0.0063   0.0098   0.0174   0.0240   0.0260   0.0413   0.0484   0.0491
  0.0592   0.0691   0.0704   0.0841   0.0870   0.0961   0.1010   0.1052
  0.1121   0.1173   0.1265   0.1341   0.1411   0.1517   0.1562   0.1618
  0.1704   0.1802   0.1819   0.1881   0.2006   0.2017   0.2103   0.2135
  0.2224   0.2265   0.2318   0.2455   0.2494   0.2562   0.2641   0.2717
  0.2778   0.2831   0.2861   0.2920   0.2965   0.3042   0.3138   0.3267
  0.3310   0.3333   0.3580   0.3733   0.3840   0.3869   0.4187   0.4204
  0.4400   0.4564   0.4829   0.6096   0.6402   0.6580   0.6665   0.6691
  0.6860   0.6995   0.7287   0.7326   0.7485   0.7509   0.7745   0.7793
  0.7997   0.8054   0.8222   0.8420   0.8631   0.9099   0.9543   0.9755
  0.9809   0.9931   1.0213   1.0275   1.0311   1.0579   1.0865   1.1050
  1.1207   1.1236   1.1283   1.1427   1.1656   1.1723   1.1852   1.1878
  1.2374   1.2490   1.2804   1.3200   1.3384   1.3658   1.3973   1.4148
  1.4666   1.4898   1.4998   1.5628   1.5831   1.6178   1.6971   1.7312
  1.7445   1.7548   1.7671   1.7995   1.8431   1.8699   1.9060   1.9113
  1.9146   1.9378   1.9724   2.0085   2.0122   2.0442   2.0602   2.0861
  2.1067   2.1265   2.2052   2.2130   2.2781   2.3070   2.3186   2.3414
  2.3969   2.4144   2.4182   2.4234   2.4505   2.5593   2.5824   2.6205
  2.6805   2.6892   2.7049   2.7579   2.7800   2.8374   2.8661   2.9920
  3.1850   4.0930   4.1929   4.2285   4.2970   4.3357   4.4139   4.6040
  4.6041   4.6705
 --------------------------------------------------------------
 
          Ground-State Mulliken Net Atomic Charges

     Atom                 Charge (a.u.)
  ----------------------------------------
      1 C                    -0.287535
      2 C                    -0.416494
      3 C                    -0.293526
      4 C                    -0.454188
      5 C                    -0.376221
      6 C                    -0.459501
      7 H                     0.211230
      8 H                     0.228392
      9 H                     0.214138
     10 H                     0.210557
     11 H                     0.207158
     12 H                     0.203663
     13 H                     0.199609
     14 H                     0.202286
     15 H                     0.207137
     16 H                     0.203832
     17 H                     0.213416
     18 N                    -0.379479
     19 H                     0.450919
     20 C                     0.344878
     21 H                     0.182853
     22 O                    -0.613124
  ----------------------------------------
  Sum of atomic charges =     0.000000

 -----------------------------------------------------------------
                    Cartesian Multipole Moments
 -----------------------------------------------------------------
    Charge (ESU x 10^10)
                 0.0000
    Dipole Moment (Debye)
         X       5.3420      Y       2.2921      Z       1.1106
       Tot       5.9181
    Quadrupole Moments (Debye-Ang)
        XX     -60.9653     XY      53.2403     YY     -10.5234
        XZ      96.4777     YZ      52.8467     ZZ     -10.4188
    Octopole Moments (Debye-Ang^2)
       XXX     -70.9582    XXY    -632.1385    XYY     503.4470
       YYY   -1088.1322    XXZ   -1218.5685    XYZ     962.6969
       YYZ    -191.9200    XZZ    1715.6491    YZZ     630.0392
       ZZZ   -2005.1059
    Hexadecapole Moments (Debye-Ang^3)
      XXXX    -513.8820   XXXY    -758.2206   XXYY   -6706.9642
      XYYY    4426.6539   YYYY  -28514.1222   XXXZ   -1683.5671
      XXYZ  -12685.7732   XYYZ    8984.0533   YYYZ  -22300.7506
      XXZZ  -24672.9076   XYZZ   17124.8381   YYZZ   -9608.3584
      XZZZ   29619.9661   YZZZ   -7881.8192   ZZZZ -101022.2432
 -----------------------------------------------------------------
 Calculating analytic gradient of the SCF energy
 Gradient of SCF Energy
            1           2           3           4           5           6
    1  -0.0020639  -0.0014253  -0.0103072   0.0003671  -0.0095688   0.0048256
    2  -0.0110750   0.0001157   0.0022897   0.0050343  -0.0030210  -0.0022223
    3   0.0032687  -0.0001931   0.0058045  -0.0044251  -0.0024682  -0.0033679
            7           8           9          10          11          12
    1   0.0011652   0.0025672   0.0040036  -0.0016584  -0.0012474   0.0033814
    2  -0.0015867   0.0012858   0.0048562   0.0016451  -0.0007922  -0.0004767
    3  -0.0013102   0.0031605  -0.0018000   0.0003015   0.0008647   0.0003973
           13          14          15          16          17          18
    1   0.0002383   0.0037774  -0.0020044   0.0016785   0.0058056  -0.0088728
    2  -0.0001443   0.0008328  -0.0001655   0.0027245   0.0012859  -0.0089228
    3   0.0024478  -0.0011085  -0.0004757   0.0007719  -0.0025753   0.0047456
           19          20          21          22
    1   0.0131979  -0.0135582   0.0061131   0.0035855
    2   0.0052847   0.0091986  -0.0020547  -0.0040925
    3  -0.0055860   0.0053510  -0.0029609  -0.0008427
 Max gradient component =       1.356E-02
 RMS gradient           =       4.662E-03
 Computing fast CPCM-SWIG gradient
 Updating gradient with PCM contributions...
 -- total gradient after adding PCM contribution --
---------------------------------------------------
  Atom         X              Y              Z     
---------------------------------------------------
   1       0.003383      -0.003901      -0.000859
   2      -0.001315      -0.000078      -0.003347
   3      -0.001360       0.001618       0.001912
   4       0.000158      -0.000202      -0.000705
   5      -0.003682      -0.000570       0.000984
   6       0.000725       0.001281       0.000105
   7       0.000565       0.000094      -0.000652
   8       0.000282       0.000285       0.001775
   9      -0.001515       0.002276       0.000289
  10      -0.000734       0.000155       0.000882
  11       0.000469      -0.000054       0.000274
  12       0.000655       0.000816      -0.000465
  13       0.000503      -0.000041      -0.000030
  14       0.000218      -0.000612      -0.000122
  15      -0.000273       0.000540      -0.000975
  16       0.000808      -0.000205      -0.000048
  17       0.000286      -0.001234      -0.000544
  18       0.001747      -0.003887       0.001180
  19      -0.000049      -0.000468      -0.000081
  20      -0.006743       0.011813       0.000556
  21       0.001768      -0.003739       0.000118
  22       0.004104      -0.003887      -0.000248
---------------------------------------------------
 Number of fixed atoms: 0
 Gradient time:  CPU 123.63 s  wall 11.49 s
 Geometry Optimization Parameters
   NAtoms,    NIC,     NZ,  NCons,   NDum,   NFix, NCnnct, MaxDiis
       22     172       0       0       0       0       0       0

 Cartesian Hessian Update
 Hessian updated using BFGS update


** GEOMETRY OPTIMIZATION IN DELOCALIZED INTERNAL COORDINATES **
   Searching for a Minimum

   Optimization Cycle:   4

                       Coordinates (Angstroms)
     ATOM                X               Y               Z
      1  C         0.4968904280   11.8651455441   20.4180595469
      2  C         0.4323053692   10.4408214497   19.8432317085
      3  C         1.5174028021    9.5411745671   20.4563596734
      4  C         1.4274796919    9.5136776531   21.9894225816
      5  C         1.4551471819   10.9273795889   22.5916912424
      6  C         0.4145787781   11.8595703991   21.9544403989
      7  H         1.4229913684    8.5274880828   20.0449974395
      8  H        -0.5476648132   10.0162689418   20.0841621101
      9  H         1.4189047359   12.3677248965   20.0914732085
     10  H        -0.3388560040   12.4531626165   20.0142621940
     11  H         0.5031281707    9.0001953124   22.2917769090
     12  H         2.2634702846    8.9260742183   22.3900506954
     13  H         1.3099645686   10.8784372041   23.6786906387
     14  H         2.4587256631   11.3511342960   22.4305821545
     15  H        -0.5978069184   11.5435692608   22.2469444546
     16  H         0.5492879055   12.8810741459   22.3322039402
     17  H         2.5081558114    9.9084577055   20.1469533736
     18  N         0.5390368891   10.4586946554   18.3846217711
     19  H         1.3950597587   10.8270297303   17.9819877196
     20  C        -0.4382865494   10.1236864010   17.5224351757
     21  H        -0.1228247404   10.2192945351   16.4701021158
     22  O        -1.5370903817    9.6399387956   17.8255509479
   Point Group: c1    Number of degrees of freedom:    60


   Energy is   -404.600536047

 Hessian updated using BFGS update

 60 Hessian modes will be used to form the next step
  Hessian Eigenvalues:
     0.004830    0.005383    0.006546    0.008377    0.012696    0.017714
     0.018548    0.018761    0.032665    0.035881    0.037094    0.041146
     0.045204    0.047324    0.049634    0.050933    0.053318    0.056693
     0.060050    0.066743    0.071748    0.080445    0.081338    0.083096
     0.083954    0.087313    0.090102    0.091345    0.123553    0.125714
     0.139396    0.157251    0.159281    0.162718    0.178385    0.211789
     0.219448    0.220242    0.269075    0.272578    0.275503    0.282268
     0.284851    0.287437    0.330927    0.334322    0.336969    0.338414
     0.344067    0.345362    0.345816    0.346514    0.347745    0.349688
     0.351633    0.356658    0.377328    0.466299    0.486224    0.929143

 Minimum search - taking simple RFO step
 Searching for Lamda that Minimizes Along All modes
 Value Taken    Lamda =  -0.00236157
 Calculated Step too Large.  Step scaled by  0.940929
 Step Taken.  Stepsize is  0.300000

                             Maximum     Tolerance    Cnvgd?
         Gradient           0.007575      0.000100      NO
         Displacement       0.157860      0.000100      NO
         Energy change     -0.001863      0.000000      NO


 New Cartesian Coordinates Obtained by Inverse Iteration

 Displacement from previous Coordinates is:  0.286221
 ----------------------------------------------------------------
             Standard Nuclear Orientation (Angstroms)
    I     Atom           X                Y                Z
 ----------------------------------------------------------------
    1      C       0.4783284387    11.8601455010    20.4217593826
    2      C       0.4300134028    10.4327157141    19.8475306004
    3      C       1.5177102651     9.5360604558    20.4626005444
    4      C       1.4280283182     9.5207902585    21.9969371599
    5      C       1.4828634063    10.9424275581    22.5766243438
    6      C       0.4047164142    11.8446918343    21.9585460742
    7      H       1.4207231992     8.5209377827    20.0576770770
    8      H      -0.5527233048     9.9984498014    20.0604512941
    9      H       1.4241317242    12.3264346693    20.1059908990
   10      H      -0.3417627945    12.4520976359    19.9973388990
   11      H       0.4899077066     9.0320193306    22.3011764054
   12      H       2.2439201537     8.9131776004    22.4102442195
   13      H       1.3493936865    10.9074348304    23.6664094937
   14      H       2.4774513165    11.3770683422    22.3915673872
   15      H      -0.5894901167    11.4951425342    22.2747448863
   16      H       0.5106325861    12.8699558730    22.3373277577
   17      H       2.5055285266     9.9163423260    20.1592276586
   18      N       0.5437313767    10.4564794735    18.3852263977
   19      H       1.4046165492    10.8202174109    17.9872462068
   20      C      -0.4211974615    10.1081712316    17.5174852843
   21      H      -0.1213929008    10.2448115489    16.4653702327
   22      O      -1.5551304922     9.6944282874    17.8085177956
 ----------------------------------------------------------------
 Nuclear Repulsion Energy =         466.29855683 hartrees
 There are       35 alpha and       35 beta electrons
 Discretize the solute cavity surface with Lebedev spheres
	Using 302 Lebedev grid points for each H atom
	Using 302 Lebedev grid points for other atoms
	Atomic van der Waals radii will be scaled by 1.20
 Remove points where switching function is < 1.0e-08
 Keep 2735 surface tesserae and discard 3909 interior tesserae
 Molecular Surface Area = 182.628 Angst**2
 Applying Cartesian multipole field
    Component          Value
    ---------          -----
     (2,0,0)        1.00000E-11
     (0,2,0)        2.00000E-12
     (0,0,2)       -3.00000E-13
 Nucleus-field energy     =     0.0000000282 hartrees
 Requested basis set is 6-31+G(d)
 There are 71 shells and 197 basis functions
 A cutoff of  1.0D-14 yielded   2410 shell pairs
 There are     18985 function pairs
 Smallest overlap matrix eigenvalue = 2.46E-05
 Guess MOs from SCF MO coefficient file

 -----------------------------------------------------------------------
  General SCF calculation program by
  Eric Jon Sundstrom, Paul Horn, Yuezhi Mao, Dmitri Zuev, Alec White,
  David Stuck, Shaama M.S., Shane Yost, Joonho Lee, David Small,
  Daniel Levine, Susi Lehtola, Hugh Burton, Evgeny Epifanovsky,
  Bang C. Huynh
 -----------------------------------------------------------------------
 Exchange:     0.2000 Hartree-Fock + 0.0800 Slater + 0.7200 B88
 Correlation:  0.1900 VWN1RPA + 0.8100 LYP
 Using Euler-Maclaurin-Lebedev (99,590) quadrature formula
 using 16 threads for integral computing
 -------------------------------------------------------
 OpenMP Integral computing Module                
 Release: version 2.0, May 2017, Q-Chem Inc. Pleasanton 
 -------------------------------------------------------
 A restricted SCF calculation will be
 performed using Roothaan-Hall, DIIS
 SCF converges when DIIS error is below 1.0e-08
 ---------------------------------------
  Cycle       Energy         DIIS error
 ---------------------------------------
    1    -404.5786932874      8.81e-04  Roothaan Step
 ---------------------------------------
  Cycle       Energy         DIIS error
 ---------------------------------------
    1    -404.5898671427      1.28e-03  
    2    -404.5719307825      2.78e-03  
    3    -404.6011480183      2.18e-04  
    4    -404.6013224354      1.24e-04  
    5    -404.6013814010      3.67e-05  
    6    -404.6013869464      9.49e-06  
    7    -404.6013872874      3.33e-06  
    8    -404.6013873408      6.03e-07  
    9    -404.6013873424      2.55e-07  
   10    -404.6013873427      4.58e-08  
   11    -404.6013873427      1.19e-08  
   12    -404.6013873427      3.25e-09  Convergence criterion met
 ---------------------------------------
 SCF time:   CPU 914.44s  wall 62.00s 

************** Final PCM Free Energy Summary **************
 G_electrostatic  =      -0.01912458 hartree =     -12.00085640 kcal/mol
 G_cavitation     =       0.00000000 hartree =       0.00000000 kcal/mol
 G_dispersion     =       0.00000000 hartree =       0.00000000 kcal/mol
 G_repulsion      =       0.00000000 hartree =       0.00000000 kcal/mol
 --------------------------------------------------
 Non-electrostatic Free Energy =       0.00000000 hartree =       0.00000000 kcal/mol
 Total                         =      -0.01912458 hartree =     -12.00085640 kcal/mol
 --------------------------------------------------
 SCF Energy (H0 + V/2)                       =    -404.60138734 
 Solute Internal Energy (H0)                 =    -404.58226276 
 Total Free Energy (H0 + V/2 + non-elec)     =    -404.60138734 hartree
                                             = -253891.20253728 kcal/mol
***********************************************************

 SCF   energy in the final basis set =     -404.6013873427
 Total energy in the final basis set =     -404.6013873427
 
 --------------------------------------------------------------
 
                    Orbital Energies (a.u.)
 --------------------------------------------------------------
 
 Alpha MOs
 -- Occupied --
-19.1343 -14.3721 -10.2938 -10.2254 -10.1828 -10.1827 -10.1800 -10.1799
-10.1780  -1.0379  -0.9335  -0.8246  -0.7432  -0.7413  -0.6371  -0.6117
 -0.5921  -0.5630  -0.5262  -0.4839  -0.4608  -0.4423  -0.4377  -0.4190
 -0.4180  -0.3952  -0.3786  -0.3739  -0.3473  -0.3437  -0.3215  -0.3120
 -0.3097  -0.2703  -0.2610
 -- Virtual --
  0.0083   0.0088   0.0173   0.0237   0.0259   0.0413   0.0480   0.0492
  0.0593   0.0696   0.0702   0.0837   0.0870   0.0953   0.1004   0.1051
  0.1123   0.1173   0.1257   0.1340   0.1408   0.1520   0.1564   0.1613
  0.1701   0.1795   0.1830   0.1891   0.1992   0.2024   0.2104   0.2140
  0.2214   0.2265   0.2311   0.2445   0.2485   0.2558   0.2641   0.2701
  0.2774   0.2820   0.2889   0.2904   0.2948   0.3034   0.3113   0.3261
  0.3298   0.3323   0.3595   0.3724   0.3850   0.3876   0.4170   0.4211
  0.4392   0.4590   0.4836   0.6097   0.6396   0.6565   0.6672   0.6677
  0.6848   0.6983   0.7305   0.7331   0.7455   0.7537   0.7759   0.7790
  0.8010   0.8056   0.8201   0.8492   0.8633   0.9128   0.9541   0.9758
  0.9797   0.9931   1.0219   1.0278   1.0299   1.0571   1.0900   1.1036
  1.1189   1.1240   1.1279   1.1433   1.1635   1.1719   1.1855   1.1921
  1.2386   1.2454   1.2811   1.3269   1.3424   1.3717   1.3904   1.4165
  1.4786   1.4873   1.4935   1.5672   1.5778   1.6161   1.6928   1.7324
  1.7367   1.7544   1.7681   1.8051   1.8512   1.8717   1.9027   1.9083
  1.9123   1.9393   1.9783   2.0094   2.0191   2.0447   2.0564   2.0856
  2.0947   2.1300   2.2034   2.2150   2.2774   2.3089   2.3170   2.3443
  2.3950   2.4113   2.4208   2.4258   2.4481   2.5598   2.5858   2.6208
  2.6739   2.6839   2.7054   2.7623   2.7808   2.8342   2.8630   2.9895
  3.1861   4.0937   4.1936   4.2286   4.2961   4.3336   4.4145   4.6037
  4.6092   4.6730
 --------------------------------------------------------------
 
          Ground-State Mulliken Net Atomic Charges

     Atom                 Charge (a.u.)
  ----------------------------------------
      1 C                    -0.276080
      2 C                    -0.426416
      3 C                    -0.283373
      4 C                    -0.452897
      5 C                    -0.381457
      6 C                    -0.460304
      7 H                     0.211293
      8 H                     0.227137
      9 H                     0.213399
     10 H                     0.210972
     11 H                     0.207673
     12 H                     0.203202
     13 H                     0.199362
     14 H                     0.203509
     15 H                     0.207975
     16 H                     0.203148
     17 H                     0.213477
     18 N                    -0.382089
     19 H                     0.450637
     20 C                     0.345424
     21 H                     0.183206
     22 O                    -0.617797
  ----------------------------------------
  Sum of atomic charges =     0.000000

 -----------------------------------------------------------------
                    Cartesian Multipole Moments
 -----------------------------------------------------------------
[...]

 Mode:                40                     41                     42
 Frequency:      1404.08                1494.24                1496.44
 Force Cnst:      1.7077                 1.4314                 1.4354
 Red. Mass:       1.4702                 1.0881                 1.0879
 IR Active:          YES                    YES                    YES
 IR Intens:        0.596                  0.102                  5.578
 Raman Active:       YES                    YES                    YES
               X      Y      Z        X      Y      Z        X      Y      Z
 C         -0.010  0.056  0.093    0.011  0.037 -0.031    0.001  0.013  0.006
 C         -0.021 -0.011 -0.099   -0.007  0.016 -0.000    0.001  0.000 -0.008
 C          0.037 -0.044  0.098   -0.033  0.016  0.030    0.011 -0.009  0.006
 C         -0.011  0.041  0.024   -0.008 -0.021  0.023   -0.007 -0.025  0.008
 C         -0.008 -0.004 -0.011    0.006 -0.014 -0.000   -0.052 -0.024 -0.045
 C          0.023 -0.034  0.025    0.022 -0.009 -0.023   -0.023  0.012  0.007
 H         -0.089  0.146 -0.372    0.372  0.034 -0.152   -0.066 -0.004  0.014
 H          0.079  0.050  0.467    0.032 -0.071  0.000    0.006  0.004  0.025
 H         -0.029 -0.141 -0.284    0.230 -0.272  0.210    0.031 -0.068 -0.015
 H          0.051 -0.167 -0.359   -0.292 -0.262  0.161   -0.042 -0.041  0.012
 H          0.014 -0.043 -0.038   -0.154  0.166 -0.159   -0.135  0.189 -0.070
 H          0.000 -0.126 -0.254    0.191  0.172 -0.109    0.164  0.138 -0.112
 H         -0.064 -0.026 -0.023    0.004 -0.000  0.000    0.555  0.247  0.044
 H         -0.023 -0.011 -0.061   -0.028  0.065  0.003    0.072  0.039  0.601
 H         -0.024  0.040 -0.044   -0.021  0.232  0.157    0.050 -0.226 -0.065
 H         -0.091  0.079 -0.251   -0.261 -0.024  0.108    0.212  0.026 -0.110
 H         -0.126  0.070 -0.301    0.044 -0.338 -0.195   -0.030  0.075 -0.014
 N          0.005  0.003 -0.032   -0.000 -0.000 -0.000    0.000  0.000 -0.001
 H          0.058  0.024  0.103    0.001 -0.001  0.001    0.004  0.002  0.008
 C          0.002  0.001  0.026    0.000 -0.000  0.000    0.000  0.000  0.001
 H         -0.005 -0.002  0.036   -0.000  0.001  0.000   -0.000 -0.000  0.002
 O          0.003  0.001 -0.005   -0.000  0.000 -0.000   -0.000 -0.000 -0.000
 TransDip   0.001 -0.003  0.025    0.004 -0.009  0.002    0.068  0.031  0.012

 Mode:                43                     44                     45
 Frequency:      1499.64                1500.42                1512.55
 Force Cnst:      1.4556                 1.4490                 1.4842
 Red. Mass:       1.0985                 1.0925                 1.1011
 IR Active:          YES                    YES                    YES
 IR Intens:        7.684                 10.887                  0.666
 Raman Active:       YES                    YES                    YES
               X      Y      Z        X      Y      Z        X      Y      Z
 C         -0.001 -0.038  0.022   -0.006 -0.035  0.014   -0.000 -0.035  0.016
 C         -0.002  0.005  0.002    0.000 -0.000  0.015   -0.004 -0.001  0.013
 C          0.018 -0.017 -0.015   -0.039  0.028  0.020   -0.027  0.024  0.015
 C         -0.004 -0.046  0.034   -0.003 -0.025  0.015    0.000  0.036 -0.019
 C          0.001  0.003  0.003    0.014  0.006  0.017   -0.024 -0.011 -0.033
 C          0.030 -0.023 -0.027   -0.030  0.023  0.023    0.027 -0.024 -0.018
 H         -0.190 -0.035  0.092    0.399  0.033 -0.139    0.292  0.038 -0.118
 H          0.004 -0.012 -0.003   -0.009 -0.004 -0.019   -0.010 -0.006 -0.018
 H         -0.186  0.248 -0.142   -0.179  0.233 -0.131   -0.171  0.235 -0.119
 H          0.238  0.192 -0.132    0.221  0.211 -0.100    0.220  0.182 -0.116
 H         -0.252  0.311 -0.215   -0.138  0.162 -0.126    0.173 -0.226  0.132
 H          0.317  0.256 -0.184    0.168  0.159 -0.071   -0.224 -0.181  0.115
 H         -0.010 -0.040 -0.000   -0.137 -0.055 -0.002    0.282  0.125  0.008
 H         -0.009  0.011 -0.026   -0.020 -0.011 -0.148    0.041  0.023  0.316
 H         -0.052  0.321  0.162    0.046 -0.318 -0.173   -0.052  0.284  0.128
 H         -0.320 -0.052  0.154    0.334  0.033 -0.118   -0.287 -0.042  0.114
 H         -0.039  0.198  0.088    0.071 -0.386 -0.166    0.061 -0.296 -0.115
 N          0.000 -0.001 -0.000   -0.000  0.000 -0.001    0.005  0.002  0.008
 H         -0.001  0.000 -0.002   -0.004 -0.002 -0.012   -0.020 -0.008 -0.057
 C         -0.000 -0.000 -0.000   -0.001 -0.000 -0.000   -0.006 -0.002 -0.006
 H         -0.000  0.001 -0.000    0.001  0.000 -0.000    0.003  0.001 -0.006
 O          0.000  0.000 -0.000    0.001  0.000 -0.000    0.002  0.001  0.000
 TransDip  -0.026  0.084 -0.014    0.068  0.015 -0.079   -0.012 -0.003 -0.023

 Mode:                46                     47                     48
 Frequency:      1554.82                1670.65                2240.87
 Force Cnst:      2.5155                14.1128                 7.0851
 Red. Mass:       1.7661                 8.5820                 2.3947
 IR Active:          YES                    YES                    YES
 IR Intens:      265.239                900.762                 99.217
 Raman Active:       YES                    YES                    YES
               X      Y      Z        X      Y      Z        X      Y      Z
 C         -0.003 -0.004  0.009   -0.005 -0.007  0.019   -0.000 -0.000 -0.000
 C          0.057  0.023  0.057    0.015  0.006 -0.032    0.000  0.000  0.003
 C         -0.005  0.001  0.010   -0.009  0.001  0.019   -0.000  0.000 -0.000
 C         -0.001 -0.001 -0.008    0.006 -0.004 -0.005   -0.000  0.000 -0.000
 C         -0.001 -0.001  0.000   -0.001 -0.000  0.001   -0.000 -0.000 -0.000
 C         -0.001 -0.001 -0.008    0.000  0.007 -0.006    0.000 -0.000 -0.000
 H          0.029  0.004  0.002    0.013  0.017 -0.020    0.001 -0.000  0.000
 H         -0.008 -0.008 -0.337    0.051  0.021  0.053    0.000 -0.000  0.007
 H         -0.009 -0.022 -0.050   -0.019 -0.019 -0.027   -0.000 -0.000  0.000
 H          0.023  0.023  0.004    0.023 -0.001 -0.018    0.000  0.001  0.001
 H          0.017 -0.010  0.030    0.007  0.002  0.002   -0.000 -0.000 -0.000
 H         -0.022 -0.006  0.023   -0.014  0.007  0.042    0.000 -0.000 -0.000
 H          0.022  0.011  0.003    0.012  0.005  0.001   -0.000 -0.000  0.000
 H          0.002  0.001  0.018   -0.001 -0.000  0.005    0.000  0.000 -0.000
 H          0.003  0.020  0.028    0.006  0.005  0.004   -0.000 -0.000 -0.000
 H         -0.020 -0.011  0.022   -0.005 -0.014  0.043    0.000  0.000 -0.000
 H         -0.024  0.009 -0.054   -0.026 -0.001 -0.025   -0.000 -0.000  0.000
 N         -0.100 -0.039 -0.172   -0.114 -0.043 -0.016    0.004  0.002  0.014
 H          0.287  0.113  0.836   -0.258 -0.095 -0.378   -0.014 -0.005 -0.057
 C          0.043  0.016  0.093    0.629  0.235 -0.012    0.059  0.021 -0.184
 H         -0.032 -0.011  0.133   -0.088 -0.036 -0.373   -0.261 -0.091  0.939
 O          0.007  0.003 -0.013   -0.352 -0.131  0.093   -0.015 -0.005  0.009
 TransDip   0.318  0.123  0.395    0.869  0.329  0.247    0.153  0.056 -0.274

 Mode:                49                     50                     51
 Frequency:      3014.05                3014.91                3018.67
 Force Cnst:      5.7213                 5.7204                 5.7275
 Red. Mass:       1.0689                 1.0681                 1.0668
 IR Active:          YES                    YES                    YES
 IR Intens:       34.378                 47.039                  5.002
 Raman Active:       YES                    YES                    YES
               X      Y      Z        X      Y      Z        X      Y      Z
 C         -0.001  0.004 -0.002    0.024  0.024 -0.016    0.020  0.012 -0.008
 C         -0.002 -0.001  0.000    0.001 -0.001  0.000   -0.004 -0.002 -0.000
 C          0.007 -0.003 -0.004   -0.040 -0.002  0.019    0.037  0.001 -0.017
 C          0.018  0.009 -0.005    0.025  0.020 -0.013   -0.013 -0.009  0.006
 C         -0.060 -0.027 -0.010   -0.004 -0.003 -0.000   -0.008 -0.004 -0.016
 C          0.023  0.008 -0.006   -0.027 -0.002  0.012   -0.044  0.002  0.022
 H          0.010  0.075  0.025   -0.029 -0.174 -0.065    0.026  0.167  0.061
 H          0.019  0.008 -0.004   -0.006 -0.001  0.001    0.052  0.024 -0.011
 H         -0.036 -0.017  0.009   -0.419 -0.203  0.134   -0.265 -0.131  0.085
 H          0.045 -0.032  0.019    0.128 -0.081  0.059    0.023 -0.011  0.009
 H         -0.221 -0.112  0.071   -0.381 -0.189  0.122    0.194  0.098 -0.061
 H         -0.005  0.006 -0.009    0.080 -0.048  0.035   -0.029  0.017 -0.013
 H         -0.045 -0.017  0.278   -0.004  0.003  0.016   -0.029 -0.009  0.226
 H          0.766  0.337 -0.169    0.051  0.024 -0.011    0.116  0.050 -0.030
 H         -0.280 -0.105  0.086    0.347  0.134 -0.106    0.568  0.220 -0.171
 H          0.004  0.005 -0.004   -0.018 -0.101 -0.037   -0.034 -0.241 -0.087
 H         -0.095 -0.038  0.027    0.512  0.201 -0.158   -0.469 -0.183  0.143
 N         -0.000 -0.000 -0.000   -0.000  0.000 -0.000    0.000  0.000  0.000
 H         -0.000 -0.000  0.001   -0.000  0.001 -0.000    0.000 -0.000  0.002
 C          0.000  0.000  0.000    0.000  0.000 -0.000   -0.001 -0.000  0.000
 H         -0.000  0.000 -0.000    0.000 -0.000 -0.000    0.000  0.000  0.000
 O         -0.000 -0.000 -0.000   -0.000  0.000  0.000    0.000  0.000 -0.000
 TransDip  -0.073 -0.049 -0.166   -0.108  0.191 -0.000   -0.061  0.008 -0.036

 Mode:                52                     53                     54
 Frequency:      3019.31                3020.89                3062.30
 Force Cnst:      5.7052                 5.7058                 6.0473
 Red. Mass:       1.0622                 1.0612                 1.0945
 IR Active:          YES                    YES                    YES
 IR Intens:        5.601                161.069                119.920
 Raman Active:       YES                    YES                    YES
               X      Y      Z        X      Y      Z        X      Y      Z
 C          0.018  0.027 -0.018   -0.020 -0.031  0.020   -0.017  0.004 -0.002
 C         -0.001 -0.000 -0.000    0.006  0.003 -0.000    0.006  0.003 -0.001
 C         -0.015  0.009  0.011   -0.028  0.005  0.015   -0.009 -0.017 -0.002
 C         -0.024 -0.038  0.025   -0.003 -0.021  0.013   -0.012  0.013 -0.008
 C         -0.005 -0.002 -0.008   -0.015 -0.007 -0.015    0.028  0.012 -0.074
 C          0.016 -0.007 -0.010   -0.021  0.014  0.015    0.001 -0.019 -0.008
 H         -0.023 -0.186 -0.068   -0.026 -0.198 -0.072    0.016  0.166  0.064
 H          0.014  0.004 -0.003   -0.074 -0.032  0.016   -0.078 -0.034  0.018
 H         -0.400 -0.191  0.126    0.455  0.219 -0.144    0.086  0.045 -0.029
 H          0.182 -0.123  0.085   -0.213  0.146 -0.100    0.122 -0.090  0.061
 H          0.556  0.272 -0.175    0.231  0.111 -0.071   -0.032 -0.014  0.008
 H         -0.267  0.185 -0.122   -0.192  0.137 -0.089    0.175 -0.131  0.086
 H         -0.013 -0.007  0.115   -0.029 -0.010  0.232   -0.087 -0.028  0.833
 H          0.066  0.030 -0.017    0.207  0.091 -0.049   -0.258 -0.114  0.044
 H         -0.210 -0.084  0.064    0.280  0.111 -0.083   -0.027 -0.012  0.006
 H          0.020  0.162  0.058   -0.031 -0.277 -0.099    0.021  0.235  0.088
 H          0.195  0.080 -0.060    0.362  0.143 -0.110    0.093  0.033 -0.030
 N          0.000 -0.000  0.000    0.000  0.000 -0.000   -0.000 -0.000 -0.000
 H         -0.000  0.001  0.000    0.000 -0.000 -0.003    0.001  0.000 -0.001
 C         -0.000 -0.000 -0.000    0.000  0.000 -0.000    0.000  0.000  0.000
 H          0.000 -0.000  0.000   -0.000 -0.000 -0.000   -0.000 -0.000 -0.000
 O          0.000  0.000 -0.000   -0.000 -0.000  0.000   -0.000 -0.000  0.000
 TransDip  -0.033 -0.068  0.007   -0.323 -0.146  0.199   -0.023 -0.021 -0.349

 Mode:                55                     56                     57
 Frequency:      3063.56                3067.18                3068.65
 Force Cnst:      6.0651                 6.0804                 6.0861
 Red. Mass:       1.0968                 1.0970                 1.0970
 IR Active:          YES                    YES                    YES
 IR Intens:      127.660                 77.289                 96.768
 Raman Active:       YES                    YES                    YES
               X      Y      Z        X      Y      Z        X      Y      Z
 C          0.009 -0.010  0.007    0.013 -0.012  0.008   -0.043  0.016 -0.011
 C         -0.000  0.001 -0.000   -0.003 -0.001  0.002    0.023  0.010 -0.006
 C          0.001 -0.013 -0.006    0.000  0.020  0.008   -0.022 -0.053 -0.013
 C          0.056 -0.020  0.014   -0.054  0.018 -0.012   -0.021 -0.003  0.002
 C         -0.001 -0.000  0.001   -0.021 -0.009  0.013   -0.015 -0.006  0.026
 C         -0.024 -0.056 -0.013   -0.022 -0.051 -0.011   -0.014 -0.010  0.002
 H          0.017  0.164  0.064   -0.024 -0.240 -0.094    0.057  0.555  0.218
 H         -0.000  0.001  0.000    0.047  0.021 -0.011   -0.292 -0.128  0.068
 H          0.028  0.011 -0.008    0.024  0.009 -0.007    0.158  0.085 -0.057
 H         -0.134  0.098 -0.069   -0.176  0.129 -0.090    0.363 -0.266  0.187
 H         -0.210 -0.113  0.073    0.213  0.116 -0.073    0.171  0.089 -0.057
 H         -0.466  0.349 -0.233    0.431 -0.324  0.214    0.075 -0.057  0.038
 H          0.002 -0.000 -0.016    0.012  0.004 -0.117    0.030  0.010 -0.284
 H          0.009  0.002 -0.001    0.233  0.103 -0.046    0.156  0.069 -0.028
 H          0.235  0.081 -0.076    0.227  0.077 -0.072    0.154  0.056 -0.048
 H          0.053  0.592  0.224    0.046  0.529  0.199    0.006  0.068  0.026
 H         -0.025 -0.012  0.008    0.015  0.009 -0.005    0.214  0.074 -0.072
 N          0.000 -0.000 -0.000   -0.000 -0.000 -0.000   -0.000  0.000  0.000
 H          0.000 -0.000 -0.000   -0.001 -0.000 -0.000    0.004  0.002 -0.002
 C          0.000 -0.000  0.000    0.000  0.000 -0.000    0.000  0.000  0.000
 H         -0.000  0.000  0.000   -0.000 -0.000 -0.000   -0.000  0.000 -0.000
 O         -0.000  0.000  0.000   -0.000 -0.000 -0.000   -0.000 -0.000  0.000
 TransDip   0.141 -0.333  0.009   -0.261 -0.107  0.006   -0.281 -0.143 -0.005

 Mode:                58                     59                     60
 Frequency:      3070.45                3096.89                3579.60
 Force Cnst:      6.1119                 6.1478                 8.1417
 Red. Mass:       1.1003                 1.0880                 1.0784
 IR Active:          YES                    YES                    YES
 IR Intens:       47.378                 62.138                 65.956
 Raman Active:       YES                    YES                    YES
               X      Y      Z        X      Y      Z        X      Y      Z
 C          0.063 -0.019  0.014   -0.023  0.003 -0.002    0.000  0.000 -0.000
 C         -0.002 -0.002  0.001   -0.071 -0.031  0.016   -0.001 -0.000 -0.001
 C         -0.024 -0.051 -0.011   -0.013 -0.019 -0.002    0.000  0.000 -0.000
 C         -0.015 -0.000 -0.000   -0.004 -0.002  0.001    0.000  0.000 -0.000
 C          0.001  0.001 -0.002   -0.001 -0.000  0.002    0.000  0.000 -0.000
 C          0.013  0.012 -0.001   -0.004 -0.002  0.001    0.000  0.000 -0.000
 H          0.053  0.523  0.205    0.016  0.175  0.067    0.000 -0.000  0.000
 H          0.031  0.012 -0.007    0.836  0.367 -0.185    0.009  0.004 -0.006
 H         -0.258 -0.136  0.091    0.132  0.071 -0.042   -0.000  0.001  0.001
 H         -0.500  0.367 -0.258    0.141 -0.105  0.071   -0.000  0.000 -0.000
 H          0.107  0.055 -0.037    0.042  0.022 -0.016   -0.000 -0.000 -0.000
 H          0.075 -0.056  0.037    0.006 -0.004  0.002   -0.000  0.000  0.000
 H         -0.001 -0.002  0.018    0.002  0.001 -0.017   -0.000 -0.000  0.000
 H         -0.010 -0.002  0.002    0.011  0.005 -0.001   -0.000 -0.000  0.000
 H         -0.135 -0.050  0.043    0.044  0.016 -0.016   -0.000 -0.000 -0.000
 H         -0.008 -0.096 -0.036    0.001  0.006  0.002   -0.000 -0.000 -0.000
 H          0.235  0.083 -0.077    0.140  0.048 -0.041    0.000 -0.001  0.001
 N         -0.000  0.000 -0.000    0.001  0.000  0.001   -0.064 -0.024  0.027
 H         -0.001  0.000  0.000   -0.010 -0.004 -0.001    0.860  0.326 -0.386
 C          0.000 -0.000 -0.000   -0.002 -0.001 -0.000    0.000  0.000  0.002
 H         -0.000  0.000  0.000    0.000  0.000  0.001   -0.000 -0.000 -0.003
 O         -0.000  0.000 -0.000    0.000  0.000 -0.001    0.001  0.000 -0.000
 TransDip   0.111 -0.190  0.005   -0.220 -0.100  0.074    0.242  0.091 -0.026

 STANDARD THERMODYNAMIC QUANTITIES AT   298.18 K  AND     1.00 ATM

   This Molecule has  1 Imaginary Frequencies
   Zero point vibrational energy:      121.841 kcal/mol

   Atom    1 Element C  Has Mass   12.00000
   Atom    2 Element C  Has Mass   12.00000
   Atom    3 Element C  Has Mass   12.00000
   Atom    4 Element C  Has Mass   12.00000
   Atom    5 Element C  Has Mass   12.00000
   Atom    6 Element C  Has Mass   12.00000
   Atom    7 Element H  Has Mass    1.00783
   Atom    8 Element H  Has Mass    1.00783
   Atom    9 Element H  Has Mass    1.00783
   Atom   10 Element H  Has Mass    1.00783
   Atom   11 Element H  Has Mass    1.00783
   Atom   12 Element H  Has Mass    1.00783
   Atom   13 Element H  Has Mass    1.00783
   Atom   14 Element H  Has Mass    1.00783
   Atom   15 Element H  Has Mass    1.00783
   Atom   16 Element H  Has Mass    1.00783
   Atom   17 Element H  Has Mass    1.00783
   Atom   18 Element N  Has Mass   14.00307
   Atom   19 Element H  Has Mass    1.00783
   Atom   20 Element C  Has Mass   12.00000
   Atom   21 Element H  Has Mass    2.01410
   Atom   22 Element O  Has Mass   15.99491
   Molecular Mass:   128.106042 amu
   Principal axes and moments of inertia in amu*Bohr^2:
                             1           2           3
    Eigenvalues --      537.79565  2029.48110  2230.32565
          X               0.39039    -0.42642     0.81594
          Y               0.16154     0.90425     0.39528
          Z               0.90637     0.02251    -0.42189
   Rotational Symmetry Number is   1
   The Molecule is an Asymmetric Top
   Translational Enthalpy:        0.889 kcal/mol
   Rotational Enthalpy:           0.889 kcal/mol
   Vibrational Enthalpy:        125.124 kcal/mol
   gas constant (RT):             0.593 kcal/mol
   Translational Entropy:        40.457  cal/mol.K
   Rotational Entropy:           29.278  cal/mol.K
   Vibrational Entropy:          18.122  cal/mol.K

   Total Enthalpy:              127.494 kcal/mol
   Total Entropy:                87.857  cal/mol.K
Archival summary:
1\1\node028\FREQ\ProcedureUnspecified\6-31+G*\11713\ymao90\ThuApr815:35:552021ThuApr815:35:552021\0\\#,FREQ,ProcedureUnspecified,6-31+G*,\\0,1\N\H,1,1.01534\C,1,1.34513,2,116.762\H,3,1.1024,1,112.674,2,0.534298,0\O,3,1.23992,1,125.975,2,-179.55,0\C,1,1.46674,2,117.569,3,-179.313,0\H,6,1.09469,1,105.978,2,-177.139,0\C,6,1.5389,1,110.555,2,-59.0985,0\H,8,1.09744,6,109.441,1,-58.9831,0\H,8,1.10075,6,108.753,1,57.6867,0\C,8,1.53784,6,111.357,1,178.424,0\H,11,1.0977,8,109.609,6,-177.618,0\H,11,1.10041,8,109.155,6,65.902,0\C,11,1.53688,8,111.64,6,-54.954,0\H,14,1.09797,11,110.123,8,177.21,0\H,14,1.10065,11,109.243,8,-65.8285,0\C,14,1.53688,11,111.218,8,54.8254,0\H,17,1.09771,14,110.418,11,-177.078,0\H,17,1.10045,14,109.23,11,65.9329,0\C,17,1.53779,14,111.592,11,-54.8657,0\H,20,1.09742,17,110.627,14,176.945,0\H,20,1.10062,17,109.538,14,-65.2289,0\\\@

 Total job time:  892.27s(wall), 12324.32s(cpu) 
 Thu Apr  8 15:35:55 2021

        *************************************************************
        *                                                           *
        *  Thank you very much for using Q-Chem.  Have a nice day.  *
        *                                                           *
        *************************************************************


