                  Welcome to Q-Chem
     A Quantum Leap Into The Future Of Chemistry


 Q-Chem 5.2 (devel), Q-Chem, Inc., Pleasanton, CA (2019)

 Yihan Shao,  Zhengting Gan,  E. Epifanovsky,  A. T. B. Gilbert,  M. Wormit,  
 J. Kussmann,  A. W. Lange,  A. Behn,  Jia Deng,  Xintian Feng,  D. Ghosh,  
 M. Goldey,  P. R. Horn,  L. D. Jacobson,  I. Kaliman,  T. Kus,  A. Landau,  
 Jie Liu,  E. I. Proynov,  R. M. Richard,  R. P. Steele,  E. J. Sundstrom,  
 H. L. Woodcock III,  P. M. Zimmerman,  D. Zuev,  B. Alam,  B. Albrecht,  
 E. Alguire,  S. A. Baeppler,  D. Barton,  Z. Benda,  Y. A. Bernard,  
 E. J. Berquist,  K. B. Bravaya,  H. Burton,  K. Carter-Fenk,  D. Casanova,  
 Chun-Min Chang,  Yunqing Chen,  A. Chien,  K. D. Closser,  M. P. Coons,  
 S. Coriani,  S. Dasgupta,  A. L. Dempwolff,  M. Diedenhofen,  Hainam Do,  
 R. G. Edgar,  Po-Tung Fang,  S. Faraji,  S. Fatehi,  Qingguo Feng,  
 J. Fosso-Tande,  J. Gayvert,  Qinghui Ge,  A. Ghysels,  G. Gidofalvi,  
 J. Gomes,  J. Gonthier,  A. Gunina,  D. Hait,  M. W. D. Hanson-Heine,  
 P. H. P. Harbach,  A. W. Hauser,  M. F. Herbst,  J. E. Herr,  
 E. G. Hohenstein,  Z. C. Holden,  Kerwin Hui,  B. C. Huynh,  T.-C. Jagau,  
 Hyunjun Ji,  B. Kaduk,  K. Khistyaev,  Jaehoon Kim,  P. Klunzinger,  K. Koh,  
 D. Kosenkov,  L. Koulias,  T. Kowalczyk,  C. M. Krauter,  A. Kunitsa,  
 Ka Un Lao,  A. Laurent,  K. V. Lawler,  Joonho Lee,  D. Lefrancois,  
 S. Lehtola,  D. S. Levine,  Yi-Pei Li,  You-Sheng Lin,  Fenglai Liu,  
 Kuan-Yu Liu,  E. Livshits,  M. Loipersberger,  A. Luenser,  P. Manohar,  
 E. Mansoor,  S. F. Manzer,  Shan-Ping Mao,  Yuezhi Mao,  N. Mardirossian,  
 A. V. Marenich,  T. Markovich,  L. A. Martinez-Martinez,  S. A. Maurer,  
 N. J. Mayhall,  S. C. McKenzie,  J.-M. Mewes,  P. Morgante,  A. F. Morrison,  
 J. W. Mullinax,  K. Nanda,  T. S. Nguyen-Beck,  R. Olivares-Amaya,  
 J. A. Parkhill,  S. K. Paul,  F. Pavosevic,  Zheng Pei,  T. M. Perrine,  
 F. Plasser,  P. Pokhilko,  S. Prager,  A. Prociuk,  E. Ramos,  B. Rana,  
 D. R. Rehn,  F. Rob,  M. Scheurer,  M. Schneider,  N. Sergueev,  
 S. M. Sharada,  S. Sharma,  D. W. Small,  T. Stauch,  C. J. Stein,  
 T. Stein,  Yu-Chuan Su,  S. P. Veccham,  Zhen Tao,  A. J. W. Thom,  
 A. Tkatchenko,  T. Tsuchimochi,  N. M. Tubman,  L. Vogt,  M. L. Vidal,  
 O. Vydrov,  M. A. Watson,  J. Wenzel,  M. de Wergifosse,  T. A. Wesolowski,  
 A. White,  J. Witte,  A. Yamada,  Jun Yang,  K. Yao,  S. Yeganeh,  
 S. R. Yost,  Zhi-Qiang You,  A. Zech,  Igor Ying Zhang,  Xing Zhang,  
 Yan Zhao,  Ying Zhu,  B. R. Brooks,  G. K. L. Chan,  C. J. Cramer,  
 M. S. Gordon,  W. J. Hehre,  A. Klamt,  M. W. Schmidt,  C. D. Sherrill,  
 D. G. Truhlar,  A. Aspuru-Guzik,  R. Baer,  A. T. Bell,  N. A. Besley,  
 Jeng-Da Chai,  A. E. DePrince, III,  R. A. DiStasio Jr.,  A. Dreuw,  
 B. D. Dunietz,  T. R. Furlani,  Chao-Ping Hsu,  Yousung Jung,  Jing Kong,  
 D. S. Lambrecht,  WanZhen Liang,  C. Ochsenfeld,  V. A. Rassolov,  
 L. V. Slipchenko,  J. E. Subotnik,  T. Van Voorhis,  J. M. Herbert,  
 A. I. Krylov,  P. M. W. Gill,  M. Head-Gordon

 Contributors to earlier versions of Q-Chem not listed above: 
 R. D. Adamson,  B. Austin,  J. Baker,  G. J. O. Beran,  K. Brandhorst,  
 S. T. Brown,  E. F. C. Byrd,  A. K. Chakraborty,  C.-L. Cheng,  
 Siu Hung Chien,  D. M. Chipman,  D. L. Crittenden,  H. Dachsel,  
 R. J. Doerksen,  A. D. Dutoi,  L. Fusti-Molnar,  W. A. Goddard III,  
 A. Golubeva-Zadorozhnaya,  S. R. Gwaltney,  G. Hawkins,  A. Heyden,  
 S. Hirata,  G. Kedziora,  F. J. Keil,  C. Kelley,  Jihan Kim,  R. A. King,  
 R. Z. Khaliullin,  P. P. Korambath,  W. Kurlancheek,  A. M. Lee,  M. S. Lee,  
 S. V. Levchenko,  Ching Yeh Lin,  D. Liotard,  R. C. Lochan,  I. Lotan,  
 P. E. Maslen,  N. Nair,  D. P. O'Neill,  D. Neuhauser,  E. Neuscamman,  
 C. M. Oana,  R. Olson,  B. Peters,  R. Peverati,  P. A. Pieniazek,  
 Y. M. Rhee,  J. Ritchie,  M. A. Rohrdanz,  E. Rosta,  N. J. Russ,  
 H. F. Schaefer III,  N. E. Schultz,  N. Shenvi,  A. C. Simmonett,  A. Sodt,  
 D. Stuck,  K. S. Thanthiriwatte,  V. Vanovschi,  Tao Wang,  A. Warshel,  
 C. F. Williams,  Q. Wu,  X. Xu,  W. Zhang

 Please cite Q-Chem as follows:
 Y. Shao et al., Mol. Phys. 113, 184-215 (2015)
 DOI: 10.1080/00268976.2014.952696

 Q-Chem 5.2.2 for Intel X86 EM64T Linux

 Parts of Q-Chem use Armadillo 9.800.1 (Horizon Scraper).
 http://arma.sourceforge.net/

 Q-Chem begins on Thu Apr  8 15:08:49 2021  

Host: node027
0

     Scratch files written to /home/ymao90/scratch/probe_b3lyp_toluene20210408150848//
Symmetry turned off for PCM/SM12/SMD calculation

Checking the input file for inconsistencies... 	...done.

--------------------------------------------------------------
User input:
--------------------------------------------------------------
$molecule
0 1
C    0.58000    11.83000   20.41000  
C    0.42000    10.41000   19.83000  
C    1.53000    9.53000    20.44000  
C    1.44000    9.53000    21.98000  
C    1.37000    10.92000   22.65000  
C    0.42000    11.90000   21.94000  
H    1.49000    8.50000    20.05000  
H    -0.52000   10.00000   20.20000  
H    1.40000    12.47000   20.08000  
H    -0.28000   12.43000   20.08000  
H    0.54000    9.00000    22.28000  
H    2.32000    8.99000    22.34000  
H    1.27000    10.83000   23.73000  
H    2.37000    11.32000   22.50000  
H    -0.63000   11.62000   22.11000  
H    0.56000    12.91000   22.33000  
H    2.51000    9.84000    20.07000  
N    0.54000    10.41000   18.38000  
H    1.39000    10.78000   17.99000  
C    -0.47000   10.09000   17.50000  
H    -0.16000   10.30000   16.46000  
O    -1.56000   9.66000    17.84000  
$end

$rem
JOBTYPE  OPT
METHOD  B3LYP
BASIS  6-31+G(D)
SYMMETRY  FALSE
SYM_IGNORE  FALSE
MEM_TOTAL  8000
MEM_STATIC  2000
MAX_SUB_FILE_NUM  16000
BASIS_LIN_DEP_THRESH  6
THRESH  14
SCF_CONVERGENCE  8
GEN_SCFMAN  TRUE
SCF_GUESS  SAD
FD_MAT_VEC_PROD  FALSE
XC_GRID  000099000590
NL_GRID  1
MAX_SCF_CYCLES  200
GEOM_OPT_TOL_GRADIENT  100
GEOM_OPT_TOL_DISPLACEMENT  100
GEOM_OPT_TOL_ENERGY  10
SOLVENT_METHOD       PCM
$end

$PCM
THEORY                     CPCM
METHOD                     SWIG
SOLVER                     INVERSION
HPOINTS                    302
HEAVYPOINTS                302
$END

$SOLVENT
DIELECTRIC                 2.37
$END

--------------------------------------------------------------
 ----------------------------------------------------------------
             Standard Nuclear Orientation (Angstroms)
    I     Atom           X                Y                Z
 ----------------------------------------------------------------
    1      C       0.5800000000    11.8300000000    20.4100000000
    2      C       0.4200000000    10.4100000000    19.8300000000
    3      C       1.5300000000     9.5300000000    20.4400000000
    4      C       1.4400000000     9.5300000000    21.9800000000
    5      C       1.3700000000    10.9200000000    22.6500000000
    6      C       0.4200000000    11.9000000000    21.9400000000
    7      H       1.4900000000     8.5000000000    20.0500000000
    8      H      -0.5200000000    10.0000000000    20.2000000000
    9      H       1.4000000000    12.4700000000    20.0800000000
   10      H      -0.2800000000    12.4300000000    20.0800000000
   11      H       0.5400000000     9.0000000000    22.2800000000
   12      H       2.3200000000     8.9900000000    22.3400000000
   13      H       1.2700000000    10.8300000000    23.7300000000
   14      H       2.3700000000    11.3200000000    22.5000000000
   15      H      -0.6300000000    11.6200000000    22.1100000000
   16      H       0.5600000000    12.9100000000    22.3300000000
   17      H       2.5100000000     9.8400000000    20.0700000000
   18      N       0.5400000000    10.4100000000    18.3800000000
   19      H       1.3900000000    10.7800000000    17.9900000000
   20      C      -0.4700000000    10.0900000000    17.5000000000
   21      H      -0.1600000000    10.3000000000    16.4600000000
   22      O      -1.5600000000     9.6600000000    17.8400000000
 ----------------------------------------------------------------
 Nuclear Repulsion Energy =         465.59151226 hartrees
 There are       35 alpha and       35 beta electrons
 Requested basis set is 6-31+G(d)
 There are 71 shells and 197 basis functions

 Total QAlloc Memory Limit   8000 MB
 Mega-Array Size      1956 MB
 MEM_STATIC part      2000 MB
 Discretize the solute cavity surface with Lebedev spheres
	Using 302 Lebedev grid points for each H atom
	Using 302 Lebedev grid points for other atoms
	Atomic van der Waals radii will be scaled by 1.20
 Remove points where switching function is < 1.0e-08
 Keep 2715 surface tesserae and discard 3929 interior tesserae
 Molecular Surface Area = 182.762 Angst**2
 A cutoff of  1.0D-14 yielded   2410 shell pairs
 There are     18990 function pairs
 Smallest overlap matrix eigenvalue = 2.31E-05

 Scale SEOQF with 1.000000e-01/1.000000e-02/1.000000e-03

 Standard Electronic Orientation quadrupole field applied
 Nucleus-field energy     =     0.0000000281 hartrees
 Guess from superposition of atomic densities
 Warning:  Energy on first SCF cycle will be non-variational
 SAD guess density has 70.000000 electrons

 -----------------------------------------------------------------------
  General SCF calculation program by
  Eric Jon Sundstrom, Paul Horn, Yuezhi Mao, Dmitri Zuev, Alec White,
  David Stuck, Shaama M.S., Shane Yost, Joonho Lee, David Small,
  Daniel Levine, Susi Lehtola, Hugh Burton, Evgeny Epifanovsky,
  Bang C. Huynh
 -----------------------------------------------------------------------
 Exchange:     0.2000 Hartree-Fock + 0.0800 Slater + 0.7200 B88
 Correlation:  0.1900 VWN1RPA + 0.8100 LYP
 Using Euler-Maclaurin-Lebedev (99,590) quadrature formula
 using 16 threads for integral computing
 -------------------------------------------------------
 OpenMP Integral computing Module                
 Release: version 2.0, May 2017, Q-Chem Inc. Pleasanton 
 -------------------------------------------------------
 A restricted SCF calculation will be
 performed using DIIS
 SCF converges when DIIS error is below 1.0e-08
 ---------------------------------------
  Cycle       Energy         DIIS error
 ---------------------------------------
    1    -406.2393373780      5.09e-02  
    2    -404.3794585856      6.48e-03  
    3    -404.1189357057      1.04e-02  
    4    -404.5559615549      2.21e-03  
    5    -404.5745352126      5.77e-04  
    6    -404.5758316763      1.70e-04  
    7    -404.5759449089      6.10e-05  
    8    -404.5759606536      1.09e-05  
    9    -404.5759611390      2.91e-06  
   10    -404.5759611743      6.39e-07  
   11    -404.5759611760      2.30e-07  
   12    -404.5759611762      3.25e-08  
   13    -404.5759611762      7.47e-09  Convergence criterion met
 ---------------------------------------
 SCF time:   CPU 863.95s  wall 59.00s 

************** Final PCM Free Energy Summary **************
 G_electrostatic  =      -0.00871568 hartree =      -5.46917056 kcal/mol
 G_cavitation     =       0.00000000 hartree =       0.00000000 kcal/mol
 G_dispersion     =       0.00000000 hartree =       0.00000000 kcal/mol
 G_repulsion      =       0.00000000 hartree =       0.00000000 kcal/mol
 --------------------------------------------------
 Non-electrostatic Free Energy =       0.00000000 hartree =       0.00000000 kcal/mol
 Total                         =      -0.00871568 hartree =      -5.46917056 kcal/mol
 --------------------------------------------------
 SCF Energy (H0 + V/2)                       =    -404.57596118 
 Solute Internal Energy (H0)                 =    -404.56724550 
 Total Free Energy (H0 + V/2 + non-elec)     =    -404.57596118 hartree
                                             = -253875.24737702 kcal/mol
***********************************************************

 SCF   energy in the final basis set =     -404.5759611762
 Total energy in the final basis set =     -404.5759611762
 
 --------------------------------------------------------------
 
                    Orbital Energies (a.u.)
 --------------------------------------------------------------
 
 Alpha MOs
 -- Occupied --
-19.1353 -14.3705 -10.2958 -10.2317 -10.1854 -10.1850 -10.1849 -10.1822
-10.1790  -1.0459  -0.9319  -0.8258  -0.7472  -0.7443  -0.6423  -0.6154
 -0.5967  -0.5650  -0.5322  -0.4865  -0.4628  -0.4485  -0.4433  -0.4228
 -0.4195  -0.4022  -0.3802  -0.3711  -0.3531  -0.3505  -0.3248  -0.3100
 -0.3079  -0.2713  -0.2573
 -- Virtual --
  0.0034   0.0077   0.0120   0.0224   0.0247   0.0373   0.0460   0.0502
  0.0544   0.0651   0.0672   0.0814   0.0848   0.0921   0.0996   0.1015
  0.1078   0.1142   0.1267   0.1321   0.1376   0.1476   0.1515   0.1630
  0.1696   0.1765   0.1792   0.1827   0.1988   0.1999   0.2068   0.2099
  0.2181   0.2224   0.2347   0.2416   0.2479   0.2517   0.2618   0.2681
  0.2731   0.2812   0.2837   0.2896   0.3012   0.3065   0.3129   0.3259
  0.3310   0.3354   0.3482   0.3702   0.3752   0.3811   0.4135   0.4233
  0.4360   0.4516   0.4880   0.6084   0.6408   0.6565   0.6599   0.6699
  0.6881   0.7013   0.7214   0.7288   0.7464   0.7504   0.7664   0.7767
  0.7934   0.8033   0.8256   0.8348   0.8636   0.8956   0.9467   0.9669
  0.9819   0.9933   1.0203   1.0247   1.0377   1.0574   1.0715   1.1058
  1.1153   1.1228   1.1296   1.1403   1.1421   1.1609   1.1708   1.1866
  1.2423   1.2485   1.2911   1.3206   1.3262   1.3704   1.4049   1.4150
  1.4675   1.4858   1.4944   1.5581   1.5810   1.6186   1.6690   1.7036
  1.7331   1.7601   1.7748   1.7782   1.8280   1.8680   1.8881   1.8977
  1.9229   1.9539   1.9701   2.0007   2.0032   2.0353   2.0671   2.0811
  2.0977   2.1359   2.1837   2.2068   2.2803   2.3004   2.3136   2.3383
  2.3832   2.3932   2.4339   2.4428   2.4578   2.5583   2.5693   2.6131
  2.6758   2.6915   2.7014   2.7479   2.7738   2.8299   2.8715   3.0114
  3.1850   4.0804   4.1867   4.2294   4.2925   4.3415   4.4133   4.5855
  4.6057   4.6550
 --------------------------------------------------------------
 
          Ground-State Mulliken Net Atomic Charges

     Atom                 Charge (a.u.)
  ----------------------------------------
      1 C                    -0.326914
      2 C                    -0.468607
      3 C                    -0.283238
      4 C                    -0.438441
      5 C                    -0.359272
      6 C                    -0.441394
      7 H                     0.211543
      8 H                     0.242222
      9 H                     0.214852
     10 H                     0.213245
     11 H                     0.206372
     12 H                     0.200058
     13 H                     0.200788
     14 H                     0.196547
     15 H                     0.203295
     16 H                     0.203964
     17 H                     0.205209
     18 N                    -0.379113
     19 H                     0.428437
     20 C                     0.339021
     21 H                     0.168083
     22 O                    -0.536657
  ----------------------------------------
  Sum of atomic charges =     0.000000

 -----------------------------------------------------------------
                    Cartesian Multipole Moments
 -----------------------------------------------------------------
    Charge (ESU x 10^10)
                 0.0000
    Dipole Moment (Debye)
         X       4.3786      Y       1.9431      Z       0.7710
       Tot       4.8520
    Quadrupole Moments (Debye-Ang)
        XX     -60.9184     XY      43.5368     YY     -17.4068
        XZ      78.6294     YZ      43.2764     ZZ     -23.5682
    Octopole Moments (Debye-Ang^2)
       XXX     -74.5427    XXY    -633.4468    XYY     405.2469
       YYY   -1187.4611    XXZ   -1219.6241    XYZ     782.4660
       YYZ    -347.3648    XZZ    1383.1077    YZZ     390.5414
       ZZZ   -2388.0594
    Hexadecapole Moments (Debye-Ang^3)
      XXXX    -514.3790   XXXY    -796.8879   XXYY   -6738.6981
      XYYY    3432.0285   YYYY  -29747.2023   XXXZ   -1750.8683
      XXYZ  -12731.9704   XYYZ    7155.7768   YYYZ  -24382.1358
      XXZZ  -24731.6700   XYZZ   13759.2971   YYZZ  -13043.1599
      XZZZ   23392.9220   YZZZ  -13574.6844   ZZZZ -110969.4631
 -----------------------------------------------------------------
 Calculating analytic gradient of the SCF energy
 Gradient of SCF Energy
            1           2           3           4           5           6
    1   0.0306118  -0.0358992  -0.0015611   0.0012230  -0.0230138   0.0059377
    2  -0.0336540  -0.0032171   0.0079385   0.0006102  -0.0018792   0.0224305
    3  -0.0021969  -0.0133219   0.0030277  -0.0007418   0.0190890  -0.0071156
            7           8           9          10          11          12
    1   0.0096059   0.0074689  -0.0134773   0.0022763   0.0034390   0.0033354
    2  -0.0006834  -0.0009691   0.0160976   0.0027895   0.0107098   0.0024498
    3  -0.0043208   0.0137550   0.0045609   0.0089485   0.0001743  -0.0067712
           13          14          15          16          17          18
    1   0.0093931  -0.0083797  -0.0010866   0.0004437  -0.0025391   0.0223700
    2  -0.0003299  -0.0082571  -0.0008082  -0.0017136  -0.0108072   0.0031619
    3  -0.0027013  -0.0029122  -0.0079846   0.0031079  -0.0053490   0.0115004
           19          20          21          22
    1   0.0007125  -0.0297785   0.0065381   0.0123798
    2  -0.0000749  -0.0136468   0.0053194   0.0045329
    3  -0.0004846  -0.0131335  -0.0002930   0.0031628
 Max gradient component =       3.590E-02
 RMS gradient           =       1.157E-02
 Computing fast CPCM-SWIG gradient
 Updating gradient with PCM contributions...
 -- total gradient after adding PCM contribution --
---------------------------------------------------
  Atom         X              Y              Z     
---------------------------------------------------
   1       0.031862      -0.028503      -0.003874
   2      -0.035374      -0.003264      -0.014689
   3       0.002841       0.006861       0.000864
   4       0.000943      -0.001891       0.001104
   5      -0.019852      -0.001044       0.020793
   6       0.003674       0.024007      -0.005433
   7       0.009034       0.000103      -0.003939
   8       0.006825      -0.001226       0.012705
   9      -0.015498       0.013776       0.005427
  10       0.002717       0.001986       0.008871
  11       0.004506       0.010962      -0.000137
  12       0.001803       0.003003      -0.007004
  13       0.009270      -0.000180      -0.004112
  14      -0.009802      -0.008687      -0.002440
  15       0.000035      -0.000428      -0.007858
  16       0.000017      -0.003429       0.002528
  17      -0.005138      -0.011479      -0.004025
  18       0.027573       0.005778       0.009639
  19      -0.006003      -0.003053       0.002453
  20      -0.026008      -0.012201      -0.016244
  21       0.004359       0.004257       0.001613
  22       0.012216       0.004652       0.003759
---------------------------------------------------
 Number of fixed atoms: 0
 Gradient time:  CPU 126.55 s  wall 11.82 s
 Geometry Optimization Parameters
   NAtoms,    NIC,     NZ,  NCons,   NDum,   NFix, NCnnct, MaxDiis
       22     172       0       0       0       0       0       0


** GEOMETRY OPTIMIZATION IN DELOCALIZED INTERNAL COORDINATES **
   Searching for a Minimum

   Optimization Cycle:   1

                       Coordinates (Angstroms)
     ATOM                X               Y               Z
      1  C         0.5800000000   11.8300000000   20.4100000000
      2  C         0.4200000000   10.4100000000   19.8300000000
      3  C         1.5300000000    9.5300000000   20.4400000000
      4  C         1.4400000000    9.5300000000   21.9800000000
      5  C         1.3700000000   10.9200000000   22.6500000000
      6  C         0.4200000000   11.9000000000   21.9400000000
      7  H         1.4900000000    8.5000000000   20.0500000000
      8  H        -0.5200000000   10.0000000000   20.2000000000
      9  H         1.4000000000   12.4700000000   20.0800000000
     10  H        -0.2800000000   12.4300000000   20.0800000000
     11  H         0.5400000000    9.0000000000   22.2800000000
     12  H         2.3200000000    8.9900000000   22.3400000000
     13  H         1.2700000000   10.8300000000   23.7300000000
     14  H         2.3700000000   11.3200000000   22.5000000000
     15  H        -0.6300000000   11.6200000000   22.1100000000
     16  H         0.5600000000   12.9100000000   22.3300000000
     17  H         2.5100000000    9.8400000000   20.0700000000
     18  N         0.5400000000   10.4100000000   18.3800000000
     19  H         1.3900000000   10.7800000000   17.9900000000
     20  C        -0.4700000000   10.0900000000   17.5000000000
     21  H        -0.1600000000   10.3000000000   16.4600000000
     22  O        -1.5600000000    9.6600000000   17.8400000000
   Point Group: c1    Number of degrees of freedom:    60


   Energy is   -404.575961176


 Attempting to generate delocalized internal coordinates
 Initial Hessian constructed with Jon Baker's OPTIMIZE code

 60 Hessian modes will be used to form the next step
  Hessian Eigenvalues:
     0.004850    0.005407    0.006560    0.008376    0.012775    0.018054
     0.018651    0.018677    0.019042    0.033610    0.034591    0.037072
     0.041066    0.046592    0.048162    0.049493    0.050142    0.053390
     0.056519    0.060833    0.066651    0.080982    0.082752    0.082982
     0.085572    0.087172    0.089974    0.096067    0.124538    0.124890
     0.139174    0.159119    0.160000    0.162683    0.172956    0.213045
     0.220010    0.220236    0.268980    0.271008    0.272947    0.282129
     0.284145    0.285211    0.330973    0.334522    0.336922    0.337577
     0.344187    0.345335    0.346174    0.346647    0.347861    0.350043
     0.351115    0.351977    0.376029    0.466943    0.496029    0.953470

 Minimum search - taking simple RFO step
 Searching for Lamda that Minimizes Along All modes
 Value Taken    Lamda =  -0.02438877
 Calculated Step too Large.  Step scaled by  0.535404
 Step Taken.  Stepsize is  0.300000

                             Maximum     Tolerance    Cnvgd?
         Gradient           0.019882      0.000100      NO
         Displacement       0.183316      0.000100      NO
         Energy change     *********      0.000000      NO


 New Cartesian Coordinates Obtained by Inverse Iteration

 Displacement from previous Coordinates is:  0.266688
 ----------------------------------------------------------------
             Standard Nuclear Orientation (Angstroms)
    I     Atom           X                Y                Z
 ----------------------------------------------------------------
    1      C       0.5529037818    11.8429288701    20.4040393402
    2      C       0.4326836771    10.4218912674    19.8298378240
    3      C       1.5304013742     9.5326170363    20.4534994274
    4      C       1.4376789972     9.5177024920    21.9895662633
    5      C       1.3983858948    10.9214113720    22.6318263455
    6      C       0.4157377299    11.8824238034    21.9420574576
    7      H       1.4717723326     8.5055792448    20.0602202242
    8      H      -0.5255285014    10.0123029839    20.1531217293
    9      H       1.4061537969    12.4416693342    20.0677854153
   10      H      -0.3021116824    12.4346671246    20.0384185347
   11      H       0.5315428346     8.9810242853    22.2841069364
   12      H       2.3058441135     8.9677193083    22.3681721527
   13      H       1.2781009039    10.8432395912    23.7144313283
   14      H       2.4017571252    11.3383183029    22.4852038153
   15      H      -0.6239340261    11.5916542014    22.1572366052
   16      H       0.5558967264    12.8963922898    22.3265191827
   17      H       2.5194030950     9.8609920679    20.1094646639
   18      N       0.5416130239    10.4259619885    18.3788183155
   19      H       1.3929561547    10.7971158001    17.9822481108
   20      C      -0.4674796877    10.1055120711    17.5104466300
   21      H      -0.1630061401    10.2826495648    16.4631586820
   22      O      -1.5607715239     9.6662270000    17.8398210158
 ----------------------------------------------------------------
 Nuclear Repulsion Energy =         465.49250027 hartrees
 There are       35 alpha and       35 beta electrons
 Discretize the solute cavity surface with Lebedev spheres
	Using 302 Lebedev grid points for each H atom
	Using 302 Lebedev grid points for other atoms
	Atomic van der Waals radii will be scaled by 1.20
 Remove points where switching function is < 1.0e-08
 Keep 2732 surface tesserae and discard 3912 interior tesserae
 Molecular Surface Area = 182.920 Angst**2
 Applying Cartesian multipole field
    Component          Value
    ---------          -----
     (2,0,0)        1.00000E-11
     (0,2,0)        2.00000E-12
     (0,0,2)       -3.00000E-13
 Nucleus-field energy     =     0.0000000281 hartrees
 Requested basis set is 6-31+G(d)
 There are 71 shells and 197 basis functions
 A cutoff of  1.0D-14 yielded   2411 shell pairs
 There are     18991 function pairs
 Smallest overlap matrix eigenvalue = 2.36E-05
 Guess MOs from SCF MO coefficient file

 -----------------------------------------------------------------------
  General SCF calculation program by
  Eric Jon Sundstrom, Paul Horn, Yuezhi Mao, Dmitri Zuev, Alec White,
  David Stuck, Shaama M.S., Shane Yost, Joonho Lee, David Small,
  Daniel Levine, Susi Lehtola, Hugh Burton, Evgeny Epifanovsky,
  Bang C. Huynh
 -----------------------------------------------------------------------
 Exchange:     0.2000 Hartree-Fock + 0.0800 Slater + 0.7200 B88
 Correlation:  0.1900 VWN1RPA + 0.8100 LYP
 Using Euler-Maclaurin-Lebedev (99,590) quadrature formula
 using 16 threads for integral computing
 -------------------------------------------------------
 OpenMP Integral computing Module                
 Release: version 2.0, May 2017, Q-Chem Inc. Pleasanton 
 -------------------------------------------------------
 A restricted SCF calculation will be
 performed using Roothaan-Hall, DIIS
 SCF converges when DIIS error is below 1.0e-08
 ---------------------------------------
  Cycle       Energy         DIIS error
 ---------------------------------------
    1    -404.5763129787      5.30e-04  Roothaan Step
 ---------------------------------------
  Cycle       Energy         DIIS error
 ---------------------------------------
    1    -404.5832372254      7.01e-04  
    2    -404.5769008161      1.57e-03  
    3    -404.5864467807      1.13e-04  
    4    -404.5865046626      5.22e-05  
    5    -404.5865150107      1.79e-05  
    6    -404.5865162522      4.97e-06  
    7    -404.5865163487      1.41e-06  
    8    -404.5865163580      2.75e-07  
    9    -404.5865163583      1.21e-07  
   10    -404.5865163584      2.69e-08  
   11    -404.5865163584      6.42e-09  Convergence criterion met
 ---------------------------------------
 SCF time:   CPU 813.34s  wall 57.00s 

************** Final PCM Free Energy Summary **************
 G_electrostatic  =      -0.00880223 hartree =      -5.52348209 kcal/mol
 G_cavitation     =       0.00000000 hartree =       0.00000000 kcal/mol
 G_dispersion     =       0.00000000 hartree =       0.00000000 kcal/mol
 G_repulsion      =       0.00000000 hartree =       0.00000000 kcal/mol
 --------------------------------------------------
 Non-electrostatic Free Energy =       0.00000000 hartree =       0.00000000 kcal/mol
 Total                         =      -0.00880223 hartree =      -5.52348209 kcal/mol
 --------------------------------------------------
 SCF Energy (H0 + V/2)                       =    -404.58651636 
 Solute Internal Energy (H0)                 =    -404.57771413 
 Total Free Energy (H0 + V/2 + non-elec)     =    -404.58651636 hartree
                                             = -253881.87085378 kcal/mol
***********************************************************

 SCF   energy in the final basis set =     -404.5865163584
 Total energy in the final basis set =     -404.5865163584
 
 --------------------------------------------------------------
 
                    Orbital Energies (a.u.)
 --------------------------------------------------------------
 
 Alpha MOs
 -- Occupied --
-19.1340 -14.3715 -10.2949 -10.2300 -10.1866 -10.1861 -10.1853 -10.1836
-10.1813  -1.0437  -0.9331  -0.8256  -0.7460  -0.7448  -0.6416  -0.6159
 -0.5961  -0.5652  -0.5305  -0.4862  -0.4622  -0.4476  -0.4421  -0.4216
 -0.4193  -0.4009  -0.3800  -0.3744  -0.3527  -0.3494  -0.3244  -0.3136
 -0.3106  -0.2698  -0.2588
 -- Virtual --
  0.0034   0.0088   0.0118   0.0224   0.0245   0.0372   0.0460   0.0497
  0.0545   0.0652   0.0672   0.0815   0.0851   0.0923   0.0991   0.1014
  0.1076   0.1144   0.1250   0.1319   0.1377   0.1480   0.1514   0.1615
  0.1694   0.1764   0.1796   0.1826   0.1983   0.1993   0.2078   0.2093
  0.2194   0.2228   0.2342   0.2432   0.2474   0.2516   0.2608   0.2687
  0.2747   0.2812   0.2842   0.2881   0.2981   0.3073   0.3119   0.3253
  0.3298   0.3324   0.3508   0.3700   0.3770   0.3815   0.4135   0.4197
  0.4359   0.4503   0.4877   0.6068   0.6391   0.6557   0.6604   0.6681
  0.6854   0.6994   0.7219   0.7283   0.7458   0.7500   0.7680   0.7777
  0.7953   0.8012   0.8227   0.8341   0.8593   0.8994   0.9478   0.9681
  0.9799   0.9911   1.0181   1.0246   1.0352   1.0554   1.0737   1.1020
  1.1150   1.1214   1.1254   1.1421   1.1525   1.1639   1.1726   1.1808
  1.2397   1.2504   1.2882   1.3249   1.3259   1.3680   1.4074   1.4089
  1.4643   1.4847   1.4938   1.5601   1.5792   1.6191   1.6811   1.7140
  1.7324   1.7596   1.7731   1.7806   1.8302   1.8668   1.8938   1.8990
  1.9202   1.9440   1.9692   1.9943   2.0055   2.0357   2.0638   2.0815
  2.1058   2.1194   2.1899   2.2058   2.2773   2.3008   2.3096   2.3392
  2.3916   2.3944   2.4269   2.4276   2.4517   2.5573   2.5716   2.6168
  2.6803   2.6863   2.6993   2.7494   2.7697   2.8325   2.8675   3.0085
  3.1861   4.0829   4.1873   4.2298   4.2905   4.3371   4.4149   4.5895
  4.6016   4.6591
 --------------------------------------------------------------
 
          Ground-State Mulliken Net Atomic Charges

     Atom                 Charge (a.u.)
  ----------------------------------------
      1 C                    -0.311746
      2 C                    -0.454596
      3 C                    -0.289655
      4 C                    -0.438654
      5 C                    -0.366200
      6 C                    -0.443061
      7 H                     0.211501
      8 H                     0.239217
      9 H                     0.210643
     10 H                     0.212087
     11 H                     0.206381
     12 H                     0.200817
     13 H                     0.199894
     14 H                     0.196758
     15 H                     0.204701
     16 H                     0.202937
     17 H                     0.204032
     18 N                    -0.378149
     19 H                     0.427333
     20 C                     0.340918
     21 H                     0.166398
     22 O                    -0.541555
  ----------------------------------------
  Sum of atomic charges =     0.000000

 -----------------------------------------------------------------
                    Cartesian Multipole Moments
 -----------------------------------------------------------------
    Charge (ESU x 10^10)
                 0.0000
    Dipole Moment (Debye)
         X       4.4458      Y       1.9263      Z       0.8693
       Tot       4.9226
    Quadrupole Moments (Debye-Ang)
        XX     -60.9325     XY      44.2517     YY     -17.8031
        XZ      79.9527     YZ      43.7823     ZZ     -19.7630
    Octopole Moments (Debye-Ang^2)
       XXX     -74.4640    XXY    -633.3342    XYY     412.6617
       YYY   -1195.8186    XXZ   -1219.6120    XYZ     796.3930
       YYZ    -348.4974    XZZ    1409.2963    YZZ     415.7983
       ZZZ   -2277.0113
    Hexadecapole Moments (Debye-Ang^3)
      XXXX    -516.8885   XXXY    -794.4024   XXYY   -6735.1518
      XYYY    3506.4587   YYYY  -29913.8421   XXXZ   -1750.2247
      XXYZ  -12725.6210   XYYZ    7298.5917   YYYZ  -24498.4231
      XXZZ  -24725.5181   XYZZ   14031.8502   YYZZ  -12950.6282
      XZZZ   23911.7774   YZZZ  -12789.9432   ZZZZ -108071.6523
 -----------------------------------------------------------------
 Calculating analytic gradient of the SCF energy
 Gradient of SCF Energy
            1           2           3           4           5           6
    1   0.0214913  -0.0231409  -0.0040750   0.0013839  -0.0180421   0.0042522
    2  -0.0257632  -0.0007891   0.0065101  -0.0006851  -0.0010232   0.0131118
    3  -0.0020112  -0.0114285   0.0058189  -0.0015496   0.0117703  -0.0031370
            7           8           9          10          11          12
    1   0.0063695   0.0052428  -0.0079922  -0.0002034   0.0009008   0.0031901
    2  -0.0016516   0.0002370   0.0126071   0.0031462   0.0047096   0.0017018
    3  -0.0023859   0.0097571   0.0009738   0.0040264  -0.0000579  -0.0037621
           13          14          15          16          17          18
    1   0.0064784  -0.0023634  -0.0019184   0.0010182   0.0006182   0.0118673
    2  -0.0009815  -0.0032814  -0.0005696  -0.0008018  -0.0065115   0.0005645
    3  -0.0008709  -0.0018950  -0.0043939   0.0019566  -0.0042622   0.0089108
           19          20          21          22
    1   0.0040081  -0.0231970   0.0052591   0.0088524
    2   0.0014467  -0.0067474   0.0028122   0.0019584
    3  -0.0011127  -0.0065345  -0.0008322   0.0010198
 Max gradient component =       2.576E-02
 RMS gradient           =       7.949E-03
 Computing fast CPCM-SWIG gradient
 Updating gradient with PCM contributions...
 -- total gradient after adding PCM contribution --
---------------------------------------------------
  Atom         X              Y              Z     
---------------------------------------------------
   1       0.023145      -0.021093      -0.003947
   2      -0.022729      -0.000861      -0.012865
   3       0.000342       0.005531       0.003769
   4       0.001114      -0.003377       0.000359
   5      -0.014930      -0.000021       0.013617
   6       0.001933       0.014802      -0.001398
   7       0.005923      -0.000773      -0.002055
   8       0.004493      -0.000081       0.008781
   9      -0.010270       0.010596       0.001983
  10       0.000274       0.002354       0.004130
  11       0.001989       0.005103      -0.000365
  12       0.001658       0.002315      -0.004109
  13       0.006452      -0.000837      -0.002293
  14      -0.003929      -0.003857      -0.001449
  15      -0.000789      -0.000165      -0.004441
  16       0.000574      -0.002459       0.001421
  17      -0.002027      -0.007370      -0.003087
  18       0.017163       0.003244       0.007137
  19      -0.002752      -0.001575       0.001798
  20      -0.019421      -0.005355      -0.009498
  21       0.003091       0.001831       0.000987
  22       0.008696       0.002047       0.001527
---------------------------------------------------
 Number of fixed atoms: 0
 Gradient time:  CPU 124.66 s  wall 11.62 s
 Geometry Optimization Parameters
   NAtoms,    NIC,     NZ,  NCons,   NDum,   NFix, NCnnct, MaxDiis
       22     172       0       0       0       0       0       0

 Cartesian Hessian Update
 Hessian updated using BFGS update


** GEOMETRY OPTIMIZATION IN DELOCALIZED INTERNAL COORDINATES **
   Searching for a Minimum

   Optimization Cycle:   2

                       Coordinates (Angstroms)
     ATOM                X               Y               Z
      1  C         0.5529037818   11.8429288701   20.4040393402
      2  C         0.4326836771   10.4218912674   19.8298378240
      3  C         1.5304013742    9.5326170363   20.4534994274
      4  C         1.4376789972    9.5177024920   21.9895662633
      5  C         1.3983858948   10.9214113720   22.6318263455
      6  C         0.4157377299   11.8824238034   21.9420574576
      7  H         1.4717723326    8.5055792448   20.0602202242
      8  H        -0.5255285014   10.0123029839   20.1531217293
      9  H         1.4061537969   12.4416693342   20.0677854153
     10  H        -0.3021116824   12.4346671246   20.0384185347
     11  H         0.5315428346    8.9810242853   22.2841069364
     12  H         2.3058441135    8.9677193083   22.3681721527
     13  H         1.2781009039   10.8432395912   23.7144313283
     14  H         2.4017571252   11.3383183029   22.4852038153
     15  H        -0.6239340261   11.5916542014   22.1572366052
     16  H         0.5558967264   12.8963922898   22.3265191827
     17  H         2.5194030950    9.8609920679   20.1094646639
     18  N         0.5416130239   10.4259619885   18.3788183155
     19  H         1.3929561547   10.7971158001   17.9822481108
     20  C        -0.4674796877   10.1055120711   17.5104466300
     21  H        -0.1630061401   10.2826495648   16.4631586820
     22  O        -1.5607715239    9.6662270000   17.8398210158
   Point Group: c1    Number of degrees of freedom:    60


   Energy is   -404.586516358

 Hessian updated using BFGS update

 60 Hessian modes will be used to form the next step
  Hessian Eigenvalues:
     0.004847    0.005415    0.006557    0.008377    0.012773    0.017390
     0.018563    0.018775    0.019882    0.033152    0.035883    0.037088
     0.041440    0.046154    0.047366    0.049683    0.051186    0.053463
     0.057137    0.060669    0.066918    0.080928    0.082174    0.083340
     0.084304    0.087391    0.090017    0.093049    0.123577    0.125522
     0.139278    0.158376    0.159501    0.162709    0.178986    0.211878
     0.219966    0.220429    0.269245    0.272598    0.275356    0.281743
     0.284866    0.287043    0.330976    0.334397    0.336961    0.338628
     0.344115    0.345254    0.345913    0.346546    0.347737    0.349723
     0.351696    0.356189    0.376901    0.466482    0.488987    0.948550

 Minimum search - taking simple RFO step
 Searching for Lamda that Minimizes Along All modes
 Value Taken    Lamda =  -0.01299098
 Calculated Step too Large.  Step scaled by  0.583470
 Step Taken.  Stepsize is  0.300000

                             Maximum     Tolerance    Cnvgd?
         Gradient           0.013731      0.000100      NO
         Displacement       0.166008      0.000100      NO
         Energy change     -0.010555      0.000000      NO


 New Cartesian Coordinates Obtained by Inverse Iteration

 Displacement from previous Coordinates is:  0.249300
 ----------------------------------------------------------------
             Standard Nuclear Orientation (Angstroms)
    I     Atom           X                Y                Z
 ----------------------------------------------------------------
    1      C       0.5223181220    11.8501356842    20.4049556272
    2      C       0.4416654583    10.4258465663    19.8344061169
    3      C       1.5313561132     9.5349472742    20.4604695621
    4      C       1.4351749396     9.5141415522    21.9938935732
    5      C       1.4255042631    10.9256000087    22.6100360321
    6      C       0.4116436997    11.8674388229    21.9426818496
    7      H       1.4559819060     8.5142215856    20.0587857215
    8      H      -0.5299564585    10.0070778611    20.1090793019
    9      H       1.4125248851    12.4016833008    20.0738285517
   10      H      -0.3249532715    12.4343304461    20.0134060176
   11      H       0.5211392414     8.9837246860    22.2902486224
   12      H       2.2875051220     8.9490789970    22.3899103715
   13      H       1.2853686539    10.8653574937    23.6948085711
   14      H       2.4300039797    11.3492356604    22.4608524463
   15      H      -0.6146944816    11.5636939980    22.1982475374
   16      H       0.5474470917    12.8868787267    22.3206262030
   17      H       2.5236358861     9.8861150498    20.1396924697
   18      N       0.5491175806    10.4298507352    18.3807926946
   19      H       1.3993079179    10.8040142924    17.9774103972
   20      C      -0.4504813231    10.0978758370    17.5209048027
   21      H      -0.1661399223    10.2840614999    16.4697204232
   22      O      -1.5634694035     9.6946899220    17.8452431071
 ----------------------------------------------------------------
 Nuclear Repulsion Energy =         466.06632974 hartrees
 There are       35 alpha and       35 beta electrons
 Discretize the solute cavity surface with Lebedev spheres
	Using 302 Lebedev grid points for each H atom
	Using 302 Lebedev grid points for other atoms
	Atomic van der Waals radii will be scaled by 1.20
 Remove points where switching function is < 1.0e-08
 Keep 2743 surface tesserae and discard 3901 interior tesserae
 Molecular Surface Area = 182.712 Angst**2
 Applying Cartesian multipole field
    Component          Value
    ---------          -----
     (2,0,0)        1.00000E-11
     (0,2,0)        2.00000E-12
     (0,0,2)       -3.00000E-13
 Nucleus-field energy     =     0.0000000281 hartrees
 Requested basis set is 6-31+G(d)
 There are 71 shells and 197 basis functions
 A cutoff of  1.0D-14 yielded   2411 shell pairs
 There are     18991 function pairs
 Smallest overlap matrix eigenvalue = 2.40E-05
 Guess MOs from SCF MO coefficient file

 -----------------------------------------------------------------------
  General SCF calculation program by
  Eric Jon Sundstrom, Paul Horn, Yuezhi Mao, Dmitri Zuev, Alec White,
  David Stuck, Shaama M.S., Shane Yost, Joonho Lee, David Small,
  Daniel Levine, Susi Lehtola, Hugh Burton, Evgeny Epifanovsky,
  Bang C. Huynh
 -----------------------------------------------------------------------
 Exchange:     0.2000 Hartree-Fock + 0.0800 Slater + 0.7200 B88
 Correlation:  0.1900 VWN1RPA + 0.8100 LYP
 Using Euler-Maclaurin-Lebedev (99,590) quadrature formula
 using 16 threads for integral computing
 -------------------------------------------------------
 OpenMP Integral computing Module                
 Release: version 2.0, May 2017, Q-Chem Inc. Pleasanton 
 -------------------------------------------------------
 A restricted SCF calculation will be
 performed using Roothaan-Hall, DIIS
 SCF converges when DIIS error is below 1.0e-08
 ---------------------------------------
  Cycle       Energy         DIIS error
 ---------------------------------------
    1    -404.5812352760      5.85e-04  Roothaan Step
 ---------------------------------------
  Cycle       Energy         DIIS error
 ---------------------------------------
    1    -404.5887161332      7.18e-04  
    2    -404.5820903177      1.61e-03  
    3    -404.5920594368      1.16e-04  
    4    -404.5921193723      5.60e-05  
    5    -404.5921313835      1.82e-05  
    6    -404.5921326887      4.97e-06  
    7    -404.5921327835      1.52e-06  
    8    -404.5921327944      3.04e-07  
    9    -404.5921327948      1.30e-07  
   10    -404.5921327949      2.73e-08  
   11    -404.5921327949      6.45e-09  Convergence criterion met
 ---------------------------------------
 SCF time:   CPU 815.95s  wall 54.00s 

************** Final PCM Free Energy Summary **************
 G_electrostatic  =      -0.00894744 hartree =      -5.61460183 kcal/mol
 G_cavitation     =       0.00000000 hartree =       0.00000000 kcal/mol
 G_dispersion     =       0.00000000 hartree =       0.00000000 kcal/mol
 G_repulsion      =       0.00000000 hartree =       0.00000000 kcal/mol
 --------------------------------------------------
 Non-electrostatic Free Energy =       0.00000000 hartree =       0.00000000 kcal/mol
 Total                         =      -0.00894744 hartree =      -5.61460183 kcal/mol
 --------------------------------------------------
 SCF Energy (H0 + V/2)                       =    -404.59213279 
 Solute Internal Energy (H0)                 =    -404.58318536 
 Total Free Energy (H0 + V/2 + non-elec)     =    -404.59213279 hartree
                                             = -253885.39522087 kcal/mol
***********************************************************

 SCF   energy in the final basis set =     -404.5921327949
 Total energy in the final basis set =     -404.5921327949
 
 --------------------------------------------------------------
 
                    Orbital Energies (a.u.)
 --------------------------------------------------------------
 
 Alpha MOs
 -- Occupied --
-19.1322 -14.3722 -10.2936 -10.2287 -10.1871 -10.1868 -10.1851 -10.1843
-10.1825  -1.0412  -0.9341  -0.8270  -0.7464  -0.7457  -0.6410  -0.6164
 -0.5957  -0.5656  -0.5293  -0.4860  -0.4625  -0.4474  -0.4418  -0.4215
 -0.4183  -0.4000  -0.3807  -0.3764  -0.3518  -0.3493  -0.3246  -0.3156
 -0.3127  -0.2682  -0.2596
 -- Virtual --
  0.0035   0.0096   0.0116   0.0224   0.0243   0.0372   0.0461   0.0493
  0.0546   0.0653   0.0672   0.0815   0.0853   0.0921   0.0986   0.1015
  0.1077   0.1147   0.1236   0.1319   0.1378   0.1483   0.1517   0.1608
  0.1692   0.1769   0.1798   0.1831   0.1972   0.1995   0.2087   0.2098
  0.2203   0.2226   0.2338   0.2449   0.2463   0.2512   0.2610   0.2686
  0.2778   0.2815   0.2844   0.2888   0.2947   0.3084   0.3110   0.3253
  0.3283   0.3306   0.3542   0.3693   0.3794   0.3835   0.4134   0.4175
  0.4370   0.4505   0.4879   0.6060   0.6374   0.6551   0.6608   0.6662
  0.6838   0.6980   0.7233   0.7289   0.7419   0.7525   0.7701   0.7789
  0.7969   0.8007   0.8204   0.8356   0.8576   0.9020   0.9490   0.9699
  0.9777   0.9891   1.0167   1.0245   1.0317   1.0536   1.0774   1.0984
  1.1154   1.1194   1.1238   1.1428   1.1599   1.1674   1.1765   1.1806
  1.2371   1.2523   1.2869   1.3242   1.3327   1.3695   1.4000   1.4100
  1.4701   1.4851   1.4877   1.5619   1.5800   1.6193   1.6895   1.7222
  1.7367   1.7566   1.7696   1.7898   1.8348   1.8701   1.8980   1.9059
  1.9162   1.9379   1.9683   1.9995   2.0063   2.0396   2.0594   2.0840
  2.1095   2.1163   2.1967   2.2084   2.2773   2.2975   2.3169   2.3383
  2.3969   2.4039   2.4165   2.4212   2.4484   2.5582   2.5769   2.6210
  2.6795   2.6855   2.7011   2.7518   2.7721   2.8342   2.8664   3.0063
  3.1881   4.0868   4.1902   4.2320   4.2912   4.3345   4.4158   4.5942
  4.5998   4.6632
 --------------------------------------------------------------
 
          Ground-State Mulliken Net Atomic Charges

     Atom                 Charge (a.u.)
  ----------------------------------------
      1 C                    -0.295783
      2 C                    -0.449294
      3 C                    -0.286171
      4 C                    -0.440481
      5 C                    -0.373160
      6 C                    -0.445634
      7 H                     0.211815
      8 H                     0.237414
      9 H                     0.206910
     10 H                     0.212234
     11 H                     0.206516
     12 H                     0.201241
     13 H                     0.199244
     14 H                     0.197729
     15 H                     0.206099
     16 H                     0.202270
     17 H                     0.203509
     18 N                    -0.378466
     19 H                     0.426336
     20 C                     0.339830
     21 H                     0.165397
     22 O                    -0.547556
  ----------------------------------------
  Sum of atomic charges =     0.000000

 -----------------------------------------------------------------
                    Cartesian Multipole Moments
 -----------------------------------------------------------------
    Charge (ESU x 10^10)
                 0.0000
    Dipole Moment (Debye)
         X       4.5347      Y       1.8622      Z       0.9585
       Tot       4.9951
    Quadrupole Moments (Debye-Ang)
        XX     -61.0010     XY      45.2674     YY     -19.0769
        XZ      81.6321     YZ      43.4609     ZZ     -16.3208
    Octopole Moments (Debye-Ang^2)
       XXX     -74.3704    XXY    -633.8589    XYY     423.7353
       YYY   -1215.9298    XXZ   -1220.6610    XYZ     815.4256
       YYZ    -363.9519    XZZ    1440.9716    YZZ     426.8544
       ZZZ   -2176.8883
    Hexadecapole Moments (Debye-Ang^3)
      XXXX    -518.7698   XXXY    -791.1741   XXYY   -6738.5388
      XYYY    3622.3070   YYYY  -30210.1437   XXXZ   -1748.2209
      XXYZ  -12731.8101   XYYZ    7504.6662   YYYZ  -24798.0327
      XXZZ  -24740.0343   XYZZ   14388.1137   YYZZ  -13079.2165
      XZZZ   24506.9574   YZZZ  -12245.3331   ZZZZ -105467.7392
 -----------------------------------------------------------------
 Calculating analytic gradient of the SCF energy
 Gradient of SCF Energy
            1           2           3           4           5           6
    1   0.0103482  -0.0107985  -0.0054760   0.0009687  -0.0120725   0.0034984
    2  -0.0162292   0.0004727   0.0043558   0.0010622  -0.0014902   0.0052021
    3   0.0002180  -0.0067234   0.0050715  -0.0024272   0.0042766  -0.0019539
            7           8           9          10          11          12
    1   0.0031039   0.0028961  -0.0026203  -0.0013199  -0.0002038   0.0027119
    2  -0.0014679   0.0005472   0.0079457   0.0021791   0.0012823   0.0008582
    3  -0.0014733   0.0057761  -0.0003575   0.0017374   0.0003217  -0.0015225
           13          14          15          16          17          18
    1   0.0029947   0.0007784  -0.0017651   0.0012978   0.0023775   0.0016016
    2  -0.0006643  -0.0010213  -0.0001800   0.0004895  -0.0026627  -0.0007568
    3   0.0006316  -0.0012159  -0.0022893   0.0010241  -0.0028355   0.0060681
           19          20          21          22
    1   0.0056499  -0.0106400   0.0026590   0.0040100
    2   0.0030433  -0.0110843   0.0044511   0.0036676
    3  -0.0020907  -0.0012773  -0.0010784   0.0001197
 Max gradient component =       1.623E-02
 RMS gradient           =       4.603E-03
 Computing fast CPCM-SWIG gradient
 Updating gradient with PCM contributions...
 -- total gradient after adding PCM contribution --
---------------------------------------------------
  Atom         X              Y              Z     
---------------------------------------------------
   1       0.012410      -0.012079      -0.001864
   2      -0.010504       0.000425      -0.008268
   3      -0.000957       0.003488       0.003085
   4       0.000652      -0.001844      -0.000398
   5      -0.008978      -0.000311       0.006226
   6       0.001094       0.006989      -0.000142
   7       0.002786      -0.000478      -0.001126
   8       0.002009       0.000204       0.004864
   9      -0.005173       0.006294       0.000670
  10      -0.000808       0.001401       0.001941
  11       0.000909       0.001759      -0.000010
  12       0.001200       0.001533      -0.001963
  13       0.003093      -0.000556      -0.000805
  14      -0.000946      -0.001695      -0.000757
  15      -0.000643       0.000248      -0.002480
  16       0.000849      -0.001137       0.000530
  17      -0.000333      -0.003733      -0.001777
  18       0.006926       0.001994       0.004327
  19      -0.001127      -0.000051       0.000825
  20      -0.006860      -0.009744      -0.004110
  21       0.000507       0.003473       0.000667
  22       0.003894       0.003817       0.000565
---------------------------------------------------
 Number of fixed atoms: 0
 Gradient time:  CPU 124.08 s  wall 11.66 s
 Geometry Optimization Parameters
   NAtoms,    NIC,     NZ,  NCons,   NDum,   NFix, NCnnct, MaxDiis
       22     172       0       0       0       0       0       0

 Cartesian Hessian Update
 Hessian updated using BFGS update


** GEOMETRY OPTIMIZATION IN DELOCALIZED INTERNAL COORDINATES **
   Searching for a Minimum

   Optimization Cycle:   3

                       Coordinates (Angstroms)
     ATOM                X               Y               Z
      1  C         0.5223181220   11.8501356842   20.4049556272
      2  C         0.4416654583   10.4258465663   19.8344061169
      3  C         1.5313561132    9.5349472742   20.4604695621
      4  C         1.4351749396    9.5141415522   21.9938935732
      5  C         1.4255042631   10.9256000087   22.6100360321
      6  C         0.4116436997   11.8674388229   21.9426818496
      7  H         1.4559819060    8.5142215856   20.0587857215
      8  H        -0.5299564585   10.0070778611   20.1090793019
      9  H         1.4125248851   12.4016833008   20.0738285517
     10  H        -0.3249532715   12.4343304461   20.0134060176
     11  H         0.5211392414    8.9837246860   22.2902486224
     12  H         2.2875051220    8.9490789970   22.3899103715
     13  H         1.2853686539   10.8653574937   23.6948085711
     14  H         2.4300039797   11.3492356604   22.4608524463
     15  H        -0.6146944816   11.5636939980   22.1982475374
     16  H         0.5474470917   12.8868787267   22.3206262030
     17  H         2.5236358861    9.8861150498   20.1396924697
     18  N         0.5491175806   10.4298507352   18.3807926946
     19  H         1.3993079179   10.8040142924   17.9774103972
     20  C        -0.4504813231   10.0978758370   17.5209048027
     21  H        -0.1661399223   10.2840614999   16.4697204232
     22  O        -1.5634694035    9.6946899220   17.8452431071
   Point Group: c1    Number of degrees of freedom:    60


   Energy is   -404.592132795

 Hessian updated using BFGS update

 60 Hessian modes will be used to form the next step
  Hessian Eigenvalues:
     0.004842    0.005405    0.006545    0.008377    0.012681    0.016659
     0.018526    0.018738    0.023037    0.034577    0.037029    0.037219
     0.043556    0.046551    0.048123    0.049724    0.051224    0.053388
     0.056963    0.060453    0.066942    0.080767    0.081192    0.083204
     0.083978    0.087345    0.090070    0.091960    0.123431    0.125717
     0.139246    0.157857    0.159486    0.162705    0.178045    0.211801
     0.219767    0.220395    0.269133    0.272596    0.275516    0.282015
     0.284866    0.287273    0.330975    0.334313    0.336976    0.338416
     0.344072    0.345312    0.345860    0.346508    0.347731    0.349714
     0.351669    0.356766    0.377764    0.466601    0.488463    0.945388

 Minimum search - taking simple RFO step
 Searching for Lamda that Minimizes Along All modes
 Value Taken    Lamda =  -0.00697612
 Calculated Step too Large.  Step scaled by  0.582549
 Step Taken.  Stepsize is  0.300000

                             Maximum     Tolerance    Cnvgd?
         Gradient           0.007511      0.000100      NO
         Displacement       0.133589      0.000100      NO
         Energy change     -0.005616      0.000000      NO


 New Cartesian Coordinates Obtained by Inverse Iteration

 Displacement from previous Coordinates is:  0.304556
 ----------------------------------------------------------------
             Standard Nuclear Orientation (Angstroms)
    I     Atom           X                Y                Z
 ----------------------------------------------------------------
    1      C       0.5004028372    11.8659368573    20.4171988623
    2      C       0.4387451495    10.4425495909    19.8394037313
    3      C       1.5212716978     9.5421713535    20.4563613222
    4      C       1.4267471626     9.5135186062    21.9892111505
    5      C       1.4524251917    10.9265857228    22.5930302257
    6      C       0.4134891879    11.8589619955    21.9533870889
    7      H       1.4280819301     8.5292949057    20.0433524257
    8      H      -0.5425380901    10.0177599430    20.0744043489
    9      H       1.4235653841    12.3712152160    20.0958154330
   10      H      -0.3336717490    12.4539057968    20.0106006434
   11      H       0.5013686178     8.9999442097    22.2876684512
   12      H       2.2602020615     8.9245720935    22.3931561547
   13      H       1.3039922573    10.8765226488    23.6794115378
   14      H       2.4566417086    11.3509504823    22.4366647692
   15      H      -0.5995989595    11.5422956848    22.2421377240
   16      H       0.5452330498    12.8799188979    22.3336442546
   17      H       2.5147560568     9.9080420819    20.1518312635
   18      N       0.5444691323    10.4591844478    18.3816971071
   19      H       1.3971669692    10.8276684707    17.9745778255
   20      C      -0.4473136055    10.1214354321    17.5256690976
   21      H      -0.1388383394    10.2144622486    16.4690090959
   22      O      -1.5365976509     9.6431033143    17.8417674868
 ----------------------------------------------------------------
 Nuclear Repulsion Energy =         466.45544440 hartrees
 There are       35 alpha and       35 beta electrons
 Discretize the solute cavity surface with Lebedev spheres
	Using 302 Lebedev grid points for each H atom
	Using 302 Lebedev grid points for other atoms
	Atomic van der Waals radii will be scaled by 1.20
 Remove points where switching function is < 1.0e-08
 Keep 2739 surface tesserae and discard 3905 interior tesserae
 Molecular Surface Area = 182.608 Angst**2
 Applying Cartesian multipole field
    Component          Value
    ---------          -----
     (2,0,0)        1.00000E-11
     (0,2,0)        2.00000E-12
     (0,0,2)       -3.00000E-13
 Nucleus-field energy     =     0.0000000281 hartrees
 Requested basis set is 6-31+G(d)
 There are 71 shells and 197 basis functions
 A cutoff of  1.0D-14 yielded   2412 shell pairs
 There are     18992 function pairs
 Smallest overlap matrix eigenvalue = 2.43E-05
 Guess MOs from SCF MO coefficient file

 -----------------------------------------------------------------------
  General SCF calculation program by
  Eric Jon Sundstrom, Paul Horn, Yuezhi Mao, Dmitri Zuev, Alec White,
  David Stuck, Shaama M.S., Shane Yost, Joonho Lee, David Small,
  Daniel Levine, Susi Lehtola, Hugh Burton, Evgeny Epifanovsky,
  Bang C. Huynh
 -----------------------------------------------------------------------
 Exchange:     0.2000 Hartree-Fock + 0.0800 Slater + 0.7200 B88
 Correlation:  0.1900 VWN1RPA + 0.8100 LYP
 Using Euler-Maclaurin-Lebedev (99,590) quadrature formula
 using 16 threads for integral computing
 -------------------------------------------------------
 OpenMP Integral computing Module                
 Release: version 2.0, May 2017, Q-Chem Inc. Pleasanton 
 -------------------------------------------------------
 A restricted SCF calculation will be
 performed using Roothaan-Hall, DIIS
 SCF converges when DIIS error is below 1.0e-08
 ---------------------------------------
  Cycle       Energy         DIIS error
 ---------------------------------------
    1    -404.5808569480      7.56e-04  Roothaan Step
 ---------------------------------------
  Cycle       Energy         DIIS error
 ---------------------------------------
    1    -404.5903834901      7.33e-04  
    2    -404.5835843664      1.63e-03  
    3    -404.5938645125      1.18e-04  
    4    -404.5939253832      5.86e-05  
    5    -404.5939385258      1.88e-05  
    6    -404.5939399324      5.11e-06  
    7    -404.5939400317      1.62e-06  
    8    -404.5939400440      3.23e-07  
    9    -404.5939400445      1.36e-07  
   10    -404.5939400446      2.85e-08  
   11    -404.5939400446      6.33e-09  Convergence criterion met
 ---------------------------------------
 SCF time:   CPU 800.77s  wall 54.00s 

************** Final PCM Free Energy Summary **************
 G_electrostatic  =      -0.00909419 hartree =      -5.70668952 kcal/mol
 G_cavitation     =       0.00000000 hartree =       0.00000000 kcal/mol
 G_dispersion     =       0.00000000 hartree =       0.00000000 kcal/mol
 G_repulsion      =       0.00000000 hartree =       0.00000000 kcal/mol
 --------------------------------------------------
 Non-electrostatic Free Energy =       0.00000000 hartree =       0.00000000 kcal/mol
 Total                         =      -0.00909419 hartree =      -5.70668952 kcal/mol
 --------------------------------------------------
 SCF Energy (H0 + V/2)                       =    -404.59394004 
 Solute Internal Energy (H0)                 =    -404.58484586 
 Total Free Energy (H0 + V/2 + non-elec)     =    -404.59394004 hartree
                                             = -253886.52928717 kcal/mol
***********************************************************

 SCF   energy in the final basis set =     -404.5939400446
 Total energy in the final basis set =     -404.5939400446
 
 --------------------------------------------------------------
 
                    Orbital Energies (a.u.)
 --------------------------------------------------------------
 
 Alpha MOs
 -- Occupied --
-19.1306 -14.3726 -10.2926 -10.2281 -10.1875 -10.1873 -10.1849 -10.1849
-10.1832  -1.0390  -0.9344  -0.8283  -0.7468  -0.7465  -0.6405  -0.6168
 -0.5954  -0.5662  -0.5286  -0.4858  -0.4631  -0.4474  -0.4418  -0.4210
 -0.4178  -0.3993  -0.3820  -0.3767  -0.3512  -0.3494  -0.3253  -0.3166
 -0.3137  -0.2663  -0.2604
 -- Virtual --
  0.0032   0.0099   0.0114   0.0224   0.0242   0.0372   0.0462   0.0490
  0.0548   0.0656   0.0672   0.0813   0.0854   0.0918   0.0982   0.1014
  0.1078   0.1149   0.1224   0.1318   0.1379   0.1483   0.1520   0.1602
  0.1690   0.1777   0.1792   0.1839   0.1973   0.1989   0.2088   0.2108
  0.2202   0.2222   0.2331   0.2449   0.2455   0.2517   0.2607   0.2682
  0.2806   0.2818   0.2847   0.2892   0.2916   0.3081   0.3104   0.3255
  0.3269   0.3294   0.3566   0.3683   0.3815   0.3841   0.4142   0.4160
  0.4376   0.4522   0.4873   0.6057   0.6360   0.6539   0.6625   0.6647
  0.6825   0.6963   0.7245   0.7292   0.7464   0.7474   0.7715   0.7798
  0.7981   0.8009   0.8186   0.8377   0.8572   0.9050   0.9507   0.9709
  0.9760   0.9878   1.0161   1.0239   1.0294   1.0525   1.0818   1.0968
  1.1154   1.1180   1.1229   1.1438   1.1607   1.1666   1.1802   1.1842
  1.2347   1.2545   1.2863   1.3229   1.3391   1.3640   1.3935   1.4106
  1.4653   1.4861   1.4991   1.5633   1.5781   1.6164   1.6994   1.7265
  1.7412   1.7512   1.7677   1.7980   1.8440   1.8688   1.9014   1.9067
  1.9116   1.9369   1.9689   2.0055   2.0073   2.0421   2.0550   2.0850
  2.1024   2.1245   2.2017   2.2123   2.2758   2.3037   2.3152   2.3383
  2.3968   2.4091   2.4129   2.4191   2.4491   2.5585   2.5798   2.6218
  2.6760   2.6861   2.7017   2.7534   2.7753   2.8337   2.8665   3.0025
  3.1858   4.0890   4.1929   4.2318   4.2916   4.3320   4.4156   4.5984
  4.5989   4.6666
 --------------------------------------------------------------
 
          Ground-State Mulliken Net Atomic Charges

     Atom                 Charge (a.u.)
  ----------------------------------------
      1 C                    -0.277715
      2 C                    -0.454585
      3 C                    -0.282122
      4 C                    -0.442296
      5 C                    -0.378794
      6 C                    -0.447469
      7 H                     0.212718
      8 H                     0.236492
      9 H                     0.204413
     10 H                     0.211969
     11 H                     0.206971
     12 H                     0.201521
     13 H                     0.198956
     14 H                     0.198866
     15 H                     0.206994
     16 H                     0.201663
     17 H                     0.203503
     18 N                    -0.378661
     19 H                     0.425639
     20 C                     0.339241
     21 H                     0.164752
     22 O                    -0.552057
  ----------------------------------------
  Sum of atomic charges =     0.000000

 -----------------------------------------------------------------
                    Cartesian Multipole Moments
 -----------------------------------------------------------------
    Charge (ESU x 10^10)
                 0.0000
    Dipole Moment (Debye)
         X       4.5540      Y       1.9566      Z       1.0453
       Tot       5.0656
    Quadrupole Moments (Debye-Ang)
        XX     -60.7818     XY      45.2283     YY     -17.3752
        XZ      82.0094     YZ      46.0033     ZZ     -12.9863
    Octopole Moments (Debye-Ang^2)
       XXX     -74.7522    XXY    -631.2296    XYY     420.9565
       YYY   -1194.1769    XXZ   -1216.5356    XYZ     815.0494
       YYZ    -325.1969    XZZ    1448.4546    YZZ     489.4442
       ZZZ   -2080.2284
    Hexadecapole Moments (Debye-Ang^3)
      XXXX    -514.1996   XXXY    -796.5873   XXYY   -6707.6924
      XYYY    3566.4477   YYYY  -29988.3109   XXXZ   -1754.0771
      XXYZ  -12682.7381   XYYZ    7458.0658   YYYZ  -24333.1778
      XXZZ  -24661.2428   XYZZ   14387.7384   YYZZ  -12224.1764
      XZZZ   24656.3233   YZZZ  -10779.5906   ZZZZ -102961.0959
 -----------------------------------------------------------------
 Calculating analytic gradient of the SCF energy
 Gradient of SCF Energy
            1           2           3           4           5           6
    1   0.0008903  -0.0015357  -0.0056894   0.0004558  -0.0066516   0.0032393
    2  -0.0076031  -0.0001018   0.0022909   0.0028359  -0.0018064  -0.0006302
    3   0.0012137  -0.0016307   0.0038353  -0.0027687  -0.0010066  -0.0018205
            7           8           9          10          11          12
    1   0.0008084   0.0012369   0.0012809  -0.0013788  -0.0006660   0.0021385
    2  -0.0009236   0.0007609   0.0035124   0.0009446  -0.0005204   0.0000685
    3  -0.0009726   0.0026184  -0.0006988   0.0005809   0.0006360   0.0000395
           13          14          15          16          17          18
    1   0.0002667   0.0020503  -0.0014021   0.0012491   0.0030200  -0.0036774
    2  -0.0001432   0.0001343   0.0000714   0.0014113   0.0000361  -0.0063169
    3   0.0014095  -0.0006335  -0.0006655   0.0004187  -0.0015161   0.0029584
           19          20          21          22
    1   0.0068801  -0.0100129   0.0038969   0.0036009
    2   0.0024802   0.0105639  -0.0029000  -0.0041648
    3  -0.0029156   0.0030143  -0.0015439  -0.0005523
 Max gradient component =       1.056E-02
 RMS gradient           =       3.154E-03
 Computing fast CPCM-SWIG gradient
 Updating gradient with PCM contributions...
 -- total gradient after adding PCM contribution --
---------------------------------------------------
  Atom         X              Y              Z     
---------------------------------------------------
   1       0.003338      -0.003741      -0.000941
   2      -0.001369      -0.000155      -0.003224
   3      -0.001208       0.001566       0.001838
   4       0.000094      -0.000204      -0.000674
   5      -0.003541      -0.000511       0.001005
   6       0.000688       0.001230       0.000132
   7       0.000560       0.000083      -0.000626
   8       0.000275       0.000335       0.001750
   9      -0.001478       0.002190       0.000303
  10      -0.000739       0.000126       0.000898
  11       0.000463      -0.000027       0.000275
  12       0.000663       0.000809      -0.000466
  13       0.000464      -0.000065      -0.000044
  14       0.000194      -0.000618      -0.000148
  15      -0.000258       0.000532      -0.000972
  16       0.000809      -0.000204      -0.000061
  17       0.000243      -0.001206      -0.000543
  18       0.001729      -0.003702       0.001217
  19       0.000027      -0.000508      -0.000006
  20      -0.006246       0.011989       0.000310
  21       0.001700      -0.003743       0.000136
  22       0.003591      -0.004177      -0.000159
---------------------------------------------------
 Number of fixed atoms: 0
 Gradient time:  CPU 122.95 s  wall 11.66 s
 Geometry Optimization Parameters
   NAtoms,    NIC,     NZ,  NCons,   NDum,   NFix, NCnnct, MaxDiis
       22     172       0       0       0       0       0       0

 Cartesian Hessian Update
 Hessian updated using BFGS update


** GEOMETRY OPTIMIZATION IN DELOCALIZED INTERNAL COORDINATES **
   Searching for a Minimum

   Optimization Cycle:   4

                       Coordinates (Angstroms)
     ATOM                X               Y               Z
      1  C         0.5004028372   11.8659368573   20.4171988623
      2  C         0.4387451495   10.4425495909   19.8394037313
      3  C         1.5212716978    9.5421713535   20.4563613222
      4  C         1.4267471626    9.5135186062   21.9892111505
      5  C         1.4524251917   10.9265857228   22.5930302257
      6  C         0.4134891879   11.8589619955   21.9533870889
      7  H         1.4280819301    8.5292949057   20.0433524257
      8  H        -0.5425380901   10.0177599430   20.0744043489
      9  H         1.4235653841   12.3712152160   20.0958154330
     10  H        -0.3336717490   12.4539057968   20.0106006434
     11  H         0.5013686178    8.9999442097   22.2876684512
     12  H         2.2602020615    8.9245720935   22.3931561547
     13  H         1.3039922573   10.8765226488   23.6794115378
     14  H         2.4566417086   11.3509504823   22.4366647692
     15  H        -0.5995989595   11.5422956848   22.2421377240
     16  H         0.5452330498   12.8799188979   22.3336442546
     17  H         2.5147560568    9.9080420819   20.1518312635
     18  N         0.5444691323   10.4591844478   18.3816971071
     19  H         1.3971669692   10.8276684707   17.9745778255
     20  C        -0.4473136055   10.1214354321   17.5256690976
     21  H        -0.1388383394   10.2144622486   16.4690090959
     22  O        -1.5365976509    9.6431033143   17.8417674868
   Point Group: c1    Number of degrees of freedom:    60


   Energy is   -404.593940045

 Hessian updated using BFGS update

 60 Hessian modes will be used to form the next step
  Hessian Eigenvalues:
     0.004829    0.005382    0.006543    0.008376    0.012715    0.017695
     0.018541    0.018770    0.032593    0.035880    0.037094    0.040857
     0.045223    0.047369    0.049619    0.050898    0.053323    0.056657
     0.059936    0.066728    0.071784    0.080434    0.081353    0.083096
     0.083919    0.087323    0.090097    0.091267    0.123525    0.125729
     0.139393    0.157710    0.159448    0.162724    0.178254    0.211631
     0.219487    0.220348    0.269067    0.272589    0.275537    0.282246
     0.284867    0.287543    0.330974    0.334293    0.336970    0.338352
     0.344042    0.345245    0.345843    0.346482    0.347754    0.349701
     0.351647    0.356485    0.377625    0.466639    0.489923    0.943588

 Minimum search - taking simple RFO step
 Searching for Lamda that Minimizes Along All modes
 Value Taken    Lamda =  -0.00232974
 Calculated Step too Large.  Step scaled by  0.950685
 Step Taken.  Stepsize is  0.300000

                             Maximum     Tolerance    Cnvgd?
         Gradient           0.007567      0.000100      NO
         Displacement       0.158095      0.000100      NO
         Energy change     -0.001807      0.000000      NO


 New Cartesian Coordinates Obtained by Inverse Iteration

 Displacement from previous Coordinates is:  0.286905
 ----------------------------------------------------------------
             Standard Nuclear Orientation (Angstroms)
    I     Atom           X                Y                Z
 ----------------------------------------------------------------
    1      C       0.4824633225    11.8607568584    20.4204128950
    2      C       0.4381311869    10.4344257951    19.8430136192
    3      C       1.5226315398     9.5371449089    20.4628544875
    4      C       1.4273482214     9.5204043194    21.9968993209
    5      C       1.4793640465    10.9414540325    22.5782454945
    6      C       0.4031127720    11.8437373360    21.9569151338
    7      H       1.4271815548     8.5229536816    20.0559024551
    8      H      -0.5458490737     9.9995703140    20.0493998308
    9      H       1.4294687895    12.3303245000    20.1104721053
   10      H      -0.3356021031    12.4522960061    19.9922433503
   11      H       0.4880822339     9.0311414038    22.2964310489
   12      H       2.2402790792     8.9115358097    22.4142370269
   13      H       1.3420519998    10.9056623151    23.6674454637
   14      H       2.4747852710    11.3771532287    22.3989450798
   15      H      -0.5919333013    11.4931459485    22.2688136638
   16      H       0.5053206180    12.8684004331    22.3384137430
   17      H       2.5136661446     9.9159152329    20.1654465825
   18      N       0.5502573574    10.4562102189    18.3816085732
   19      H       1.4064143477    10.8207975811    17.9768837524
   20      C      -0.4316894021    10.1060505703    17.5218668811
   21      H      -0.1401533499    10.2403853209    16.4649062281
   22      O      -1.5553312546     9.7005341850    17.8286432641
 ----------------------------------------------------------------
 Nuclear Repulsion Energy =         466.44841878 hartrees
 There are       35 alpha and       35 beta electrons
 Discretize the solute cavity surface with Lebedev spheres
	Using 302 Lebedev grid points for each H atom
	Using 302 Lebedev grid points for other atoms
	Atomic van der Waals radii will be scaled by 1.20
 Remove points where switching function is < 1.0e-08
 Keep 2737 surface tesserae and discard 3907 interior tesserae
 Molecular Surface Area = 182.563 Angst**2
 Applying Cartesian multipole field
    Component          Value
    ---------          -----
     (2,0,0)        1.00000E-11
     (0,2,0)        2.00000E-12
     (0,0,2)       -3.00000E-13
 Nucleus-field energy     =     0.0000000282 hartrees
 Requested basis set is 6-31+G(d)
 There are 71 shells and 197 basis functions
 A cutoff of  1.0D-14 yielded   2411 shell pairs
 There are     18991 function pairs
 Smallest overlap matrix eigenvalue = 2.48E-05
 Guess MOs from SCF MO coefficient file

 -----------------------------------------------------------------------
  General SCF calculation program by
  Eric Jon Sundstrom, Paul Horn, Yuezhi Mao, Dmitri Zuev, Alec White,
  David Stuck, Shaama M.S., Shane Yost, Joonho Lee, David Small,
  Daniel Levine, Susi Lehtola, Hugh Burton, Evgeny Epifanovsky,
  Bang C. Huynh
 -----------------------------------------------------------------------
 Exchange:     0.2000 Hartree-Fock + 0.0800 Slater + 0.7200 B88
 Correlation:  0.1900 VWN1RPA + 0.8100 LYP
 Using Euler-Maclaurin-Lebedev (99,590) quadrature formula
 using 16 threads for integral computing
 -------------------------------------------------------
 OpenMP Integral computing Module                
 Release: version 2.0, May 2017, Q-Chem Inc. Pleasanton 
 -------------------------------------------------------
 A restricted SCF calculation will be
 performed using Roothaan-Hall, DIIS
 SCF converges when DIIS error is below 1.0e-08
 ---------------------------------------
  Cycle       Energy         DIIS error
 ---------------------------------------
    1    -404.5817548263      7.38e-04  Roothaan Step
 ---------------------------------------
  Cycle       Energy         DIIS error
 ---------------------------------------
    1    -404.5911614868      7.33e-04  
    2    -404.5843583426      1.63e-03  
    3    -404.5946823658      1.20e-04  
    4    -404.5947459620      5.99e-05  
    5    -404.5947597709      1.87e-05  
    6    -404.5947611641      5.22e-06  
    7    -404.5947612662      1.68e-06  
    8    -404.5947612795      3.39e-07  
    9    -404.5947612800      1.37e-07  
   10    -404.5947612801      2.77e-08  
   11    -404.5947612801      6.28e-09  Convergence criterion met
 ---------------------------------------
 SCF time:   CPU 824.84s  wall 56.00s 

************** Final PCM Free Energy Summary **************
 G_electrostatic  =      -0.00917193 hartree =      -5.75547507 kcal/mol
 G_cavitation     =       0.00000000 hartree =       0.00000000 kcal/mol
 G_dispersion     =       0.00000000 hartree =       0.00000000 kcal/mol
 G_repulsion      =       0.00000000 hartree =       0.00000000 kcal/mol
 --------------------------------------------------
 Non-electrostatic Free Energy =       0.00000000 hartree =       0.00000000 kcal/mol
 Total                         =      -0.00917193 hartree =      -5.75547507 kcal/mol
 --------------------------------------------------
 SCF Energy (H0 + V/2)                       =    -404.59476128 
 Solute Internal Energy (H0)                 =    -404.58558935 
 Total Free Energy (H0 + V/2 + non-elec)     =    -404.59476128 hartree
                                             = -253887.04462024 kcal/mol
***********************************************************

 SCF   energy in the final basis set =     -404.5947612801
 Total energy in the final basis set =     -404.5947612801
 
 --------------------------------------------------------------
 
                    Orbital Energies (a.u.)
 --------------------------------------------------------------
 
 Alpha MOs
 -- Occupied --
-19.1302 -14.3728 -10.2925 -10.2281 -10.1880 -10.1878 -10.1853 -10.1850
-10.1836  -1.0375  -0.9340  -0.8289  -0.7466  -0.7463  -0.6398  -0.6166
 -0.5952  -0.5673  -0.5284  -0.4856  -0.4633  -0.4468  -0.4416  -0.4202
 -0.4175  -0.3992  -0.3834  -0.3760  -0.3515  -0.3491  -0.3267  -0.3171
 -0.3137  -0.2659  -0.2605
 -- Virtual --
  0.0035   0.0108   0.0113   0.0224   0.0238   0.0371   0.0462   0.0486
  0.0548   0.0660   0.0669   0.0809   0.0855   0.0912   0.0976   0.1012
  0.1080   0.1147   0.1216   0.1318   0.1379   0.1484   0.1522   0.1597
  0.1687   0.1787   0.1788   0.1850   0.1962   0.1991   0.2087   0.2112
  0.2188   0.2224   0.2323   0.2438   0.2452   0.2514   0.2611   0.2665
  0.2801   0.2835   0.2845   0.2863   0.2910   0.3078   0.3080   0.3249
  0.3258   0.3281   0.3583   0.3673   0.3831   0.3846   0.4122   0.4167
  0.4365   0.4553   0.4880   0.6057   0.6354   0.6525   0.6624   0.6641
  0.6812   0.6950   0.7263   0.7297   0.7424   0.7512   0.7734   0.7793
  0.7990   0.8016   0.8164   0.8449   0.8572   0.9075   0.9509   0.9712
  0.9747   0.9878   1.0167   1.0241   1.0282   1.0515   1.0853   1.0953
  1.1135   1.1183   1.1224   1.1447   1.1585   1.1662   1.1799   1.1887
  1.2353   1.2521   1.2864   1.3342   1.3398   1.3692   1.3870   1.4125
  1.4762   1.4879   1.4899   1.5671   1.5723   1.6145   1.6962   1.7272
  1.7329   1.7536   1.7664   1.8049   1.8510   1.8712   1.8986   1.9038
  1.9085   1.9388   1.9749   2.0065   2.0138   2.0420   2.0512   2.0849
  2.0904   2.1282   2.1999   2.2144   2.2762   2.3050   2.3139   2.3417
  2.3959   2.4062   2.4158   2.4209   2.4465   2.5593   2.5835   2.6221
  2.6696   2.6812   2.7022   2.7577   2.7757   2.8307   2.8641   3.0012
  3.1868   4.0896   4.1936   4.2323   4.2907   4.3300   4.4163   4.5985
  4.6035   4.6691
 --------------------------------------------------------------
 
          Ground-State Mulliken Net Atomic Charges

     Atom                 Charge (a.u.)
  ----------------------------------------
      1 C                    -0.264881
      2 C                    -0.464841
      3 C                    -0.272853
      4 C                    -0.439890
      5 C                    -0.384556
      6 C                    -0.447977
      7 H                     0.212309
      8 H                     0.235557
      9 H                     0.203338
     10 H                     0.212530
     11 H                     0.207247
     12 H                     0.201188
     13 H                     0.198745
     14 H                     0.199761
     15 H                     0.207737
     16 H                     0.201169
     17 H                     0.203416
     18 N                    -0.382136
     19 H                     0.425188
     20 C                     0.339395
     21 H                     0.164950
     22 O                    -0.555394
  ----------------------------------------
  Sum of atomic charges =     0.000000

 -----------------------------------------------------------------
                    Cartesian Multipole Moments
 -----------------------------------------------------------------
    Charge (ESU x 10^10)
                -0.0000
    Dipole Moment (Debye)
         X       4.6356      Y       1.8130      Z       1.1135
       Tot       5.1006
[...]

 Mode:                40                     41                     42
 Frequency:      1405.85                1498.35                1501.68
 Force Cnst:      1.7145                 1.4385                 1.4513
 Red. Mass:       1.4724                 1.0875                 1.0923
 IR Active:          YES                    YES                    YES
 IR Intens:        1.017                  0.173                  4.147
 Raman Active:       YES                    YES                    YES
               X      Y      Z        X      Y      Z        X      Y      Z
 C         -0.011  0.057  0.095    0.011  0.040 -0.032    0.002  0.025  0.000
 C         -0.019 -0.013 -0.100   -0.006  0.014 -0.001    0.001 -0.000 -0.012
 C          0.036 -0.043  0.098   -0.034  0.017  0.030    0.021 -0.016 -0.000
 C         -0.011  0.039  0.020   -0.008 -0.019  0.020   -0.005 -0.015  0.002
 C         -0.008 -0.004 -0.009    0.005 -0.014 -0.001   -0.053 -0.024 -0.048
 C          0.021 -0.033  0.022    0.019 -0.007 -0.020   -0.016  0.007  0.003
 H         -0.090  0.147 -0.367    0.384  0.038 -0.157   -0.175 -0.013  0.052
 H          0.075  0.065  0.478    0.028 -0.064  0.000    0.008  0.007  0.029
 H         -0.025 -0.151 -0.294    0.240 -0.289  0.217    0.091 -0.145  0.032
 H          0.051 -0.166 -0.353   -0.308 -0.274  0.170   -0.117 -0.109  0.048
 H          0.014 -0.035 -0.023   -0.139  0.152 -0.144   -0.076  0.116 -0.024
 H          0.001 -0.119 -0.242    0.174  0.158 -0.098    0.093  0.074 -0.076
 H         -0.063 -0.025 -0.021    0.012  0.007  0.001    0.566  0.253  0.046
 H         -0.023 -0.013 -0.063   -0.025  0.060  0.012    0.072  0.039  0.613
 H         -0.020  0.038 -0.030   -0.020  0.209  0.143    0.038 -0.158 -0.035
 H         -0.088  0.075 -0.242   -0.237 -0.020  0.095    0.142  0.020 -0.085
 H         -0.123  0.072 -0.303    0.049 -0.350 -0.198   -0.048  0.178  0.035
 N          0.004  0.002 -0.034   -0.000  0.000 -0.000   -0.001 -0.000 -0.002
 H          0.063  0.026  0.114    0.001 -0.002  0.001    0.007  0.003  0.018
 C          0.002  0.001  0.027    0.000 -0.000  0.000    0.001  0.000  0.002
 H         -0.006 -0.002  0.038   -0.000  0.000  0.000   -0.001 -0.000  0.003
 O          0.004  0.001 -0.005   -0.000 -0.000  0.000   -0.000 -0.000 -0.000
 TransDip  -0.001 -0.004  0.032    0.005 -0.012  0.003    0.051  0.021  0.034

 Mode:                43                     44                     45
 Frequency:      1504.33                1506.46                1519.04
 Force Cnst:      1.4630                 1.4531                 1.4984
 Red. Mass:       1.0972                 1.0867                 1.1021
 IR Active:          YES                    YES                    YES
 IR Intens:        6.621                 12.513                  1.011
 Raman Active:       YES                    YES                    YES
               X      Y      Z        X      Y      Z        X      Y      Z
 C         -0.000  0.031 -0.018   -0.006 -0.033  0.017   -0.001 -0.034  0.015
 C          0.003 -0.006 -0.001    0.001  0.000  0.013   -0.005 -0.002  0.010
 C         -0.020  0.019  0.015   -0.033  0.022  0.020   -0.027  0.023  0.015
 C          0.004  0.045 -0.033   -0.005 -0.034  0.019    0.000  0.036 -0.018
 C          0.002 -0.001  0.001   -0.002 -0.001  0.003   -0.025 -0.012 -0.034
 C         -0.033  0.025  0.030   -0.032  0.023  0.021    0.027 -0.024 -0.018
 H          0.207  0.036 -0.095    0.349  0.029 -0.123    0.287  0.038 -0.116
 H         -0.009  0.021  0.001   -0.007 -0.003 -0.011   -0.008 -0.005 -0.006
 H          0.151 -0.201  0.118   -0.178  0.225 -0.141   -0.167  0.228 -0.117
 H         -0.195 -0.152  0.111    0.222  0.207 -0.106    0.215  0.178 -0.115
 H          0.251 -0.311  0.216   -0.189  0.233 -0.156    0.172 -0.225  0.132
 H         -0.317 -0.255  0.184    0.231  0.210 -0.113   -0.223 -0.181  0.112
 H         -0.024  0.023 -0.002    0.028  0.015  0.011    0.295  0.131  0.011
 H          0.004 -0.012 -0.012    0.000  0.001  0.029    0.041  0.023  0.329
 H          0.057 -0.356 -0.187    0.055 -0.338 -0.167   -0.053  0.282  0.127
 H          0.360  0.056 -0.164    0.350  0.035 -0.128   -0.286 -0.042  0.111
 H          0.043 -0.213 -0.093    0.057 -0.331 -0.155    0.059 -0.288 -0.114
 N         -0.000  0.001  0.000   -0.001 -0.000 -0.004    0.007  0.003  0.013
 H          0.000 -0.002 -0.001    0.001 -0.000  0.001   -0.029 -0.012 -0.079
 C          0.000  0.000 -0.000   -0.001 -0.000  0.001   -0.007 -0.002 -0.008
 H          0.000 -0.001 -0.000    0.000 -0.000  0.002    0.003  0.001 -0.010
 O         -0.000 -0.000  0.000    0.001  0.000 -0.001    0.002  0.001  0.001
 TransDip   0.027 -0.078  0.004    0.088  0.033 -0.064   -0.015 -0.003 -0.028

 Mode:                46                     47                     48
 Frequency:      1548.50                1708.59                2221.66
 Force Cnst:      2.4654                15.0519                 6.9952
 Red. Mass:       1.7451                 8.7511                 2.4054
 IR Active:          YES                    YES                    YES
 IR Intens:      215.533                659.337                102.592
 Raman Active:       YES                    YES                    YES
               X      Y      Z        X      Y      Z        X      Y      Z
 C         -0.003 -0.004  0.009   -0.005 -0.006  0.017   -0.000 -0.000 -0.000
 C          0.059  0.023  0.061    0.014  0.006 -0.031    0.001  0.000  0.003
 C         -0.006  0.002  0.010   -0.008  0.000  0.017   -0.000  0.000 -0.000
 C         -0.002  0.001 -0.010    0.005 -0.004 -0.004   -0.000  0.000  0.000
 C         -0.002 -0.001 -0.001   -0.001 -0.000  0.001   -0.000 -0.000 -0.000
 C          0.000 -0.002 -0.009    0.000  0.006 -0.004    0.000 -0.000  0.000
 H          0.038  0.004  0.001    0.013  0.015 -0.019    0.001 -0.000  0.000
 H         -0.009 -0.010 -0.359    0.053  0.020  0.066    0.001 -0.000  0.010
 H         -0.011 -0.020 -0.059   -0.016 -0.018 -0.030   -0.000  0.000 -0.000
 H          0.029  0.030  0.004    0.023  0.002 -0.017    0.001  0.001  0.000
 H          0.029 -0.023  0.045    0.006  0.003  0.003   -0.000 -0.000 -0.000
 H         -0.037 -0.019  0.031   -0.011  0.006  0.034    0.000 -0.000 -0.000
 H          0.029  0.014  0.003    0.009  0.004  0.000   -0.000 -0.000  0.000
 H          0.002  0.002  0.025   -0.001 -0.001  0.002    0.000  0.000 -0.000
 H          0.002  0.038  0.042    0.007  0.002  0.005   -0.000  0.000 -0.000
 H         -0.039 -0.013  0.028   -0.004 -0.012  0.035   -0.000  0.000 -0.000
 H         -0.023  0.004 -0.062   -0.024  0.002 -0.027   -0.000 -0.000 -0.000
 N         -0.100 -0.039 -0.168   -0.101 -0.038 -0.008    0.003  0.001  0.014
 H          0.289  0.111  0.821   -0.237 -0.085 -0.336   -0.017 -0.007 -0.063
 C          0.045  0.017  0.089    0.628  0.230 -0.029    0.064  0.022 -0.185
 H         -0.030 -0.010  0.127   -0.059 -0.025 -0.422   -0.254 -0.087  0.940
 O          0.004  0.001 -0.013   -0.368 -0.134  0.102   -0.018 -0.007  0.010
 TransDip   0.276  0.104  0.366    0.740  0.275  0.230    0.146  0.052 -0.285

 Mode:                49                     50                     51
 Frequency:      3008.35                3012.10                3013.84
 Force Cnst:      5.6972                 5.7036                 5.7345
 Red. Mass:       1.0685                 1.0670                 1.0715
 IR Active:          YES                    YES                    YES
 IR Intens:       21.119                 34.861                 40.884
 Raman Active:       YES                    YES                    YES
               X      Y      Z        X      Y      Z        X      Y      Z
 C          0.027  0.025 -0.017    0.029  0.030 -0.019   -0.025 -0.022  0.014
 C          0.002 -0.000 -0.000   -0.006 -0.003  0.000    0.004  0.002 -0.000
 C         -0.053 -0.003  0.024    0.028  0.001 -0.012   -0.025 -0.003  0.011
 C          0.014  0.005 -0.004    0.006  0.004 -0.001    0.021  0.007 -0.004
 C          0.003  0.001  0.001   -0.043 -0.019 -0.009   -0.045 -0.020 -0.004
 C         -0.012 -0.005  0.004    0.001  0.000  0.000    0.023  0.011 -0.006
 H         -0.037 -0.220 -0.080    0.019  0.125  0.044   -0.013 -0.080 -0.030
 H         -0.017 -0.007  0.004    0.077  0.034 -0.017   -0.055 -0.024  0.012
 H         -0.453 -0.220  0.143   -0.509 -0.249  0.157    0.406  0.200 -0.129
 H          0.131 -0.082  0.060    0.154 -0.100  0.069   -0.096  0.060 -0.044
 H         -0.161 -0.082  0.051   -0.074 -0.037  0.024   -0.230 -0.118  0.073
 H         -0.010  0.013 -0.005    0.004 -0.003 -0.003   -0.029  0.025 -0.018
 H          0.002  0.004 -0.016   -0.037 -0.013  0.223   -0.029 -0.011  0.169
 H         -0.033 -0.012  0.007    0.548  0.242 -0.119    0.575  0.253 -0.122
 H          0.146  0.055 -0.044   -0.012 -0.004  0.004   -0.290 -0.108  0.087
 H         -0.003  0.004  0.001   -0.002  0.002 -0.004    0.001 -0.033 -0.015
 H          0.679  0.266 -0.204   -0.351 -0.136  0.103    0.322  0.124 -0.098
 N         -0.000  0.000 -0.000   -0.000 -0.000  0.000   -0.000 -0.000 -0.000
 H         -0.001  0.002 -0.001    0.000  0.000  0.004   -0.000 -0.000 -0.003
 C          0.000  0.000 -0.000   -0.000 -0.000  0.000    0.000  0.000 -0.000
 H          0.000 -0.000 -0.000    0.000  0.000  0.000   -0.000 -0.000 -0.000
 O         -0.000  0.000  0.000    0.000  0.000 -0.000   -0.000 -0.000  0.000
 TransDip  -0.085  0.117  0.029    0.039  0.040 -0.181   -0.181 -0.096 -0.001

 Mode:                52                     53                     54
 Frequency:      3020.90                3022.66                3063.80
 Force Cnst:      5.7167                 5.7135                 6.0440
 Red. Mass:       1.0632                 1.0614                 1.0928
 IR Active:          YES                    YES                    YES
 IR Intens:       17.606                 82.132                100.666
 Raman Active:       YES                    YES                    YES
               X      Y      Z        X      Y      Z        X      Y      Z
 C         -0.002 -0.011  0.007    0.000 -0.009  0.006   -0.014  0.004 -0.002
 C          0.000 -0.000 -0.000    0.002  0.001 -0.001    0.006  0.003 -0.001
 C          0.007 -0.007 -0.006   -0.006  0.007  0.006   -0.007 -0.016 -0.003
 C          0.024  0.036 -0.023   -0.017 -0.034  0.022   -0.015  0.014 -0.009
 C          0.000 -0.001  0.000   -0.012 -0.006 -0.023    0.025  0.010 -0.073
 C         -0.042  0.007  0.022   -0.037  0.011  0.021   -0.001 -0.023 -0.009
 H          0.014  0.121  0.044   -0.013 -0.114 -0.042    0.016  0.164  0.063
 H         -0.003  0.001  0.000   -0.030 -0.013  0.008   -0.070 -0.031  0.016
 H          0.120  0.056 -0.036    0.092  0.043 -0.028    0.064  0.034 -0.021
 H         -0.102  0.072 -0.048   -0.095  0.068 -0.045    0.107 -0.079  0.054
 H         -0.531 -0.260  0.165    0.464  0.228 -0.142   -0.018 -0.007  0.003
 H          0.238 -0.163  0.109   -0.254  0.178 -0.119    0.200 -0.151  0.099
 H         -0.002  0.004 -0.002   -0.041 -0.014  0.322   -0.091 -0.030  0.832
 H          0.002 -0.001 -0.000    0.180  0.079 -0.044   -0.220 -0.097  0.034
 H          0.540  0.212 -0.161    0.482  0.188 -0.142   -0.009 -0.006  0.000
 H         -0.038 -0.288 -0.104   -0.038 -0.313 -0.114    0.024  0.280  0.105
 H         -0.099 -0.042  0.029    0.081  0.033 -0.024    0.073  0.025 -0.023
 N         -0.000  0.000 -0.000    0.000  0.000  0.000   -0.000 -0.000 -0.000
 H          0.000 -0.001  0.000    0.000  0.000 -0.002    0.001  0.000 -0.001
 C          0.000  0.000 -0.000   -0.000 -0.000 -0.000    0.000  0.000  0.000
 H          0.000 -0.000 -0.000    0.000  0.000  0.000   -0.000  0.000 -0.000
 O         -0.000 -0.000  0.000    0.000  0.000 -0.000   -0.000 -0.000  0.000
 TransDip  -0.057  0.122 -0.000   -0.239 -0.104  0.128   -0.034 -0.032 -0.318

 Mode:                55                     56                     57
 Frequency:      3065.06                3069.03                3070.91
 Force Cnst:      6.0771                 6.1017                 6.0804
 Red. Mass:       1.0979                 1.0995                 1.0943
 IR Active:          YES                    YES                    YES
 IR Intens:       87.819                 71.480                 53.470
 Raman Active:       YES                    YES                    YES
               X      Y      Z        X      Y      Z        X      Y      Z
 C          0.003 -0.008  0.005    0.007 -0.010  0.007   -0.026  0.012 -0.008
 C         -0.000  0.001 -0.000    0.000  0.000  0.001    0.022  0.010 -0.006
 C          0.003 -0.008 -0.005   -0.001  0.017  0.007   -0.023 -0.066 -0.018
 C          0.059 -0.020  0.014   -0.054  0.015 -0.010   -0.018 -0.006  0.003
 C         -0.001 -0.000  0.002   -0.024 -0.011  0.021   -0.012 -0.005  0.023
 C         -0.025 -0.056 -0.012   -0.026 -0.051 -0.009   -0.009 -0.003  0.003
 H          0.012  0.112  0.044   -0.021 -0.209 -0.082    0.072  0.712  0.281
 H         -0.002  0.001  0.000    0.002  0.001  0.000   -0.280 -0.124  0.065
 H          0.048  0.022 -0.016    0.046  0.021 -0.015    0.068  0.038 -0.026
 H         -0.088  0.064 -0.045   -0.127  0.093 -0.065    0.243 -0.177  0.126
 H         -0.228 -0.123  0.079    0.243  0.132 -0.082    0.170  0.088 -0.055
 H         -0.475  0.357 -0.240    0.409 -0.309  0.206    0.037 -0.029  0.019
 H          0.003  0.000 -0.025    0.022  0.007 -0.207    0.027  0.008 -0.248
 H          0.009  0.001 -0.001    0.260  0.115 -0.049    0.122  0.055 -0.021
 H          0.252  0.088 -0.080    0.270  0.093 -0.083    0.100  0.036 -0.030
 H          0.050  0.586  0.223    0.043  0.515  0.195   -0.000  0.003  0.001
 H         -0.047 -0.020  0.015    0.028  0.013 -0.009    0.213  0.072 -0.071
 N          0.000 -0.000  0.000   -0.000 -0.000 -0.000   -0.000  0.000  0.000
 H          0.000 -0.000  0.000   -0.000 -0.000 -0.001    0.004  0.001 -0.002
 C          0.000 -0.000  0.000    0.000  0.000  0.000    0.000  0.000  0.000
 H         -0.000  0.000  0.000   -0.000 -0.000 -0.000    0.000  0.000 -0.000
 O         -0.000  0.000  0.000   -0.000 -0.000 -0.000   -0.000  0.000  0.000
 TransDip   0.119 -0.275  0.012   -0.251 -0.099  0.021   -0.173 -0.157 -0.015

 Mode:                58                     59                     60
 Frequency:      3072.69                3098.15                3586.03
 Force Cnst:      6.0995                 6.1532                 8.1680
 Red. Mass:       1.0965                 1.0880                 1.0780
 IR Active:          YES                    YES                    YES
 IR Intens:       47.114                 37.436                 34.281
 Raman Active:       YES                    YES                    YES
               X      Y      Z        X      Y      Z        X      Y      Z
 C         -0.070  0.027 -0.020   -0.023  0.004 -0.003    0.000  0.000 -0.000
 C          0.008  0.004 -0.002   -0.071 -0.031  0.015   -0.001 -0.000 -0.001
 C          0.015  0.035  0.009   -0.012 -0.019 -0.003    0.000  0.000 -0.000
 C          0.008  0.000  0.000   -0.005 -0.001  0.001    0.000  0.000 -0.000
 C         -0.002 -0.002  0.006   -0.002 -0.001  0.002    0.000  0.000 -0.000
 C         -0.012 -0.007  0.003   -0.005 -0.003  0.001    0.000  0.000 -0.000
 H         -0.038 -0.376 -0.148    0.016  0.178  0.068   -0.000 -0.001  0.000
 H         -0.110 -0.046  0.025    0.835  0.367 -0.182    0.009  0.004 -0.005
 H          0.227  0.123 -0.081    0.125  0.069 -0.039   -0.000  0.001  0.001
 H          0.614 -0.448  0.318    0.148 -0.110  0.075   -0.000  0.000 -0.000
 H         -0.058 -0.030  0.020    0.050  0.026 -0.019   -0.000 -0.000 -0.000
 H         -0.039  0.030 -0.019    0.012 -0.008  0.005   -0.000  0.000  0.000
 H          0.006  0.004 -0.063    0.002  0.001 -0.019   -0.000 -0.000  0.000
 H          0.029  0.011 -0.005    0.019  0.008 -0.003   -0.000 -0.000  0.000
 H          0.135  0.050 -0.043    0.054  0.019 -0.019   -0.000 -0.000 -0.000
 H          0.002  0.034  0.013    0.002  0.014  0.005   -0.000 -0.000  0.000
 H         -0.139 -0.048  0.045    0.132  0.044 -0.037    0.000 -0.001  0.001
 N          0.000 -0.000  0.000    0.001  0.000  0.001   -0.064 -0.024  0.028
 H          0.001  0.000 -0.001   -0.010 -0.004 -0.001    0.859  0.320 -0.392
 C          0.000  0.000  0.000   -0.002 -0.001 -0.000    0.001  0.000  0.002
 H          0.000  0.000 -0.000    0.000 -0.000  0.001   -0.000 -0.000 -0.003
 O          0.000 -0.000  0.000    0.001  0.000 -0.001    0.001  0.000 -0.000
 TransDip  -0.146  0.164 -0.016   -0.167 -0.077  0.068    0.176  0.064 -0.012

 STANDARD THERMODYNAMIC QUANTITIES AT   298.18 K  AND     1.00 ATM

   This Molecule has  1 Imaginary Frequencies
   Zero point vibrational energy:      121.901 kcal/mol

   Atom    1 Element C  Has Mass   12.00000
   Atom    2 Element C  Has Mass   12.00000
   Atom    3 Element C  Has Mass   12.00000
   Atom    4 Element C  Has Mass   12.00000
   Atom    5 Element C  Has Mass   12.00000
   Atom    6 Element C  Has Mass   12.00000
   Atom    7 Element H  Has Mass    1.00783
   Atom    8 Element H  Has Mass    1.00783
   Atom    9 Element H  Has Mass    1.00783
   Atom   10 Element H  Has Mass    1.00783
   Atom   11 Element H  Has Mass    1.00783
   Atom   12 Element H  Has Mass    1.00783
   Atom   13 Element H  Has Mass    1.00783
   Atom   14 Element H  Has Mass    1.00783
   Atom   15 Element H  Has Mass    1.00783
   Atom   16 Element H  Has Mass    1.00783
   Atom   17 Element H  Has Mass    1.00783
   Atom   18 Element N  Has Mass   14.00307
   Atom   19 Element H  Has Mass    1.00783
   Atom   20 Element C  Has Mass   12.00000
   Atom   21 Element H  Has Mass    2.01410
   Atom   22 Element O  Has Mass   15.99491
   Molecular Mass:   128.106042 amu
   Principal axes and moments of inertia in amu*Bohr^2:
                             1           2           3
    Eigenvalues --      539.19165  2025.07743  2225.12691
          X               0.39145    -0.43050     0.81329
          Y               0.15992     0.90219     0.40059
          Z               0.90620     0.02675    -0.42201
   Rotational Symmetry Number is   1
   The Molecule is an Asymmetric Top
   Translational Enthalpy:        0.889 kcal/mol
   Rotational Enthalpy:           0.889 kcal/mol
   Vibrational Enthalpy:        125.195 kcal/mol
   gas constant (RT):             0.593 kcal/mol
   Translational Entropy:        40.457  cal/mol.K
   Rotational Entropy:           29.276  cal/mol.K
   Vibrational Entropy:          18.165  cal/mol.K

   Total Enthalpy:              127.566 kcal/mol
   Total Entropy:                87.897  cal/mol.K
Archival summary:
1\1\node027\FREQ\ProcedureUnspecified\6-31+G*\11713\ymao90\ThuApr815:36:322021ThuApr815:36:322021\0\\#,FREQ,ProcedureUnspecified,6-31+G*,\\0,1\N\H,1,1.01435\C,1,1.3524,2,117.022\H,3,1.10444,1,112.486,2,0.666264,0\O,3,1.2321,1,125.859,2,-179.44,0\C,1,1.46554,2,117.883,3,-179.136,0\H,6,1.09477,1,105.604,2,-176.838,0\C,6,1.5389,1,110.742,2,-58.9143,0\H,8,1.09726,6,109.41,1,-58.6079,0\H,8,1.10146,6,108.887,1,58.0056,0\C,8,1.53789,6,111.416,1,178.732,0\H,11,1.0977,8,109.69,6,-177.622,0\H,11,1.10028,8,109.11,6,65.9789,0\C,11,1.53687,8,111.661,6,-54.8781,0\H,14,1.09788,11,110.136,8,177.175,0\H,14,1.10084,11,109.262,8,-65.9847,0\C,14,1.53685,11,111.254,8,54.7328,0\H,17,1.0977,14,110.42,11,-177.09,0\H,17,1.1003,14,109.252,11,66.0128,0\C,17,1.53781,14,111.613,11,-54.7676,0\H,20,1.09718,17,110.668,14,176.864,0\H,20,1.10128,17,109.443,14,-65.4509,0\\\@

 Total job time:  903.27s(wall), 12292.85s(cpu) 
 Thu Apr  8 15:36:32 2021

        *************************************************************
        *                                                           *
        *  Thank you very much for using Q-Chem.  Have a nice day.  *
        *                                                           *
        *************************************************************


