                  Welcome to Q-Chem
     A Quantum Leap Into The Future Of Chemistry


 Q-Chem 5.2 (devel), Q-Chem, Inc., Pleasanton, CA (2019)

 Yihan Shao,  Zhengting Gan,  E. Epifanovsky,  A. T. B. Gilbert,  M. Wormit,  
 J. Kussmann,  A. W. Lange,  A. Behn,  Jia Deng,  Xintian Feng,  D. Ghosh,  
 M. Goldey,  P. R. Horn,  L. D. Jacobson,  I. Kaliman,  T. Kus,  A. Landau,  
 Jie Liu,  E. I. Proynov,  R. M. Richard,  R. P. Steele,  E. J. Sundstrom,  
 H. L. Woodcock III,  P. M. Zimmerman,  D. Zuev,  B. Alam,  B. Albrecht,  
 E. Alguire,  S. A. Baeppler,  D. Barton,  Z. Benda,  Y. A. Bernard,  
 E. J. Berquist,  K. B. Bravaya,  H. Burton,  K. Carter-Fenk,  D. Casanova,  
 Chun-Min Chang,  Yunqing Chen,  A. Chien,  K. D. Closser,  M. P. Coons,  
 S. Coriani,  S. Dasgupta,  A. L. Dempwolff,  M. Diedenhofen,  Hainam Do,  
 R. G. Edgar,  Po-Tung Fang,  S. Faraji,  S. Fatehi,  Qingguo Feng,  
 J. Fosso-Tande,  J. Gayvert,  Qinghui Ge,  A. Ghysels,  G. Gidofalvi,  
 J. Gomes,  J. Gonthier,  A. Gunina,  D. Hait,  M. W. D. Hanson-Heine,  
 P. H. P. Harbach,  A. W. Hauser,  M. F. Herbst,  J. E. Herr,  
 E. G. Hohenstein,  Z. C. Holden,  Kerwin Hui,  B. C. Huynh,  T.-C. Jagau,  
 Hyunjun Ji,  B. Kaduk,  K. Khistyaev,  Jaehoon Kim,  P. Klunzinger,  K. Koh,  
 D. Kosenkov,  L. Koulias,  T. Kowalczyk,  C. M. Krauter,  A. Kunitsa,  
 Ka Un Lao,  A. Laurent,  K. V. Lawler,  Joonho Lee,  D. Lefrancois,  
 S. Lehtola,  D. S. Levine,  Yi-Pei Li,  You-Sheng Lin,  Fenglai Liu,  
 Kuan-Yu Liu,  E. Livshits,  M. Loipersberger,  A. Luenser,  P. Manohar,  
 E. Mansoor,  S. F. Manzer,  Shan-Ping Mao,  Yuezhi Mao,  N. Mardirossian,  
 A. V. Marenich,  T. Markovich,  L. A. Martinez-Martinez,  S. A. Maurer,  
 N. J. Mayhall,  S. C. McKenzie,  J.-M. Mewes,  P. Morgante,  A. F. Morrison,  
 J. W. Mullinax,  K. Nanda,  T. S. Nguyen-Beck,  R. Olivares-Amaya,  
 J. A. Parkhill,  S. K. Paul,  F. Pavosevic,  Zheng Pei,  T. M. Perrine,  
 F. Plasser,  P. Pokhilko,  S. Prager,  A. Prociuk,  E. Ramos,  B. Rana,  
 D. R. Rehn,  F. Rob,  M. Scheurer,  M. Schneider,  N. Sergueev,  
 S. M. Sharada,  S. Sharma,  D. W. Small,  T. Stauch,  C. J. Stein,  
 T. Stein,  Yu-Chuan Su,  S. P. Veccham,  Zhen Tao,  A. J. W. Thom,  
 A. Tkatchenko,  T. Tsuchimochi,  N. M. Tubman,  L. Vogt,  M. L. Vidal,  
 O. Vydrov,  M. A. Watson,  J. Wenzel,  M. de Wergifosse,  T. A. Wesolowski,  
 A. White,  J. Witte,  A. Yamada,  Jun Yang,  K. Yao,  S. Yeganeh,  
 S. R. Yost,  Zhi-Qiang You,  A. Zech,  Igor Ying Zhang,  Xing Zhang,  
 Yan Zhao,  Ying Zhu,  B. R. Brooks,  G. K. L. Chan,  C. J. Cramer,  
 M. S. Gordon,  W. J. Hehre,  A. Klamt,  M. W. Schmidt,  C. D. Sherrill,  
 D. G. Truhlar,  A. Aspuru-Guzik,  R. Baer,  A. T. Bell,  N. A. Besley,  
 Jeng-Da Chai,  A. E. DePrince, III,  R. A. DiStasio Jr.,  A. Dreuw,  
 B. D. Dunietz,  T. R. Furlani,  Chao-Ping Hsu,  Yousung Jung,  Jing Kong,  
 D. S. Lambrecht,  WanZhen Liang,  C. Ochsenfeld,  V. A. Rassolov,  
 L. V. Slipchenko,  J. E. Subotnik,  T. Van Voorhis,  J. M. Herbert,  
 A. I. Krylov,  P. M. W. Gill,  M. Head-Gordon

 Contributors to earlier versions of Q-Chem not listed above: 
 R. D. Adamson,  B. Austin,  J. Baker,  G. J. O. Beran,  K. Brandhorst,  
 S. T. Brown,  E. F. C. Byrd,  A. K. Chakraborty,  C.-L. Cheng,  
 Siu Hung Chien,  D. M. Chipman,  D. L. Crittenden,  H. Dachsel,  
 R. J. Doerksen,  A. D. Dutoi,  L. Fusti-Molnar,  W. A. Goddard III,  
 A. Golubeva-Zadorozhnaya,  S. R. Gwaltney,  G. Hawkins,  A. Heyden,  
 S. Hirata,  G. Kedziora,  F. J. Keil,  C. Kelley,  Jihan Kim,  R. A. King,  
 R. Z. Khaliullin,  P. P. Korambath,  W. Kurlancheek,  A. M. Lee,  M. S. Lee,  
 S. V. Levchenko,  Ching Yeh Lin,  D. Liotard,  R. C. Lochan,  I. Lotan,  
 P. E. Maslen,  N. Nair,  D. P. O'Neill,  D. Neuhauser,  E. Neuscamman,  
 C. M. Oana,  R. Olson,  B. Peters,  R. Peverati,  P. A. Pieniazek,  
 Y. M. Rhee,  J. Ritchie,  M. A. Rohrdanz,  E. Rosta,  N. J. Russ,  
 H. F. Schaefer III,  N. E. Schultz,  N. Shenvi,  A. C. Simmonett,  A. Sodt,  
 D. Stuck,  K. S. Thanthiriwatte,  V. Vanovschi,  Tao Wang,  A. Warshel,  
 C. F. Williams,  Q. Wu,  X. Xu,  W. Zhang

 Please cite Q-Chem as follows:
 Y. Shao et al., Mol. Phys. 113, 184-215 (2015)
 DOI: 10.1080/00268976.2014.952696

 Q-Chem 5.2.2 for Intel X86 EM64T Linux

 Parts of Q-Chem use Armadillo 9.800.1 (Horizon Scraper).
 http://arma.sourceforge.net/

 Q-Chem begins on Thu Apr  8 15:08:49 2021  

Host: node023
0

     Scratch files written to /home/ymao90/scratch/probe_b3lyp_dibutylether20210408150847//
Symmetry turned off for PCM/SM12/SMD calculation

Checking the input file for inconsistencies... 	...done.

--------------------------------------------------------------
User input:
--------------------------------------------------------------
$molecule
0 1
C    0.58000    11.83000   20.41000  
C    0.42000    10.41000   19.83000  
C    1.53000    9.53000    20.44000  
C    1.44000    9.53000    21.98000  
C    1.37000    10.92000   22.65000  
C    0.42000    11.90000   21.94000  
H    1.49000    8.50000    20.05000  
H    -0.52000   10.00000   20.20000  
H    1.40000    12.47000   20.08000  
H    -0.28000   12.43000   20.08000  
H    0.54000    9.00000    22.28000  
H    2.32000    8.99000    22.34000  
H    1.27000    10.83000   23.73000  
H    2.37000    11.32000   22.50000  
H    -0.63000   11.62000   22.11000  
H    0.56000    12.91000   22.33000  
H    2.51000    9.84000    20.07000  
N    0.54000    10.41000   18.38000  
H    1.39000    10.78000   17.99000  
C    -0.47000   10.09000   17.50000  
H    -0.16000   10.30000   16.46000  
O    -1.56000   9.66000    17.84000  
$end

$rem
JOBTYPE  OPT
METHOD  B3LYP
BASIS  6-31+G(D)
SYMMETRY  FALSE
SYM_IGNORE  FALSE
MEM_TOTAL  8000
MEM_STATIC  2000
MAX_SUB_FILE_NUM  16000
BASIS_LIN_DEP_THRESH  6
THRESH  14
SCF_CONVERGENCE  8
GEN_SCFMAN  TRUE
SCF_GUESS  SAD
FD_MAT_VEC_PROD  FALSE
XC_GRID  000099000590
NL_GRID  1
MAX_SCF_CYCLES  200
GEOM_OPT_TOL_GRADIENT  100
GEOM_OPT_TOL_DISPLACEMENT  100
GEOM_OPT_TOL_ENERGY  10
SOLVENT_METHOD       PCM
$end

$PCM
THEORY                     CPCM
METHOD                     SWIG
SOLVER                     INVERSION
HPOINTS                    302
HEAVYPOINTS                302
$END

$SOLVENT
DIELECTRIC                 3.05
$END

--------------------------------------------------------------
 ----------------------------------------------------------------
             Standard Nuclear Orientation (Angstroms)
    I     Atom           X                Y                Z
 ----------------------------------------------------------------
    1      C       0.5800000000    11.8300000000    20.4100000000
    2      C       0.4200000000    10.4100000000    19.8300000000
    3      C       1.5300000000     9.5300000000    20.4400000000
    4      C       1.4400000000     9.5300000000    21.9800000000
    5      C       1.3700000000    10.9200000000    22.6500000000
    6      C       0.4200000000    11.9000000000    21.9400000000
    7      H       1.4900000000     8.5000000000    20.0500000000
    8      H      -0.5200000000    10.0000000000    20.2000000000
    9      H       1.4000000000    12.4700000000    20.0800000000
   10      H      -0.2800000000    12.4300000000    20.0800000000
   11      H       0.5400000000     9.0000000000    22.2800000000
   12      H       2.3200000000     8.9900000000    22.3400000000
   13      H       1.2700000000    10.8300000000    23.7300000000
   14      H       2.3700000000    11.3200000000    22.5000000000
   15      H      -0.6300000000    11.6200000000    22.1100000000
   16      H       0.5600000000    12.9100000000    22.3300000000
   17      H       2.5100000000     9.8400000000    20.0700000000
   18      N       0.5400000000    10.4100000000    18.3800000000
   19      H       1.3900000000    10.7800000000    17.9900000000
   20      C      -0.4700000000    10.0900000000    17.5000000000
   21      H      -0.1600000000    10.3000000000    16.4600000000
   22      O      -1.5600000000     9.6600000000    17.8400000000
 ----------------------------------------------------------------
 Nuclear Repulsion Energy =         465.59151226 hartrees
 There are       35 alpha and       35 beta electrons
 Requested basis set is 6-31+G(d)
 There are 71 shells and 197 basis functions

 Total QAlloc Memory Limit   8000 MB
 Mega-Array Size      1956 MB
 MEM_STATIC part      2000 MB
 Discretize the solute cavity surface with Lebedev spheres
	Using 302 Lebedev grid points for each H atom
	Using 302 Lebedev grid points for other atoms
	Atomic van der Waals radii will be scaled by 1.20
 Remove points where switching function is < 1.0e-08
 Keep 2715 surface tesserae and discard 3929 interior tesserae
 Molecular Surface Area = 182.762 Angst**2
 A cutoff of  1.0D-14 yielded   2410 shell pairs
 There are     18990 function pairs
 Smallest overlap matrix eigenvalue = 2.31E-05

 Scale SEOQF with 1.000000e-01/1.000000e-02/1.000000e-03

 Standard Electronic Orientation quadrupole field applied
 Nucleus-field energy     =     0.0000000281 hartrees
 Guess from superposition of atomic densities
 Warning:  Energy on first SCF cycle will be non-variational
 SAD guess density has 70.000000 electrons

 -----------------------------------------------------------------------
  General SCF calculation program by
  Eric Jon Sundstrom, Paul Horn, Yuezhi Mao, Dmitri Zuev, Alec White,
  David Stuck, Shaama M.S., Shane Yost, Joonho Lee, David Small,
  Daniel Levine, Susi Lehtola, Hugh Burton, Evgeny Epifanovsky,
  Bang C. Huynh
 -----------------------------------------------------------------------
 Exchange:     0.2000 Hartree-Fock + 0.0800 Slater + 0.7200 B88
 Correlation:  0.1900 VWN1RPA + 0.8100 LYP
 Using Euler-Maclaurin-Lebedev (99,590) quadrature formula
 using 16 threads for integral computing
 -------------------------------------------------------
 OpenMP Integral computing Module                
 Release: version 2.0, May 2017, Q-Chem Inc. Pleasanton 
 -------------------------------------------------------
 A restricted SCF calculation will be
 performed using DIIS
 SCF converges when DIIS error is below 1.0e-08
 ---------------------------------------
  Cycle       Energy         DIIS error
 ---------------------------------------
    1    -406.2393373780      5.09e-02  
    2    -404.3822753584      6.47e-03  
    3    -404.1343013816      1.03e-02  
    4    -404.5586583209      2.14e-03  
    5    -404.5760449178      5.65e-04  
    6    -404.5772892027      1.65e-04  
    7    -404.5773962231      5.93e-05  
    8    -404.5774111138      1.05e-05  
    9    -404.5774115733      2.75e-06  
   10    -404.5774116048      6.14e-07  
   11    -404.5774116063      2.18e-07  
   12    -404.5774116066      3.00e-08  
   13    -404.5774116066      7.09e-09  Convergence criterion met
 ---------------------------------------
 SCF time:   CPU 997.03s  wall 70.00s 

************** Final PCM Free Energy Summary **************
 G_electrostatic  =      -0.01059859 hartree =      -6.65071669 kcal/mol
 G_cavitation     =       0.00000000 hartree =       0.00000000 kcal/mol
 G_dispersion     =       0.00000000 hartree =       0.00000000 kcal/mol
 G_repulsion      =       0.00000000 hartree =       0.00000000 kcal/mol
 --------------------------------------------------
 Non-electrostatic Free Energy =       0.00000000 hartree =       0.00000000 kcal/mol
 Total                         =      -0.01059859 hartree =      -6.65071669 kcal/mol
 --------------------------------------------------
 SCF Energy (H0 + V/2)                       =    -404.57741161 
 Solute Internal Energy (H0)                 =    -404.56681301 
 Total Free Energy (H0 + V/2 + non-elec)     =    -404.57741161 hartree
                                             = -253876.15753579 kcal/mol
***********************************************************

 SCF   energy in the final basis set =     -404.5774116066
 Total energy in the final basis set =     -404.5774116066
 
 --------------------------------------------------------------
 
                    Orbital Energies (a.u.)
 --------------------------------------------------------------
 
 Alpha MOs
 -- Occupied --
-19.1364 -14.3700 -10.2961 -10.2307 -10.1841 -10.1838 -10.1837 -10.1810
-10.1778  -1.0469  -0.9313  -0.8247  -0.7460  -0.7432  -0.6415  -0.6143
 -0.5958  -0.5640  -0.5313  -0.4861  -0.4620  -0.4474  -0.4426  -0.4229
 -0.4195  -0.4011  -0.3798  -0.3701  -0.3519  -0.3492  -0.3237  -0.3089
 -0.3069  -0.2724  -0.2571
 -- Virtual --
  0.0045   0.0077   0.0133   0.0233   0.0249   0.0383   0.0468   0.0500
  0.0554   0.0659   0.0680   0.0820   0.0853   0.0931   0.1003   0.1024
  0.1088   0.1148   0.1276   0.1327   0.1384   0.1484   0.1525   0.1634
  0.1699   0.1774   0.1800   0.1835   0.1993   0.2008   0.2076   0.2103
  0.2185   0.2234   0.2347   0.2420   0.2486   0.2527   0.2627   0.2688
  0.2741   0.2816   0.2827   0.2901   0.3022   0.3057   0.3136   0.3261
  0.3319   0.3364   0.3488   0.3713   0.3762   0.3812   0.4141   0.4243
  0.4367   0.4526   0.4876   0.6094   0.6417   0.6576   0.6608   0.6710
  0.6890   0.7022   0.7225   0.7296   0.7469   0.7510   0.7672   0.7773
  0.7938   0.8044   0.8266   0.8358   0.8647   0.8964   0.9476   0.9681
  0.9830   0.9945   1.0215   1.0254   1.0385   1.0584   1.0726   1.1078
  1.1164   1.1241   1.1308   1.1409   1.1426   1.1618   1.1721   1.1878
  1.2422   1.2470   1.2897   1.3196   1.3268   1.3706   1.4058   1.4160
  1.4678   1.4863   1.4948   1.5581   1.5821   1.6184   1.6695   1.7047
  1.7342   1.7601   1.7758   1.7782   1.8275   1.8683   1.8889   1.8984
  1.9230   1.9549   1.9711   2.0018   2.0040   2.0363   2.0682   2.0820
  2.0980   2.1370   2.1845   2.2078   2.2809   2.3010   2.3141   2.3394
  2.3843   2.3942   2.4346   2.4438   2.4587   2.5587   2.5701   2.6130
  2.6766   2.6926   2.7022   2.7489   2.7746   2.8309   2.8720   3.0105
  3.1845   4.0811   4.1867   4.2291   4.2938   4.3424   4.4131   4.5868
  4.6069   4.6560
 --------------------------------------------------------------
 
          Ground-State Mulliken Net Atomic Charges

     Atom                 Charge (a.u.)
  ----------------------------------------
      1 C                    -0.329325
      2 C                    -0.458873
      3 C                    -0.286413
      4 C                    -0.440927
      5 C                    -0.358969
      6 C                    -0.443766
      7 H                     0.211164
      8 H                     0.241124
      9 H                     0.216689
     10 H                     0.212757
     11 H                     0.206485
     12 H                     0.200578
     13 H                     0.201089
     14 H                     0.196947
     15 H                     0.203387
     16 H                     0.204665
     17 H                     0.207176
     18 N                    -0.381928
     19 H                     0.434101
     20 C                     0.339755
     21 H                     0.172399
     22 O                    -0.548115
  ----------------------------------------
  Sum of atomic charges =     0.000000

 -----------------------------------------------------------------
                    Cartesian Multipole Moments
 -----------------------------------------------------------------
    Charge (ESU x 10^10)
                 0.0000
    Dipole Moment (Debye)
         X       4.5195      Y       2.0049      Z       0.7606
       Tot       5.0024
    Quadrupole Moments (Debye-Ang)
        XX     -60.9602     XY      44.9722     YY     -16.1415
        XZ      81.2210     YZ      44.3169     ZZ     -23.9130
    Octopole Moments (Debye-Ang^2)
       XXX     -73.8498    XXY    -633.7001    XYY     420.0443
       YYY   -1167.8385    XXZ   -1220.2184    XYZ     808.9521
       YYZ    -324.9553    XZZ    1430.9913    YZZ     408.4056
       ZZZ   -2396.7791
    Hexadecapole Moments (Debye-Ang^3)
      XXXX    -514.5539   XXXY    -789.9166   XXYY   -6739.5208
      XYYY    3586.4590   YYYY  -29473.7627   XXXZ   -1738.0150
      XXYZ  -12734.8638   XYYZ    7429.7468   YYYZ  -24028.1370
      XXZZ  -24739.2626   XYZZ   14250.3355   YYZZ  -12640.2286
      XZZZ   24281.7602   YZZZ  -13262.3047   ZZZZ -111169.7156
 -----------------------------------------------------------------
 Calculating analytic gradient of the SCF energy
 Gradient of SCF Energy
            1           2           3           4           5           6
    1   0.0301467  -0.0359736  -0.0025925   0.0012570  -0.0236234   0.0063391
    2  -0.0346836  -0.0032034   0.0080120   0.0010771  -0.0020493   0.0221246
    3  -0.0017962  -0.0131497   0.0034993  -0.0010850   0.0188028  -0.0074287
            7           8           9          10          11          12
    1   0.0097234   0.0076542  -0.0130120   0.0022731   0.0033378   0.0035801
    2  -0.0007545  -0.0008896   0.0166308   0.0029132   0.0106576   0.0023362
    3  -0.0044021   0.0137620   0.0043802   0.0089298   0.0002122  -0.0067019
           13          14          15          16          17          18
    1   0.0094349  -0.0080918  -0.0012246   0.0004954  -0.0019088   0.0221843
    2  -0.0003381  -0.0081609  -0.0008214  -0.0014120  -0.0106592   0.0028843
    3  -0.0024884  -0.0029833  -0.0080023   0.0032401  -0.0056125   0.0124360
           19          20          21          22
    1   0.0019656  -0.0332224   0.0070709   0.0141864
    2   0.0004934  -0.0149669   0.0055964   0.0052135
    3  -0.0009387  -0.0123480  -0.0008888   0.0025631
 Max gradient component =       3.597E-02
 RMS gradient           =       1.181E-02
 Computing fast CPCM-SWIG gradient
 Updating gradient with PCM contributions...
 -- total gradient after adding PCM contribution --
---------------------------------------------------
  Atom         X              Y              Z     
---------------------------------------------------
   1       0.031753      -0.028579      -0.003816
   2      -0.035344      -0.003243      -0.014788
   3       0.002709       0.006827       0.000897
   4       0.000983      -0.001851       0.001090
   5      -0.019862      -0.001050       0.020791
   6       0.003728       0.024008      -0.005442
   7       0.009027       0.000149      -0.003947
   8       0.006805      -0.001235       0.012564
   9      -0.015459       0.013849       0.005434
  10       0.002758       0.001963       0.008844
  11       0.004551       0.010936      -0.000145
  12       0.001766       0.002984      -0.006972
  13       0.009281      -0.000167      -0.004132
  14      -0.009795      -0.008678      -0.002416
  15       0.000051      -0.000390      -0.007853
  16      -0.000016      -0.003439       0.002559
  17      -0.005046      -0.011482      -0.004011
  18       0.028476       0.006039       0.010144
  19      -0.006104      -0.003087       0.002592
  20      -0.028751      -0.013246      -0.016048
  21       0.004439       0.004315       0.001394
  22       0.014051       0.005379       0.003259
---------------------------------------------------
 Number of fixed atoms: 0
 Gradient time:  CPU 157.77 s  wall 13.73 s
 Geometry Optimization Parameters
   NAtoms,    NIC,     NZ,  NCons,   NDum,   NFix, NCnnct, MaxDiis
       22     172       0       0       0       0       0       0


** GEOMETRY OPTIMIZATION IN DELOCALIZED INTERNAL COORDINATES **
   Searching for a Minimum

   Optimization Cycle:   1

                       Coordinates (Angstroms)
     ATOM                X               Y               Z
      1  C         0.5800000000   11.8300000000   20.4100000000
      2  C         0.4200000000   10.4100000000   19.8300000000
      3  C         1.5300000000    9.5300000000   20.4400000000
      4  C         1.4400000000    9.5300000000   21.9800000000
      5  C         1.3700000000   10.9200000000   22.6500000000
      6  C         0.4200000000   11.9000000000   21.9400000000
      7  H         1.4900000000    8.5000000000   20.0500000000
      8  H        -0.5200000000   10.0000000000   20.2000000000
      9  H         1.4000000000   12.4700000000   20.0800000000
     10  H        -0.2800000000   12.4300000000   20.0800000000
     11  H         0.5400000000    9.0000000000   22.2800000000
     12  H         2.3200000000    8.9900000000   22.3400000000
     13  H         1.2700000000   10.8300000000   23.7300000000
     14  H         2.3700000000   11.3200000000   22.5000000000
     15  H        -0.6300000000   11.6200000000   22.1100000000
     16  H         0.5600000000   12.9100000000   22.3300000000
     17  H         2.5100000000    9.8400000000   20.0700000000
     18  N         0.5400000000   10.4100000000   18.3800000000
     19  H         1.3900000000   10.7800000000   17.9900000000
     20  C        -0.4700000000   10.0900000000   17.5000000000
     21  H        -0.1600000000   10.3000000000   16.4600000000
     22  O        -1.5600000000    9.6600000000   17.8400000000
   Point Group: c1    Number of degrees of freedom:    60


   Energy is   -404.577411607


 Attempting to generate delocalized internal coordinates
 Initial Hessian constructed with Jon Baker's OPTIMIZE code

 60 Hessian modes will be used to form the next step
  Hessian Eigenvalues:
     0.004850    0.005407    0.006560    0.008376    0.012775    0.018054
     0.018651    0.018677    0.019042    0.033610    0.034591    0.037072
     0.041066    0.046592    0.048162    0.049493    0.050142    0.053390
     0.056519    0.060833    0.066651    0.080982    0.082752    0.082982
     0.085572    0.087172    0.089974    0.096067    0.124538    0.124890
     0.139174    0.159119    0.160000    0.162683    0.172956    0.213045
     0.220010    0.220236    0.268980    0.271008    0.272947    0.282129
     0.284145    0.285211    0.330973    0.334522    0.336922    0.337577
     0.344187    0.345335    0.346174    0.346647    0.347861    0.350043
     0.351115    0.351977    0.376029    0.466943    0.496029    0.953470

 Minimum search - taking simple RFO step
 Searching for Lamda that Minimizes Along All modes
 Value Taken    Lamda =  -0.02443181
 Calculated Step too Large.  Step scaled by  0.536320
 Step Taken.  Stepsize is  0.300000

                             Maximum     Tolerance    Cnvgd?
         Gradient           0.019975      0.000100      NO
         Displacement       0.183256      0.000100      NO
         Energy change     *********      0.000000      NO


 New Cartesian Coordinates Obtained by Inverse Iteration

 Displacement from previous Coordinates is:  0.266570
 ----------------------------------------------------------------
             Standard Nuclear Orientation (Angstroms)
    I     Atom           X                Y                Z
 ----------------------------------------------------------------
    1      C       0.5525974464    11.8428600496    20.4040760807
    2      C       0.4322356585    10.4217692281    19.8301356471
    3      C       1.5301202430     9.5325350700    20.4535227771
    4      C       1.4377310057     9.5177014642    21.9895937983
    5      C       1.3986202113    10.9214736471    22.6317009992
    6      C       0.4157841140    11.8824264704    21.9421092667
    7      H       1.4714227312     8.5054185587    20.0603741758
    8      H      -0.5258610103    10.0122362706    20.1539057145
    9      H       1.4057942406    12.4413817148    20.0674494489
   10      H      -0.3025457632    12.4346111178    20.0386746214
   11      H       0.5316223703     8.9810759192    22.2844300562
   12      H       2.3060723569     8.9678091748    22.3679577827
   13      H       1.2785970672    10.8433993052    23.7143644833
   14      H       2.4019580603    11.3383567000    22.4847115677
   15      H      -0.6238371264    11.5916330813    22.1576037323
   16      H       0.5561344562    12.8964591270    22.3263445804
   17      H       2.5189069413     9.8610034801    20.1091225376
   18      N       0.5412483433    10.4259207014    18.3790346583
   19      H       1.3927569039    10.7970636426    17.9825698412
   20      C      -0.4668302830    10.1057728371    17.5102544068
   21      H      -0.1615936377    10.2829657160    16.4634002545
   22      O      -1.5609343298     9.6661267240    17.8386635692
 ----------------------------------------------------------------
 Nuclear Repulsion Energy =         465.48462220 hartrees
 There are       35 alpha and       35 beta electrons
 Discretize the solute cavity surface with Lebedev spheres
	Using 302 Lebedev grid points for each H atom
	Using 302 Lebedev grid points for other atoms
	Atomic van der Waals radii will be scaled by 1.20
 Remove points where switching function is < 1.0e-08
 Keep 2734 surface tesserae and discard 3910 interior tesserae
 Molecular Surface Area = 182.923 Angst**2
 Applying Cartesian multipole field
    Component          Value
    ---------          -----
     (2,0,0)        1.00000E-11
     (0,2,0)        2.00000E-12
     (0,0,2)       -3.00000E-13
 Nucleus-field energy     =     0.0000000281 hartrees
 Requested basis set is 6-31+G(d)
 There are 71 shells and 197 basis functions
 A cutoff of  1.0D-14 yielded   2411 shell pairs
 There are     18991 function pairs
 Smallest overlap matrix eigenvalue = 2.36E-05
 Guess MOs from SCF MO coefficient file

 -----------------------------------------------------------------------
  General SCF calculation program by
  Eric Jon Sundstrom, Paul Horn, Yuezhi Mao, Dmitri Zuev, Alec White,
  David Stuck, Shaama M.S., Shane Yost, Joonho Lee, David Small,
  Daniel Levine, Susi Lehtola, Hugh Burton, Evgeny Epifanovsky,
  Bang C. Huynh
 -----------------------------------------------------------------------
 Exchange:     0.2000 Hartree-Fock + 0.0800 Slater + 0.7200 B88
 Correlation:  0.1900 VWN1RPA + 0.8100 LYP
 Using Euler-Maclaurin-Lebedev (99,590) quadrature formula
 using 16 threads for integral computing
 -------------------------------------------------------
 OpenMP Integral computing Module                
 Release: version 2.0, May 2017, Q-Chem Inc. Pleasanton 
 -------------------------------------------------------
 A restricted SCF calculation will be
 performed using Roothaan-Hall, DIIS
 SCF converges when DIIS error is below 1.0e-08
 ---------------------------------------
  Cycle       Energy         DIIS error
 ---------------------------------------
    1    -404.5758890183      5.66e-04  Roothaan Step
 ---------------------------------------
  Cycle       Energy         DIIS error
 ---------------------------------------
    1    -404.5834481263      8.21e-04  
    2    -404.5751501970      1.82e-03  
    3    -404.5879104664      1.33e-04  
    4    -404.5879860209      6.55e-05  
    5    -404.5880023269      2.18e-05  
    6    -404.5880041884      5.84e-06  
    7    -404.5880043224      1.71e-06  
    8    -404.5880043363      3.33e-07  
    9    -404.5880043367      1.48e-07  
   10    -404.5880043368      3.07e-08  
   11    -404.5880043368      7.73e-09  Convergence criterion met
 ---------------------------------------
 SCF time:   CPU 924.43s  wall 61.00s 

************** Final PCM Free Energy Summary **************
 G_electrostatic  =      -0.01074058 hartree =      -6.73981878 kcal/mol
 G_cavitation     =       0.00000000 hartree =       0.00000000 kcal/mol
 G_dispersion     =       0.00000000 hartree =       0.00000000 kcal/mol
 G_repulsion      =       0.00000000 hartree =       0.00000000 kcal/mol
 --------------------------------------------------
 Non-electrostatic Free Energy =       0.00000000 hartree =       0.00000000 kcal/mol
 Total                         =      -0.01074058 hartree =      -6.73981878 kcal/mol
 --------------------------------------------------
 SCF Energy (H0 + V/2)                       =    -404.58800434 
 Solute Internal Energy (H0)                 =    -404.57726375 
 Total Free Energy (H0 + V/2 + non-elec)     =    -404.58800434 hartree
                                             = -253882.80457434 kcal/mol
***********************************************************

 SCF   energy in the final basis set =     -404.5880043368
 Total energy in the final basis set =     -404.5880043368
 
 --------------------------------------------------------------
 
                    Orbital Energies (a.u.)
 --------------------------------------------------------------
 
 Alpha MOs
 -- Occupied --
-19.1350 -14.3711 -10.2952 -10.2292 -10.1854 -10.1849 -10.1841 -10.1824
-10.1800  -1.0444  -0.9327  -0.8245  -0.7449  -0.7439  -0.6408  -0.6147
 -0.5953  -0.5642  -0.5297  -0.4858  -0.4615  -0.4465  -0.4413  -0.4215
 -0.4195  -0.3999  -0.3795  -0.3735  -0.3516  -0.3481  -0.3232  -0.3124
 -0.3096  -0.2709  -0.2587
 -- Virtual --
  0.0045   0.0086   0.0132   0.0233   0.0247   0.0382   0.0468   0.0496
  0.0555   0.0660   0.0680   0.0821   0.0855   0.0933   0.0998   0.1023
  0.1087   0.1149   0.1260   0.1324   0.1386   0.1487   0.1525   0.1620
  0.1698   0.1773   0.1801   0.1835   0.1991   0.2000   0.2086   0.2097
  0.2199   0.2237   0.2341   0.2436   0.2480   0.2526   0.2617   0.2695
  0.2756   0.2816   0.2832   0.2888   0.2991   0.3066   0.3125   0.3255
  0.3308   0.3333   0.3512   0.3712   0.3779   0.3817   0.4142   0.4207
  0.4365   0.4513   0.4870   0.6078   0.6400   0.6568   0.6613   0.6691
  0.6863   0.7002   0.7230   0.7291   0.7464   0.7505   0.7687   0.7780
  0.7956   0.8023   0.8236   0.8352   0.8606   0.9003   0.9487   0.9693
  0.9810   0.9924   1.0194   1.0254   1.0359   1.0565   1.0748   1.1040
  1.1162   1.1227   1.1266   1.1420   1.1536   1.1649   1.1739   1.1820
  1.2402   1.2487   1.2869   1.3236   1.3265   1.3684   1.4083   1.4099
  1.4646   1.4853   1.4942   1.5601   1.5803   1.6191   1.6813   1.7151
  1.7334   1.7598   1.7732   1.7815   1.8296   1.8672   1.8948   1.8998
  1.9205   1.9448   1.9702   1.9954   2.0063   2.0364   2.0650   2.0821
  2.1062   2.1205   2.1907   2.2065   2.2780   2.3014   2.3103   2.3402
  2.3925   2.3955   2.4274   2.4288   2.4524   2.5577   2.5724   2.6166
  2.6812   2.6872   2.7000   2.7504   2.7706   2.8334   2.8679   3.0072
  3.1856   4.0837   4.1874   4.2292   4.2918   4.3380   4.4147   4.5907
  4.6028   4.6601
 --------------------------------------------------------------
 
          Ground-State Mulliken Net Atomic Charges

     Atom                 Charge (a.u.)
  ----------------------------------------
      1 C                    -0.314190
      2 C                    -0.444848
      3 C                    -0.292793
      4 C                    -0.441079
      5 C                    -0.365934
      6 C                    -0.445541
      7 H                     0.211157
      8 H                     0.237922
      9 H                     0.212568
     10 H                     0.211643
     11 H                     0.206518
     12 H                     0.201339
     13 H                     0.200163
     14 H                     0.197260
     15 H                     0.204818
     16 H                     0.203554
     17 H                     0.206013
     18 N                    -0.380318
     19 H                     0.433089
     20 C                     0.341859
     21 H                     0.170648
     22 O                    -0.553848
  ----------------------------------------
  Sum of atomic charges =     0.000000

 -----------------------------------------------------------------
                    Cartesian Multipole Moments
 -----------------------------------------------------------------
    Charge (ESU x 10^10)
                 0.0000
    Dipole Moment (Debye)
         X       4.5989      Y       1.9915      Z       0.8674
       Tot       5.0861
    Quadrupole Moments (Debye-Ang)
        XX     -60.9792     XY      45.8104     YY     -16.4698
        XZ      82.7635     YZ      44.9642     ZZ     -19.7929
    Octopole Moments (Debye-Ang^2)
       XXX     -73.7144    XXY    -633.6262    XYY     428.7239
       YYY   -1175.1532    XXZ   -1220.2573    XYZ     825.1040
       YYZ    -324.0731    XZZ    1461.1638    YZZ     437.7781
       ZZZ   -2276.8364
    Hexadecapole Moments (Debye-Ang^3)
      XXXX    -517.0344   XXXY    -786.8388   XXYY   -6736.2419
      XYYY    3674.0370   YYYY  -29626.1543   XXXZ   -1736.3251
      XXYZ  -12728.8279   XYYZ    7595.4567   YYYZ  -24117.9356
      XXZZ  -24733.2997   XYZZ   14563.4364   YYZZ  -12496.2054
      XZZZ   24873.7964   YZZZ  -12372.4992   ZZZZ -108046.8647
 -----------------------------------------------------------------
 Calculating analytic gradient of the SCF energy
 Gradient of SCF Energy
            1           2           3           4           5           6
    1   0.0209644  -0.0231836  -0.0050948   0.0014121  -0.0186640   0.0046515
    2  -0.0267102  -0.0007574   0.0065904  -0.0001895  -0.0012376   0.0127807
    3  -0.0015779  -0.0112037   0.0062722  -0.0019113   0.0114413  -0.0034670
            7           8           9          10          11          12
    1   0.0064748   0.0054485  -0.0074770  -0.0002331   0.0007630   0.0034581
    2  -0.0017656   0.0003282   0.0130644   0.0032861   0.0046360   0.0015806
    3  -0.0024613   0.0098121   0.0007570   0.0039859  -0.0000104  -0.0036815
           13          14          15          16          17          18
    1   0.0065019  -0.0020344  -0.0020738   0.0010874   0.0012308   0.0114060
    2  -0.0009943  -0.0031557  -0.0006038  -0.0005004  -0.0063290   0.0001837
    3  -0.0006374  -0.0019686  -0.0043819   0.0020662  -0.0045059   0.0096982
           19          20          21          22
    1   0.0053268  -0.0257308   0.0058030   0.0099631
    2   0.0020496  -0.0076779   0.0030498   0.0023719
    3  -0.0016510  -0.0059265  -0.0013015   0.0006532
 Max gradient component =       2.671E-02
 RMS gradient           =       8.175E-03
 Computing fast CPCM-SWIG gradient
 Updating gradient with PCM contributions...
 -- total gradient after adding PCM contribution --
---------------------------------------------------
  Atom         X              Y              Z     
---------------------------------------------------
   1       0.023059      -0.021161      -0.003909
   2      -0.022695      -0.000836      -0.012931
   3       0.000242       0.005520       0.003800
   4       0.001150      -0.003346       0.000343
   5      -0.014950      -0.000036       0.013601
   6       0.001972       0.014801      -0.001412
   7       0.005925      -0.000749      -0.002066
   8       0.004473      -0.000086       0.008694
   9      -0.010239       0.010647       0.001987
  10       0.000297       0.002347       0.004112
  11       0.002005       0.005081      -0.000365
  12       0.001639       0.002301      -0.004087
  13       0.006461      -0.000830      -0.002299
  14      -0.003913      -0.003847      -0.001429
  15      -0.000787      -0.000142      -0.004435
  16       0.000554      -0.002462       0.001437
  17      -0.001969      -0.007377      -0.003077
  18       0.017815       0.003415       0.007513
  19      -0.002810      -0.001587       0.001851
  20      -0.021244      -0.006017      -0.009448
  21       0.003177       0.001863       0.000875
  22       0.009840       0.002502       0.001243
---------------------------------------------------
 Number of fixed atoms: 0
 Gradient time:  CPU 158.32 s  wall 14.54 s
 Geometry Optimization Parameters
   NAtoms,    NIC,     NZ,  NCons,   NDum,   NFix, NCnnct, MaxDiis
       22     172       0       0       0       0       0       0

 Cartesian Hessian Update
 Hessian updated using BFGS update


** GEOMETRY OPTIMIZATION IN DELOCALIZED INTERNAL COORDINATES **
   Searching for a Minimum

   Optimization Cycle:   2

                       Coordinates (Angstroms)
     ATOM                X               Y               Z
      1  C         0.5525974464   11.8428600496   20.4040760807
      2  C         0.4322356585   10.4217692281   19.8301356471
      3  C         1.5301202430    9.5325350700   20.4535227771
      4  C         1.4377310057    9.5177014642   21.9895937983
      5  C         1.3986202113   10.9214736471   22.6317009992
      6  C         0.4157841140   11.8824264704   21.9421092667
      7  H         1.4714227312    8.5054185587   20.0603741758
      8  H        -0.5258610103   10.0122362706   20.1539057145
      9  H         1.4057942406   12.4413817148   20.0674494489
     10  H        -0.3025457632   12.4346111178   20.0386746214
     11  H         0.5316223703    8.9810759192   22.2844300562
     12  H         2.3060723569    8.9678091748   22.3679577827
     13  H         1.2785970672   10.8433993052   23.7143644833
     14  H         2.4019580603   11.3383567000   22.4847115677
     15  H        -0.6238371264   11.5916330813   22.1576037323
     16  H         0.5561344562   12.8964591270   22.3263445804
     17  H         2.5189069413    9.8610034801   20.1091225376
     18  N         0.5412483433   10.4259207014   18.3790346583
     19  H         1.3927569039   10.7970636426   17.9825698412
     20  C        -0.4668302830   10.1057728371   17.5102544068
     21  H        -0.1615936377   10.2829657160   16.4634002545
     22  O        -1.5609343298    9.6661267240   17.8386635692
   Point Group: c1    Number of degrees of freedom:    60


   Energy is   -404.588004337

 Hessian updated using BFGS update

 60 Hessian modes will be used to form the next step
  Hessian Eigenvalues:
     0.004847    0.005415    0.006557    0.008377    0.012773    0.017384
     0.018563    0.018774    0.019891    0.033160    0.035887    0.037089
     0.041460    0.046153    0.047360    0.049685    0.051187    0.053462
     0.057139    0.060677    0.066919    0.080928    0.082165    0.083339
     0.084303    0.087387    0.090017    0.093055    0.123579    0.125519
     0.139278    0.158313    0.159458    0.162707    0.178980    0.211904
     0.220033    0.220366    0.269244    0.272596    0.275352    0.281736
     0.284861    0.287011    0.330974    0.334401    0.336961    0.338640
     0.344118    0.345269    0.345910    0.346553    0.347731    0.349721
     0.351694    0.356216    0.376887    0.466408    0.488038    0.946940

 Minimum search - taking simple RFO step
 Searching for Lamda that Minimizes Along All modes
 Value Taken    Lamda =  -0.01305418
 Calculated Step too Large.  Step scaled by  0.583512
 Step Taken.  Stepsize is  0.300000

                             Maximum     Tolerance    Cnvgd?
         Gradient           0.013796      0.000100      NO
         Displacement       0.165773      0.000100      NO
         Energy change     -0.010593      0.000000      NO


 New Cartesian Coordinates Obtained by Inverse Iteration

 Displacement from previous Coordinates is:  0.249365
 ----------------------------------------------------------------
             Standard Nuclear Orientation (Angstroms)
    I     Atom           X                Y                Z
 ----------------------------------------------------------------
    1      C       0.5217235224    11.8499586228    20.4050337186
    2      C       0.4406993858    10.4255279340    19.8350255488
    3      C       1.5307764504     9.5347575024    20.4605291046
    4      C       1.4353043583     9.5141557836    21.9939778531
    5      C       1.4259668374    10.9257503724    22.6098031050
    6      C       0.4117762130    11.8674826011    21.9427984782
    7      H       1.4552144137     8.5138733014    20.0591517214
    8      H      -0.5306912066    10.0068378871    20.1106932559
    9      H       1.4117801336    12.4010521554    20.0730736169
   10      H      -0.3258234917    12.4341221387    20.0138902050
   11      H       0.5213848573     8.9837929641    22.2909348632
   12      H       2.2880147454     8.9493067128    22.3895045233
   13      H       1.2863444639    10.8657334795    23.6946867559
   14      H       2.4303797796    11.3493322923    22.4598640472
   15      H      -0.6144373392    11.5637498542    22.1989973503
   16      H       0.5479966859    12.8870398718    22.3202986685
   17      H       2.5226266581     9.8861392436    20.1389876569
   18      N       0.5483077401    10.4296902246    18.3812387452
   19      H       1.3989006618    10.8039105271    17.9783499216
   20      C      -0.4490220498    10.0982889240    17.5204237678
   21      H      -0.1635267026    10.2850084986    16.4700222989
   22      O      -1.5636961168     9.6944891083    17.8427147936
 ----------------------------------------------------------------
 Nuclear Repulsion Energy =         466.05072549 hartrees
 There are       35 alpha and       35 beta electrons
 Discretize the solute cavity surface with Lebedev spheres
	Using 302 Lebedev grid points for each H atom
	Using 302 Lebedev grid points for other atoms
	Atomic van der Waals radii will be scaled by 1.20
 Remove points where switching function is < 1.0e-08
 Keep 2747 surface tesserae and discard 3897 interior tesserae
 Molecular Surface Area = 182.719 Angst**2
 Applying Cartesian multipole field
    Component          Value
    ---------          -----
     (2,0,0)        1.00000E-11
     (0,2,0)        2.00000E-12
     (0,0,2)       -3.00000E-13
 Nucleus-field energy     =     0.0000000281 hartrees
 Requested basis set is 6-31+G(d)
 There are 71 shells and 197 basis functions
 A cutoff of  1.0D-14 yielded   2411 shell pairs
 There are     18991 function pairs
 Smallest overlap matrix eigenvalue = 2.40E-05
 Guess MOs from SCF MO coefficient file

 -----------------------------------------------------------------------
  General SCF calculation program by
  Eric Jon Sundstrom, Paul Horn, Yuezhi Mao, Dmitri Zuev, Alec White,
  David Stuck, Shaama M.S., Shane Yost, Joonho Lee, David Small,
  Daniel Levine, Susi Lehtola, Hugh Burton, Evgeny Epifanovsky,
  Bang C. Huynh
 -----------------------------------------------------------------------
 Exchange:     0.2000 Hartree-Fock + 0.0800 Slater + 0.7200 B88
 Correlation:  0.1900 VWN1RPA + 0.8100 LYP
 Using Euler-Maclaurin-Lebedev (99,590) quadrature formula
 using 16 threads for integral computing
 -------------------------------------------------------
 OpenMP Integral computing Module                
 Release: version 2.0, May 2017, Q-Chem Inc. Pleasanton 
 -------------------------------------------------------
 A restricted SCF calculation will be
 performed using Roothaan-Hall, DIIS
 SCF converges when DIIS error is below 1.0e-08
 ---------------------------------------
  Cycle       Energy         DIIS error
 ---------------------------------------
    1    -404.5807746843      6.19e-04  Roothaan Step
 ---------------------------------------
  Cycle       Energy         DIIS error
 ---------------------------------------
    1    -404.5888765594      8.43e-04  
    2    -404.5801302530      1.87e-03  
    3    -404.5935462014      1.37e-04  
    4    -404.5936251732      6.93e-05  
    5    -404.5936435216      2.21e-05  
    6    -404.5936454545      5.85e-06  
    7    -404.5936455860      1.85e-06  
    8    -404.5936456021      3.61e-07  
    9    -404.5936456026      1.55e-07  
   10    -404.5936456027      3.12e-08  
   11    -404.5936456027      7.68e-09  Convergence criterion met
 ---------------------------------------
 SCF time:   CPU 979.11s  wall 66.00s 

************** Final PCM Free Energy Summary **************
 G_electrostatic  =      -0.01095649 hartree =      -6.87529973 kcal/mol
 G_cavitation     =       0.00000000 hartree =       0.00000000 kcal/mol
 G_dispersion     =       0.00000000 hartree =       0.00000000 kcal/mol
 G_repulsion      =       0.00000000 hartree =       0.00000000 kcal/mol
 --------------------------------------------------
 Non-electrostatic Free Energy =       0.00000000 hartree =       0.00000000 kcal/mol
 Total                         =      -0.01095649 hartree =      -6.87529973 kcal/mol
 --------------------------------------------------
 SCF Energy (H0 + V/2)                       =    -404.59364560 
 Solute Internal Energy (H0)                 =    -404.58268912 
 Total Free Energy (H0 + V/2 + non-elec)     =    -404.59364560 hartree
                                             = -253886.34452213 kcal/mol
***********************************************************

 SCF   energy in the final basis set =     -404.5936456027
 Total energy in the final basis set =     -404.5936456027
 
 --------------------------------------------------------------
 
                    Orbital Energies (a.u.)
 --------------------------------------------------------------
 
 Alpha MOs
 -- Occupied --
-19.1331 -14.3718 -10.2939 -10.2279 -10.1859 -10.1856 -10.1839 -10.1831
-10.1812  -1.0415  -0.9338  -0.8259  -0.7452  -0.7448  -0.6403  -0.6152
 -0.5949  -0.5646  -0.5286  -0.4856  -0.4618  -0.4463  -0.4409  -0.4213
 -0.4185  -0.3990  -0.3798  -0.3757  -0.3507  -0.3480  -0.3234  -0.3144
 -0.3117  -0.2691  -0.2596
 -- Virtual --
  0.0049   0.0092   0.0129   0.0233   0.0244   0.0382   0.0469   0.0491
  0.0557   0.0662   0.0680   0.0820   0.0857   0.0932   0.0993   0.1024
  0.1087   0.1153   0.1245   0.1324   0.1387   0.1490   0.1527   0.1612
  0.1696   0.1778   0.1803   0.1841   0.1980   0.2002   0.2092   0.2105
  0.2208   0.2235   0.2337   0.2450   0.2470   0.2523   0.2619   0.2694
  0.2787   0.2816   0.2835   0.2895   0.2958   0.3075   0.3118   0.3255
  0.3292   0.3315   0.3546   0.3705   0.3804   0.3839   0.4143   0.4186
  0.4376   0.4515   0.4870   0.6069   0.6384   0.6561   0.6617   0.6673
  0.6847   0.6987   0.7243   0.7298   0.7425   0.7531   0.7708   0.7791
  0.7971   0.8018   0.8213   0.8367   0.8589   0.9030   0.9499   0.9710
  0.9789   0.9904   1.0179   1.0254   1.0322   1.0547   1.0786   1.1003
  1.1166   1.1206   1.1250   1.1426   1.1610   1.1685   1.1777   1.1817
  1.2378   1.2508   1.2857   1.3239   1.3321   1.3700   1.4009   1.4110
  1.4704   1.4855   1.4882   1.5620   1.5810   1.6195   1.6893   1.7233
  1.7377   1.7574   1.7693   1.7904   1.8345   1.8705   1.8990   1.9068
  1.9168   1.9384   1.9692   2.0006   2.0071   2.0401   2.0606   2.0844
  2.1106   2.1168   2.1975   2.2089   2.2779   2.2982   2.3177   2.3392
  2.3976   2.4051   2.4176   2.4219   2.4489   2.5584   2.5776   2.6207
  2.6807   2.6862   2.7018   2.7528   2.7731   2.8352   2.8666   3.0044
  3.1877   4.0877   4.1904   4.2312   4.2924   4.3353   4.4155   4.5955
  4.6010   4.6642
 --------------------------------------------------------------
 
          Ground-State Mulliken Net Atomic Charges

     Atom                 Charge (a.u.)
  ----------------------------------------
      1 C                    -0.298510
      2 C                    -0.439361
      3 C                    -0.289120
      4 C                    -0.443094
      5 C                    -0.372800
      6 C                    -0.448263
      7 H                     0.211549
      8 H                     0.235929
      9 H                     0.208931
     10 H                     0.211843
     11 H                     0.206686
     12 H                     0.201751
     13 H                     0.199484
     14 H                     0.198346
     15 H                     0.206238
     16 H                     0.202828
     17 H                     0.205538
     18 N                    -0.379922
     19 H                     0.432175
     20 C                     0.340931
     21 H                     0.169626
     22 O                    -0.560785
  ----------------------------------------
  Sum of atomic charges =     0.000000

 -----------------------------------------------------------------
                    Cartesian Multipole Moments
 -----------------------------------------------------------------
    Charge (ESU x 10^10)
                 0.0000
    Dipole Moment (Debye)
         X       4.7014      Y       1.9292      Z       0.9660
       Tot       5.1728
    Quadrupole Moments (Debye-Ang)
        XX     -61.0533     XY      46.9660     YY     -17.7062
        XZ      84.6883     YZ      44.7677     ZZ     -15.9972
    Octopole Moments (Debye-Ang^2)
       XXX     -73.5603    XXY    -634.1993    XYY     441.2509
       YYY   -1194.6618    XXZ   -1221.3669    XYZ     846.6674
       YYZ    -337.9175    XZZ    1497.2981    YZZ     452.9021
       ZZZ   -2166.7213
    Hexadecapole Moments (Debye-Ang^3)
      XXXX    -518.8688   XXXY    -782.9727   XXYY   -6740.0169
      XYYY    3805.1281   YYYY  -29913.8124   XXXZ   -1733.2211
      XXYZ  -12735.4677   XYYZ    7827.9015   YYYZ  -24397.2172
      XXZZ  -24748.1360   XYZZ   14965.8355   YYZZ  -12577.5426
      XZZZ   25550.6567   YZZZ  -11718.5968   ZZZZ -105190.1503
 -----------------------------------------------------------------
 Calculating analytic gradient of the SCF energy
 Gradient of SCF Energy
            1           2           3           4           5           6
    1   0.0097705  -0.0108123  -0.0065004   0.0009962  -0.0127120   0.0038992
    2  -0.0170729   0.0005184   0.0044384   0.0015844  -0.0017421   0.0048481
    3   0.0006756  -0.0064467   0.0055136  -0.0028125   0.0039233  -0.0022974
            7           8           9          10          11          12
    1   0.0031892   0.0031332  -0.0020583  -0.0013675  -0.0003639   0.0029919
    2  -0.0016253   0.0006462   0.0083139   0.0023218   0.0011974   0.0007311
    3  -0.0015511   0.0058801  -0.0005912   0.0016829   0.0003767  -0.0014348
           13          14          15          16          17          18
    1   0.0029968   0.0011425  -0.0019264   0.0013821   0.0029845   0.0007517
    2  -0.0006734  -0.0008746  -0.0002331   0.0007933  -0.0024342  -0.0012710
    3   0.0008799  -0.0013015  -0.0022521   0.0011177  -0.0030672   0.0066333
           19          20          21          22
    1   0.0070090  -0.0121620   0.0031626   0.0044936
    2   0.0036852  -0.0116683   0.0046950   0.0038215
    3  -0.0026848  -0.0007249  -0.0014562  -0.0000630
 Max gradient component =       1.707E-02
 RMS gradient           =       4.848E-03
 Computing fast CPCM-SWIG gradient
 Updating gradient with PCM contributions...
 -- total gradient after adding PCM contribution --
---------------------------------------------------
  Atom         X              Y              Z     
---------------------------------------------------
   1       0.012364      -0.012129      -0.001835
   2      -0.010474       0.000460      -0.008307
   3      -0.001023       0.003497       0.003114
   4       0.000680      -0.001831      -0.000410
   5      -0.009007      -0.000327       0.006209
   6       0.001117       0.006988      -0.000153
   7       0.002790      -0.000471      -0.001134
   8       0.001993       0.000203       0.004828
   9      -0.005159       0.006324       0.000667
  10      -0.000798       0.001398       0.001925
  11       0.000911       0.001741      -0.000008
  12       0.001191       0.001526      -0.001951
  13       0.003101      -0.000550      -0.000802
  14      -0.000930      -0.001685      -0.000744
  15      -0.000646       0.000258      -0.002473
  16       0.000840      -0.001136       0.000538
  17      -0.000301      -0.003740      -0.001773
  18       0.007203       0.002049       0.004492
  19      -0.001164      -0.000044       0.000823
  20      -0.007664      -0.010066      -0.004087
  21       0.000550       0.003510       0.000629
  22       0.004425       0.004025       0.000452
---------------------------------------------------
 Number of fixed atoms: 0
 Gradient time:  CPU 160.45 s  wall 15.25 s
 Geometry Optimization Parameters
   NAtoms,    NIC,     NZ,  NCons,   NDum,   NFix, NCnnct, MaxDiis
       22     172       0       0       0       0       0       0

 Cartesian Hessian Update
 Hessian updated using BFGS update


** GEOMETRY OPTIMIZATION IN DELOCALIZED INTERNAL COORDINATES **
   Searching for a Minimum

   Optimization Cycle:   3

                       Coordinates (Angstroms)
     ATOM                X               Y               Z
      1  C         0.5217235224   11.8499586228   20.4050337186
      2  C         0.4406993858   10.4255279340   19.8350255488
      3  C         1.5307764504    9.5347575024   20.4605291046
      4  C         1.4353043583    9.5141557836   21.9939778531
      5  C         1.4259668374   10.9257503724   22.6098031050
      6  C         0.4117762130   11.8674826011   21.9427984782
      7  H         1.4552144137    8.5138733014   20.0591517214
      8  H        -0.5306912066   10.0068378871   20.1106932559
      9  H         1.4117801336   12.4010521554   20.0730736169
     10  H        -0.3258234917   12.4341221387   20.0138902050
     11  H         0.5213848573    8.9837929641   22.2909348632
     12  H         2.2880147454    8.9493067128   22.3895045233
     13  H         1.2863444639   10.8657334795   23.6946867559
     14  H         2.4303797796   11.3493322923   22.4598640472
     15  H        -0.6144373392   11.5637498542   22.1989973503
     16  H         0.5479966859   12.8870398718   22.3202986685
     17  H         2.5226266581    9.8861392436   20.1389876569
     18  N         0.5483077401   10.4296902246   18.3812387452
     19  H         1.3989006618   10.8039105271   17.9783499216
     20  C        -0.4490220498   10.0982889240   17.5204237678
     21  H        -0.1635267026   10.2850084986   16.4700222989
     22  O        -1.5636961168    9.6944891083   17.8427147936
   Point Group: c1    Number of degrees of freedom:    60


   Energy is   -404.593645603

 Hessian updated using BFGS update

 60 Hessian modes will be used to form the next step
  Hessian Eigenvalues:
     0.004842    0.005405    0.006545    0.008377    0.012677    0.016671
     0.018527    0.018737    0.023073    0.034581    0.037034    0.037225
     0.043555    0.046553    0.048122    0.049728    0.051230    0.053387
     0.056969    0.060467    0.066943    0.080768    0.081189    0.083205
     0.083983    0.087342    0.090069    0.091980    0.123435    0.125714
     0.139243    0.157768    0.159433    0.162703    0.178062    0.211835
     0.219821    0.220327    0.269134    0.272594    0.275512    0.282019
     0.284861    0.287243    0.330971    0.334318    0.336976    0.338429
     0.344077    0.345334    0.345855    0.346516    0.347728    0.349711
     0.351667    0.356806    0.377712    0.466525    0.487463    0.942987

 Minimum search - taking simple RFO step
 Searching for Lamda that Minimizes Along All modes
 Value Taken    Lamda =  -0.00701692
 Calculated Step too Large.  Step scaled by  0.581799
 Step Taken.  Stepsize is  0.300000

                             Maximum     Tolerance    Cnvgd?
         Gradient           0.007542      0.000100      NO
         Displacement       0.133241      0.000100      NO
         Energy change     -0.005641      0.000000      NO


 New Cartesian Coordinates Obtained by Inverse Iteration

 Displacement from previous Coordinates is:  0.305530
 ----------------------------------------------------------------
             Standard Nuclear Orientation (Angstroms)
    I     Atom           X                Y                Z
 ----------------------------------------------------------------
    1      C       0.4995889321    11.8657498940    20.4173948407
    2      C       0.4372823652    10.4421442560    19.8402888867
    3      C       1.5203985856     9.5419385776    20.4563704726
    4      C       1.4269247207     9.5135658037    21.9892718076
    5      C       1.4530773299    10.9267827563    22.5927233122
    6      C       0.4137431254    11.8590925457    21.9536314764
    7      H       1.4268811444     8.5288633886    20.0437812914
    8      H      -0.5436800020    10.0174106073    20.0766739075
    9      H       1.4225061036    12.3704164886    20.0948346659
   10      H      -0.3348944295    12.4537028309    20.0114567495
   11      H       0.5017543323     9.0000560113    22.2885876334
   12      H       2.2609394815     8.9249042644    22.3924805174
   13      H       1.3053541522    10.8769684729    23.6792422647
   14      H       2.4571593850    11.3510172923    22.4352925725
   15      H      -0.5991651517    11.5425320546    22.2432243965
   16      H       0.5461389069    12.8801840746    22.3333163544
   17      H       2.5132773420     9.9081234025    20.1507292768
   18      N       0.5432344233    10.4590580064    18.3823523552
   19      H       1.3966558216    10.8275299490    17.9762376658
   20      C      -0.4452460532    10.1219482959    17.5248889939
   21      H      -0.1352162545    10.2155894449    16.4692233912
   22      O      -1.5367142606     9.6424215825    17.8379971676
 ----------------------------------------------------------------
 Nuclear Repulsion Energy =         466.43089863 hartrees
 There are       35 alpha and       35 beta electrons
 Discretize the solute cavity surface with Lebedev spheres
	Using 302 Lebedev grid points for each H atom
	Using 302 Lebedev grid points for other atoms
	Atomic van der Waals radii will be scaled by 1.20
 Remove points where switching function is < 1.0e-08
 Keep 2740 surface tesserae and discard 3904 interior tesserae
 Molecular Surface Area = 182.618 Angst**2
 Applying Cartesian multipole field
    Component          Value
    ---------          -----
     (2,0,0)        1.00000E-11
     (0,2,0)        2.00000E-12
     (0,0,2)       -3.00000E-13
 Nucleus-field energy     =     0.0000000281 hartrees
 Requested basis set is 6-31+G(d)
 There are 71 shells and 197 basis functions
 A cutoff of  1.0D-14 yielded   2412 shell pairs
 There are     18992 function pairs
 Smallest overlap matrix eigenvalue = 2.43E-05
 Guess MOs from SCF MO coefficient file

 -----------------------------------------------------------------------
  General SCF calculation program by
  Eric Jon Sundstrom, Paul Horn, Yuezhi Mao, Dmitri Zuev, Alec White,
  David Stuck, Shaama M.S., Shane Yost, Joonho Lee, David Small,
  Daniel Levine, Susi Lehtola, Hugh Burton, Evgeny Epifanovsky,
  Bang C. Huynh
 -----------------------------------------------------------------------
 Exchange:     0.2000 Hartree-Fock + 0.0800 Slater + 0.7200 B88
 Correlation:  0.1900 VWN1RPA + 0.8100 LYP
 Using Euler-Maclaurin-Lebedev (99,590) quadrature formula
 using 16 threads for integral computing
 -------------------------------------------------------
 OpenMP Integral computing Module                
 Release: version 2.0, May 2017, Q-Chem Inc. Pleasanton 
 -------------------------------------------------------
 A restricted SCF calculation will be
 performed using Roothaan-Hall, DIIS
 SCF converges when DIIS error is below 1.0e-08
 ---------------------------------------
  Cycle       Energy         DIIS error
 ---------------------------------------
    1    -404.5803249733      7.84e-04  Roothaan Step
 ---------------------------------------
  Cycle       Energy         DIIS error
 ---------------------------------------
    1    -404.5904954429      8.60e-04  
    2    -404.5814632897      1.90e-03  
    3    -404.5953609200      1.39e-04  
    4    -404.5954419645      7.19e-05  
    5    -404.5954617215      2.27e-05  
    6    -404.5954637746      5.97e-06  
    7    -404.5954639101      1.95e-06  
    8    -404.5954639281      3.79e-07  
    9    -404.5954639287      1.62e-07  
   10    -404.5954639288      3.23e-08  
   11    -404.5954639288      7.47e-09  Convergence criterion met
 ---------------------------------------
 SCF time:   CPU 971.92s  wall 65.00s 

************** Final PCM Free Energy Summary **************
 G_electrostatic  =      -0.01116494 hartree =      -7.00610336 kcal/mol
 G_cavitation     =       0.00000000 hartree =       0.00000000 kcal/mol
 G_dispersion     =       0.00000000 hartree =       0.00000000 kcal/mol
 G_repulsion      =       0.00000000 hartree =       0.00000000 kcal/mol
 --------------------------------------------------
 Non-electrostatic Free Energy =       0.00000000 hartree =       0.00000000 kcal/mol
 Total                         =      -0.01116494 hartree =      -7.00610336 kcal/mol
 --------------------------------------------------
 SCF Energy (H0 + V/2)                       =    -404.59546393 
 Solute Internal Energy (H0)                 =    -404.58429899 
 Total Free Energy (H0 + V/2 + non-elec)     =    -404.59546393 hartree
                                             = -253887.48553896 kcal/mol
***********************************************************

 SCF   energy in the final basis set =     -404.5954639288
 Total energy in the final basis set =     -404.5954639288
 
 --------------------------------------------------------------
 
                    Orbital Energies (a.u.)
 --------------------------------------------------------------
 
 Alpha MOs
 -- Occupied --
-19.1315 -14.3724 -10.2929 -10.2274 -10.1863 -10.1861 -10.1837 -10.1836
-10.1819  -1.0391  -0.9342  -0.8272  -0.7457  -0.7455  -0.6398  -0.6157
 -0.5946  -0.5652  -0.5280  -0.4853  -0.4624  -0.4463  -0.4409  -0.4207
 -0.4180  -0.3984  -0.3810  -0.3762  -0.3502  -0.3482  -0.3241  -0.3154
 -0.3127  -0.2673  -0.2604
 -- Virtual --
  0.0044   0.0097   0.0128   0.0233   0.0244   0.0382   0.0470   0.0488
  0.0558   0.0664   0.0680   0.0819   0.0859   0.0928   0.0989   0.1024
  0.1088   0.1155   0.1234   0.1324   0.1388   0.1490   0.1530   0.1606
  0.1693   0.1787   0.1795   0.1849   0.1982   0.1995   0.2091   0.2116
  0.2207   0.2232   0.2330   0.2447   0.2465   0.2528   0.2616   0.2690
  0.2810   0.2826   0.2835   0.2900   0.2927   0.3073   0.3111   0.3256
  0.3278   0.3303   0.3570   0.3695   0.3823   0.3846   0.4153   0.4170
  0.4382   0.4531   0.4863   0.6066   0.6370   0.6549   0.6635   0.6658
  0.6834   0.6971   0.7255   0.7300   0.7470   0.7482   0.7722   0.7798
  0.7985   0.8019   0.8194   0.8388   0.8586   0.9062   0.9516   0.9720
  0.9772   0.9891   1.0174   1.0248   1.0298   1.0538   1.0829   1.0987
  1.1167   1.1193   1.1242   1.1436   1.1619   1.1679   1.1815   1.1851
  1.2355   1.2532   1.2850   1.3226   1.3387   1.3644   1.3944   1.4116
  1.4657   1.4870   1.4993   1.5632   1.5793   1.6167   1.6989   1.7276
  1.7421   1.7522   1.7675   1.7984   1.8438   1.8691   1.9025   1.9078
  1.9123   1.9372   1.9697   2.0063   2.0084   2.0426   2.0562   2.0854
  2.1034   2.1250   2.2026   2.2125   2.2764   2.3045   2.3160   2.3390
  2.3969   2.4104   2.4141   2.4201   2.4495   2.5587   2.5804   2.6216
  2.6771   2.6868   2.7024   2.7545   2.7764   2.8346   2.8665   3.0002
  3.1856   4.0899   4.1932   4.2309   4.2929   4.3329   4.4152   4.5998
  4.6001   4.6675
 --------------------------------------------------------------
 
          Ground-State Mulliken Net Atomic Charges

     Atom                 Charge (a.u.)
  ----------------------------------------
      1 C                    -0.280523
      2 C                    -0.444326
      3 C                    -0.285260
      4 C                    -0.445053
      5 C                    -0.378321
      6 C                    -0.450274
      7 H                     0.212456
      8 H                     0.234852
      9 H                     0.206478
     10 H                     0.211741
     11 H                     0.207159
     12 H                     0.202021
     13 H                     0.199180
     14 H                     0.199574
     15 H                     0.207172
     16 H                     0.202169
     17 H                     0.205613
     18 N                    -0.379638
     19 H                     0.431546
     20 C                     0.340479
     21 H                     0.168963
     22 O                    -0.566007
  ----------------------------------------
  Sum of atomic charges =     0.000000

 -----------------------------------------------------------------
                    Cartesian Multipole Moments
 -----------------------------------------------------------------
    Charge (ESU x 10^10)
                -0.0000
    Dipole Moment (Debye)
         X       4.7285      Y       2.0310      Z       1.0610
       Tot       5.2544
    Quadrupole Moments (Debye-Ang)
        XX     -60.8306     XY      46.9989     YY     -15.8574
        XZ      85.2028     YZ      47.5288     ZZ     -12.3565
    Octopole Moments (Debye-Ang^2)
       XXX     -73.9166    XXY    -631.5121    XYY     439.1505
       YYY   -1170.7069    XXZ   -1217.1465    XYZ     847.5724
       YYZ    -295.6262    XZZ    1507.2286    YZZ     521.0691
       ZZZ   -2061.4493
    Hexadecapole Moments (Debye-Ang^3)
      XXXX    -514.1854   XXXY    -788.1455   XXYY   -6708.3494
      XYYY    3755.7547   YYYY  -29662.4142   XXXZ   -1738.6081
      XXYZ  -12685.0266   XYYZ    7793.4569   YYYZ  -23883.3031
      XXZZ  -24667.0175   XYZZ   14988.4697   YYZZ  -11641.5879
      XZZZ   25744.0717   YZZZ  -10120.1930   ZZZZ -102466.7475
 -----------------------------------------------------------------
 Calculating analytic gradient of the SCF energy
 Gradient of SCF Energy
            1           2           3           4           5           6
    1   0.0002837  -0.0015271  -0.0066911   0.0004755  -0.0073032   0.0036570
    2  -0.0083889  -0.0000626   0.0023432   0.0033745  -0.0020784  -0.0009930
    3   0.0016758  -0.0013237   0.0042717  -0.0031641  -0.0013652  -0.0021885
            7           8           9          10          11          12
    1   0.0008781   0.0015037   0.0018713  -0.0014626  -0.0008314   0.0024221
    2  -0.0010894   0.0008657   0.0038064   0.0011070  -0.0005980  -0.0000627
    3  -0.0010482   0.0027611  -0.0009310   0.0005161   0.0006959   0.0001281
           13          14          15          16          17          18
    1   0.0002497   0.0024343  -0.0015725   0.0013425   0.0036260  -0.0048248
    2  -0.0001475   0.0002896   0.0000046   0.0017164   0.0003049  -0.0068993
    3   0.0016653  -0.0007343  -0.0006150   0.0005044  -0.0017389   0.0033507
           19          20          21          22
    1   0.0082871  -0.0108272   0.0043822   0.0036268
    2   0.0031084   0.0102463  -0.0027143  -0.0041328
    3  -0.0035215   0.0035621  -0.0018726  -0.0006283
 Max gradient component =       1.083E-02
 RMS gradient           =       3.464E-03
 Computing fast CPCM-SWIG gradient
 Updating gradient with PCM contributions...
 -- total gradient after adding PCM contribution --
---------------------------------------------------
  Atom         X              Y              Z     
---------------------------------------------------
   1       0.003342      -0.003773      -0.000922
   2      -0.001350      -0.000137      -0.003248
   3      -0.001243       0.001576       0.001855
   4       0.000107      -0.000202      -0.000682
   5      -0.003569      -0.000523       0.000998
   6       0.000696       0.001237       0.000127
   7       0.000560       0.000085      -0.000632
   8       0.000276       0.000324       0.001755
   9      -0.001485       0.002207       0.000300
  10      -0.000737       0.000132       0.000894
  11       0.000464      -0.000034       0.000275
  12       0.000661       0.000810      -0.000465
  13       0.000471      -0.000060      -0.000041
  14       0.000200      -0.000616      -0.000142
  15      -0.000261       0.000535      -0.000972
  16       0.000809      -0.000203      -0.000058
  17       0.000253      -0.001211      -0.000543
  18       0.001733      -0.003742       0.001213
  19       0.000011      -0.000497      -0.000024
  20      -0.006339       0.011950       0.000358
  21       0.001714      -0.003741       0.000131
  22       0.003688      -0.004117      -0.000177
---------------------------------------------------
 Number of fixed atoms: 0
 Gradient time:  CPU 160.30 s  wall 15.22 s
 Geometry Optimization Parameters
   NAtoms,    NIC,     NZ,  NCons,   NDum,   NFix, NCnnct, MaxDiis
       22     172       0       0       0       0       0       0

 Cartesian Hessian Update
 Hessian updated using BFGS update


** GEOMETRY OPTIMIZATION IN DELOCALIZED INTERNAL COORDINATES **
   Searching for a Minimum

   Optimization Cycle:   4

                       Coordinates (Angstroms)
     ATOM                X               Y               Z
      1  C         0.4995889321   11.8657498940   20.4173948407
      2  C         0.4372823652   10.4421442560   19.8402888867
      3  C         1.5203985856    9.5419385776   20.4563704726
      4  C         1.4269247207    9.5135658037   21.9892718076
      5  C         1.4530773299   10.9267827563   22.5927233122
      6  C         0.4137431254   11.8590925457   21.9536314764
      7  H         1.4268811444    8.5288633886   20.0437812914
      8  H        -0.5436800020   10.0174106073   20.0766739075
      9  H         1.4225061036   12.3704164886   20.0948346659
     10  H        -0.3348944295   12.4537028309   20.0114567495
     11  H         0.5017543323    9.0000560113   22.2885876334
     12  H         2.2609394815    8.9249042644   22.3924805174
     13  H         1.3053541522   10.8769684729   23.6792422647
     14  H         2.4571593850   11.3510172923   22.4352925725
     15  H        -0.5991651517   11.5425320546   22.2432243965
     16  H         0.5461389069   12.8801840746   22.3333163544
     17  H         2.5132773420    9.9081234025   20.1507292768
     18  N         0.5432344233   10.4590580064   18.3823523552
     19  H         1.3966558216   10.8275299490   17.9762376658
     20  C        -0.4452460532   10.1219482959   17.5248889939
     21  H        -0.1352162545   10.2155894449   16.4692233912
     22  O        -1.5367142606    9.6424215825   17.8379971676
   Point Group: c1    Number of degrees of freedom:    60


   Energy is   -404.595463929

 Hessian updated using BFGS update

 60 Hessian modes will be used to form the next step
  Hessian Eigenvalues:
     0.004829    0.005383    0.006544    0.008377    0.012711    0.017702
     0.018543    0.018768    0.032615    0.035884    0.037094    0.040926
     0.045217    0.047359    0.049623    0.050909    0.053322    0.056666
     0.059964    0.066732    0.071809    0.080432    0.081349    0.083096
     0.083926    0.087321    0.090098    0.091281    0.123530    0.125727
     0.139394    0.157616    0.159398    0.162722    0.178279    0.211671
     0.219517    0.220296    0.269067    0.272587    0.275532    0.282251
     0.284862    0.287519    0.330969    0.334299    0.336970    0.338365
     0.344048    0.345272    0.345837    0.346489    0.347753    0.349697
     0.351645    0.356526    0.377554    0.466581    0.489111    0.940838

 Minimum search - taking simple RFO step
 Searching for Lamda that Minimizes Along All modes
 Value Taken    Lamda =  -0.00233111
 Calculated Step too Large.  Step scaled by  0.949409
 Step Taken.  Stepsize is  0.300000

                             Maximum     Tolerance    Cnvgd?
         Gradient           0.007563      0.000100      NO
         Displacement       0.158215      0.000100      NO
         Energy change     -0.001818      0.000000      NO


 New Cartesian Coordinates Obtained by Inverse Iteration

 Displacement from previous Coordinates is:  0.286706
 ----------------------------------------------------------------
             Standard Nuclear Orientation (Angstroms)
    I     Atom           X                Y                Z
 ----------------------------------------------------------------
    1      C       0.4815298285    11.8606075530    20.4207250293
    2      C       0.4362784600    10.4340255112    19.8440481653
    3      C       1.5215115498     9.5368870142    20.4628015681
    4      C       1.4275100634     9.5205079893    21.9969212660
    5      C       1.4801955961    10.9416987327    22.5778776173
    6      C       0.4034787370    11.8439468103    21.9572971404
    7      H       1.4256586677     8.5224625406    20.0563717174
    8      H      -0.5473921467     9.9993096401    20.0519737112
    9      H       1.4282656600    12.3294555347    20.1094669529
   10      H      -0.3370275833    12.4522226484    19.9934425447
   11      H       0.4884635818     9.0314309484    22.2974859984
   12      H       2.2410826944     8.9118872287    22.4133611753
   13      H       1.3437746593    10.9060915963    23.6672128463
   14      H       2.4754317261    11.3771634676    22.3972445704
   15      H      -0.5913530971    11.4935106176    22.2701285746
   16      H       0.5064686645    12.8687525382    22.3381913022
   17      H       2.5118324387     9.9159763152    20.1640224973
   18      N       0.5487695795    10.4562683260    18.3824166033
   19      H       1.4059720869    10.8206773290    17.9792089069
   20      C      -0.4292954326    10.1065538683    17.5208254660
   21      H      -0.1358951683    10.2414119335    16.4649792314
   22      O      -1.5552605658     9.6991518571    17.8239971153
 ----------------------------------------------------------------
 Nuclear Repulsion Energy =         466.41419917 hartrees
 There are       35 alpha and       35 beta electrons
 Discretize the solute cavity surface with Lebedev spheres
	Using 302 Lebedev grid points for each H atom
	Using 302 Lebedev grid points for other atoms
	Atomic van der Waals radii will be scaled by 1.20
 Remove points where switching function is < 1.0e-08
 Keep 2738 surface tesserae and discard 3906 interior tesserae
 Molecular Surface Area = 182.578 Angst**2
 Applying Cartesian multipole field
    Component          Value
    ---------          -----
     (2,0,0)        1.00000E-11
     (0,2,0)        2.00000E-12
     (0,0,2)       -3.00000E-13
 Nucleus-field energy     =     0.0000000282 hartrees
 Requested basis set is 6-31+G(d)
 There are 71 shells and 197 basis functions
 A cutoff of  1.0D-14 yielded   2411 shell pairs
 There are     18991 function pairs
 Smallest overlap matrix eigenvalue = 2.48E-05
 Guess MOs from SCF MO coefficient file

 -----------------------------------------------------------------------
  General SCF calculation program by
  Eric Jon Sundstrom, Paul Horn, Yuezhi Mao, Dmitri Zuev, Alec White,
  David Stuck, Shaama M.S., Shane Yost, Joonho Lee, David Small,
  Daniel Levine, Susi Lehtola, Hugh Burton, Evgeny Epifanovsky,
  Bang C. Huynh
 -----------------------------------------------------------------------
 Exchange:     0.2000 Hartree-Fock + 0.0800 Slater + 0.7200 B88
 Correlation:  0.1900 VWN1RPA + 0.8100 LYP
 Using Euler-Maclaurin-Lebedev (99,590) quadrature formula
 using 16 threads for integral computing
 -------------------------------------------------------
 OpenMP Integral computing Module                
 Release: version 2.0, May 2017, Q-Chem Inc. Pleasanton 
 -------------------------------------------------------
 A restricted SCF calculation will be
 performed using Roothaan-Hall, DIIS
 SCF converges when DIIS error is below 1.0e-08
 ---------------------------------------
  Cycle       Energy         DIIS error
 ---------------------------------------
    1    -404.5812462696      7.63e-04  Roothaan Step
 ---------------------------------------
  Cycle       Energy         DIIS error
 ---------------------------------------
    1    -404.5912587934      8.61e-04  
    2    -404.5822153173      1.90e-03  
    3    -404.5961840444      1.42e-04  
    4    -404.5962685147      7.30e-05  
    5    -404.5962889505      2.27e-05  
    6    -404.5962910023      6.12e-06  
    7    -404.5962911427      2.03e-06  
    8    -404.5962911622      3.98e-07  
    9    -404.5962911629      1.64e-07  
   10    -404.5962911630      3.18e-08  
   11    -404.5962911630      7.44e-09  Convergence criterion met
 ---------------------------------------
 SCF time:   CPU 955.50s  wall 64.00s 

************** Final PCM Free Energy Summary **************
 G_electrostatic  =      -0.01127200 hartree =      -7.07328823 kcal/mol
 G_cavitation     =       0.00000000 hartree =       0.00000000 kcal/mol
 G_dispersion     =       0.00000000 hartree =       0.00000000 kcal/mol
 G_repulsion      =       0.00000000 hartree =       0.00000000 kcal/mol
 --------------------------------------------------
 Non-electrostatic Free Energy =       0.00000000 hartree =       0.00000000 kcal/mol
 Total                         =      -0.01127200 hartree =      -7.07328823 kcal/mol
 --------------------------------------------------
 SCF Energy (H0 + V/2)                       =    -404.59629116 
 Solute Internal Energy (H0)                 =    -404.58501916 
 Total Free Energy (H0 + V/2 + non-elec)     =    -404.59629116 hartree
                                             = -253888.00463627 kcal/mol
***********************************************************

 SCF   energy in the final basis set =     -404.5962911630
 Total energy in the final basis set =     -404.5962911630
 
 --------------------------------------------------------------
 
                    Orbital Energies (a.u.)
 --------------------------------------------------------------
 
 Alpha MOs
 -- Occupied --
-19.1311 -14.3726 -10.2928 -10.2274 -10.1868 -10.1866 -10.1840 -10.1838
-10.1823  -1.0375  -0.9338  -0.8279  -0.7458  -0.7452  -0.6392  -0.6155
 -0.5944  -0.5662  -0.5278  -0.4851  -0.4627  -0.4457  -0.4406  -0.4199
 -0.4177  -0.3983  -0.3822  -0.3755  -0.3505  -0.3478  -0.3255  -0.3159
 -0.3127  -0.2668  -0.2606
 -- Virtual --
  0.0049   0.0104   0.0127   0.0232   0.0240   0.0382   0.0470   0.0485
  0.0559   0.0669   0.0677   0.0815   0.0859   0.0922   0.0983   0.1022
  0.1090   0.1154   0.1225   0.1324   0.1387   0.1492   0.1532   0.1601
  0.1691   0.1790   0.1798   0.1860   0.1970   0.1999   0.2091   0.2120
  0.2194   0.2234   0.2322   0.2439   0.2457   0.2525   0.2619   0.2674
  0.2805   0.2821   0.2855   0.2873   0.2919   0.3069   0.3087   0.3250
  0.3266   0.3291   0.3587   0.3685   0.3841   0.3849   0.4133   0.4177
  0.4371   0.4561   0.4869   0.6067   0.6364   0.6534   0.6636   0.6649
  0.6821   0.6958   0.7273   0.7305   0.7431   0.7518   0.7740   0.7793
  0.7996   0.8024   0.8173   0.8460   0.8586   0.9087   0.9516   0.9723
  0.9759   0.9890   1.0179   1.0250   1.0287   1.0528   1.0864   1.0972
  1.1147   1.1196   1.1237   1.1444   1.1597   1.1675   1.1812   1.1896
  1.2362   1.2505   1.2852   1.3326   1.3404   1.3698   1.3878   1.4134
  1.4768   1.4880   1.4906   1.5672   1.5736   1.6149   1.6954   1.7284
  1.7338   1.7541   1.7666   1.8050   1.8511   1.8713   1.8996   1.9048
  1.9094   1.9390   1.9757   2.0072   2.0151   2.0427   2.0525   2.0851
  2.0914   2.1286   2.2007   2.2146   2.2765   2.3060   2.3147   2.3423
  2.3957   2.4074   2.4170   2.4221   2.4470   2.5595   2.5840   2.6218
  2.6706   2.6818   2.7029   2.7588   2.7769   2.8315   2.8640   2.9986
  3.1866   4.0906   4.1939   4.2314   4.2920   4.3309   4.4159   4.5997
  4.6048   4.6700
 --------------------------------------------------------------
 
          Ground-State Mulliken Net Atomic Charges

     Atom                 Charge (a.u.)
  ----------------------------------------
      1 C                    -0.268013
      2 C                    -0.454508
      3 C                    -0.275807
      4 C                    -0.442890
      5 C                    -0.383966
      6 C                    -0.450829
      7 H                     0.212154
      8 H                     0.233842
      9 H                     0.205470
     10 H                     0.212274
     11 H                     0.207489
     12 H                     0.201660
     13 H                     0.198960
     14 H                     0.200543
     15 H                     0.207935
     16 H                     0.201633
     17 H                     0.205551
     18 N                    -0.382918
     19 H                     0.431126
     20 C                     0.340723
     21 H                     0.169190
     22 O                    -0.569620
  ----------------------------------------
  Sum of atomic charges =     0.000000

 -----------------------------------------------------------------
                    Cartesian Multipole Moments
 -----------------------------------------------------------------
    Charge (ESU x 10^10)
                -0.0000
    Dipole Moment (Debye)
         X       4.8161      Y       1.8840      Z       1.1346
       Tot       5.2945
[...]

 Mode:                40                     41                     42
 Frequency:      1405.40                1497.33                1500.46
 Force Cnst:      1.7129                 1.4367                 1.4479
 Red. Mass:       1.4719                 1.0876                 1.0915
 IR Active:          YES                    YES                    YES
 IR Intens:        0.926                  0.157                  4.402
 Raman Active:       YES                    YES                    YES
               X      Y      Z        X      Y      Z        X      Y      Z
 C         -0.010  0.056  0.094    0.011  0.039 -0.032    0.002  0.023  0.002
 C         -0.020 -0.012 -0.100   -0.006  0.015 -0.001    0.001 -0.000 -0.011
 C          0.036 -0.043  0.098   -0.034  0.017  0.030    0.019 -0.014  0.001
 C         -0.011  0.039  0.021   -0.008 -0.019  0.021   -0.006 -0.017  0.003
 C         -0.008 -0.004 -0.009    0.005 -0.014 -0.001   -0.053 -0.024 -0.048
 C          0.022 -0.034  0.023    0.020 -0.008 -0.021   -0.018  0.008  0.004
 H         -0.090  0.147 -0.368    0.382  0.037 -0.156   -0.154 -0.011  0.044
 H          0.076  0.061  0.476    0.029 -0.066  0.000    0.007  0.006  0.028
 H         -0.026 -0.148 -0.291    0.238 -0.285  0.216    0.079 -0.130  0.023
 H          0.051 -0.166 -0.355   -0.305 -0.272  0.169   -0.102 -0.096  0.041
 H          0.014 -0.037 -0.027   -0.143  0.155 -0.148   -0.089  0.131 -0.033
 H          0.001 -0.121 -0.245    0.178  0.161 -0.101    0.108  0.088 -0.084
 H         -0.063 -0.025 -0.021    0.010  0.005  0.001    0.568  0.254  0.046
 H         -0.023 -0.012 -0.062   -0.025  0.061  0.011    0.073  0.039  0.615
 H         -0.021  0.039 -0.034   -0.020  0.214  0.146    0.040 -0.172 -0.040
 H         -0.089  0.076 -0.244   -0.242 -0.021  0.098    0.157  0.022 -0.091
 H         -0.124  0.071 -0.302    0.048 -0.347 -0.197   -0.045  0.158  0.025
 N          0.004  0.002 -0.034   -0.000  0.000 -0.000   -0.001 -0.000 -0.002
 H          0.062  0.025  0.112    0.001 -0.002  0.001    0.007  0.003  0.016
 C          0.002  0.001  0.027    0.000 -0.000  0.000    0.001  0.000  0.002
 H         -0.005 -0.002  0.038   -0.000  0.000  0.000   -0.001 -0.000  0.002
 O          0.003  0.001 -0.005   -0.000 -0.000  0.000   -0.000 -0.000 -0.000
 TransDip  -0.001 -0.004  0.031    0.005 -0.011  0.003    0.055  0.023  0.030

 Mode:                43                     44                     45
 Frequency:      1503.16                1504.90                1517.46
 Force Cnst:      1.4611                 1.4514                 1.4947
 Red. Mass:       1.0976                 1.0878                 1.1017
 IR Active:          YES                    YES                    YES
 IR Intens:        6.856                 12.219                  0.865
 Raman Active:       YES                    YES                    YES
               X      Y      Z        X      Y      Z        X      Y      Z
 C          0.000  0.032 -0.019   -0.006 -0.034  0.017   -0.001 -0.034  0.015
 C          0.002 -0.006 -0.001    0.001  0.000  0.013   -0.005 -0.002  0.011
 C         -0.019  0.019  0.015   -0.034  0.023  0.020   -0.027  0.023  0.015
 C          0.004  0.045 -0.033   -0.004 -0.033  0.018    0.000  0.036 -0.019
 C          0.001 -0.001  0.000    0.001  0.000  0.006   -0.025 -0.012 -0.033
 C         -0.032  0.025  0.030   -0.032  0.023  0.021    0.027 -0.024 -0.018
 H          0.205  0.036 -0.095    0.361  0.030 -0.127    0.288  0.038 -0.116
 H         -0.008  0.019  0.001   -0.007 -0.003 -0.013   -0.009 -0.005 -0.010
 H          0.157 -0.210  0.122   -0.181  0.230 -0.141   -0.168  0.229 -0.118
 H         -0.203 -0.160  0.115    0.225  0.211 -0.106    0.216  0.179 -0.115
 H          0.251 -0.311  0.215   -0.181  0.222 -0.152    0.173 -0.226  0.132
 H         -0.317 -0.255  0.184    0.221  0.202 -0.106   -0.224 -0.181  0.113
 H         -0.020  0.026 -0.002   -0.005  0.000  0.009    0.292  0.130  0.010
 H          0.005 -0.012 -0.007   -0.004 -0.001 -0.007    0.041  0.023  0.326
 H          0.056 -0.350 -0.182    0.053 -0.334 -0.169   -0.052  0.283  0.127
 H          0.353  0.055 -0.163    0.347  0.034 -0.126   -0.287 -0.042  0.112
 H          0.043 -0.212 -0.092    0.060 -0.344 -0.158    0.059 -0.289 -0.114
 N         -0.000  0.001  0.000   -0.001 -0.000 -0.003    0.007  0.002  0.011
 H          0.000 -0.002 -0.000   -0.001 -0.001 -0.003   -0.026 -0.011 -0.073
 C          0.000  0.000 -0.000   -0.001 -0.000  0.001   -0.006 -0.002 -0.007
 H          0.000 -0.001 -0.000    0.000  0.000  0.001    0.003  0.001 -0.009
 O         -0.000 -0.000  0.000    0.001  0.000 -0.000    0.002  0.001  0.001
 TransDip   0.027 -0.079  0.006    0.084  0.030 -0.068   -0.014 -0.003 -0.026

 Mode:                46                     47                     48
 Frequency:      1549.83                1700.02                2226.07
 Force Cnst:      2.4780                14.8527                 7.0143
 Red. Mass:       1.7510                 8.7226                 2.4025
 IR Active:          YES                    YES                    YES
 IR Intens:      227.410                709.860                102.217
 Raman Active:       YES                    YES                    YES
               X      Y      Z        X      Y      Z        X      Y      Z
 C         -0.003 -0.004  0.009   -0.005 -0.006  0.017   -0.000 -0.000 -0.000
 C          0.059  0.023  0.060    0.015  0.006 -0.031    0.001  0.000  0.003
 C         -0.006  0.001  0.010   -0.009  0.001  0.018   -0.000  0.000 -0.000
 C         -0.002  0.001 -0.010    0.005 -0.004 -0.004   -0.000  0.000  0.000
 C         -0.002 -0.001 -0.000   -0.001 -0.000  0.001   -0.000 -0.000 -0.000
 C         -0.000 -0.002 -0.009    0.000  0.006 -0.005    0.000 -0.000  0.000
 H          0.035  0.004  0.001    0.013  0.016 -0.019    0.001 -0.000  0.000
 H         -0.009 -0.009 -0.355    0.052  0.020  0.064    0.001 -0.000  0.009
 H         -0.011 -0.021 -0.057   -0.017 -0.018 -0.029   -0.000  0.000 -0.000
 H          0.027  0.028  0.004    0.023  0.001 -0.018    0.001  0.001  0.000
 H          0.026 -0.019  0.040    0.006  0.003  0.003   -0.000 -0.000 -0.000
 H         -0.033 -0.015  0.029   -0.012  0.006  0.036    0.000 -0.000 -0.000
 H          0.027  0.013  0.003    0.009  0.004  0.000   -0.000 -0.000  0.000
 H          0.002  0.001  0.023   -0.001 -0.001  0.002    0.000  0.000 -0.000
 H          0.002  0.032  0.038    0.007  0.003  0.004   -0.000  0.000 -0.000
 H         -0.033 -0.013  0.026   -0.004 -0.012  0.037   -0.000  0.000 -0.000
 H         -0.023  0.006 -0.060   -0.025  0.001 -0.027   -0.000 -0.000 -0.000
 N         -0.100 -0.039 -0.169   -0.103 -0.039 -0.009    0.004  0.001  0.014
 H          0.289  0.112  0.825   -0.242 -0.087 -0.346   -0.017 -0.006 -0.062
 C          0.045  0.017  0.090    0.629  0.231 -0.026    0.063  0.022 -0.184
 H         -0.030 -0.010  0.128   -0.065 -0.027 -0.411   -0.255 -0.088  0.940
 O          0.005  0.002 -0.013   -0.365 -0.134  0.100   -0.017 -0.006  0.010
 TransDip   0.286  0.109  0.373    0.769  0.287  0.234    0.148  0.053 -0.283

 Mode:                49                     50                     51
 Frequency:      3009.93                3012.82                3014.71
 Force Cnst:      5.7017                 5.7080                 5.7344
 Red. Mass:       1.0682                 1.0673                 1.0709
 IR Active:          YES                    YES                    YES
 IR Intens:       24.088                 31.015                 44.386
 Raman Active:       YES                    YES                    YES
               X      Y      Z        X      Y      Z        X      Y      Z
 C          0.026  0.026 -0.018    0.018  0.020 -0.013   -0.033 -0.030  0.020
 C          0.001 -0.000 -0.000   -0.004 -0.002  0.000    0.006  0.003 -0.000
 C         -0.052 -0.003  0.024    0.017 -0.001 -0.008   -0.034 -0.003  0.015
 C          0.015  0.006 -0.005    0.013  0.006 -0.003    0.018  0.006 -0.004
 C          0.003  0.001  0.001   -0.056 -0.025 -0.011   -0.027 -0.012 -0.000
 C         -0.013 -0.005  0.004    0.009  0.004 -0.002    0.023  0.011 -0.006
 H         -0.037 -0.224 -0.082    0.014  0.094  0.032   -0.020 -0.125 -0.046
 H         -0.016 -0.006  0.003    0.052  0.023 -0.011   -0.077 -0.034  0.016
 H         -0.456 -0.221  0.144   -0.333 -0.162  0.102    0.545  0.267 -0.172
 H          0.136 -0.086  0.062    0.115 -0.075  0.051   -0.144  0.092 -0.066
 H         -0.176 -0.089  0.056   -0.150 -0.077  0.048   -0.199 -0.102  0.064
 H         -0.003  0.009 -0.002   -0.006  0.005 -0.009   -0.026  0.023 -0.015
 H          0.002  0.004 -0.019   -0.045 -0.016  0.274   -0.013 -0.005  0.071
 H         -0.038 -0.014  0.008    0.713  0.315 -0.155    0.342  0.150 -0.071
 H          0.166  0.063 -0.050   -0.107 -0.040  0.033   -0.284 -0.106  0.085
 H         -0.004 -0.002 -0.001   -0.002 -0.012 -0.010    0.003 -0.023 -0.010
 H          0.665  0.261 -0.201   -0.216 -0.084  0.063    0.432  0.167 -0.130
 N         -0.000  0.000 -0.000   -0.000 -0.000  0.000   -0.000 -0.000 -0.000
 H         -0.001  0.002 -0.001   -0.000  0.000  0.002   -0.000 -0.000 -0.004
 C          0.000  0.000 -0.000   -0.000 -0.000  0.000    0.001  0.000 -0.000
 H          0.000 -0.000 -0.000    0.000 -0.000  0.000   -0.000 -0.000 -0.001
 O         -0.000  0.000  0.000    0.000  0.000 -0.000   -0.000 -0.000  0.000
 TransDip  -0.086  0.128  0.029   -0.031  0.004 -0.176   -0.178 -0.101  0.062

 Mode:                52                     53                     54
 Frequency:      3020.46                3022.13                3063.42
 Force Cnst:      5.7141                 5.7108                 6.0443
 Red. Mass:       1.0630                 1.0613                 1.0932
 IR Active:          YES                    YES                    YES
 IR Intens:       16.903                 92.334                105.246
 Raman Active:       YES                    YES                    YES
               X      Y      Z        X      Y      Z        X      Y      Z
 C         -0.003 -0.012  0.008   -0.000 -0.010  0.007   -0.015  0.004 -0.002
 C          0.000 -0.000 -0.000    0.002  0.001 -0.001    0.006  0.003 -0.001
 C          0.008 -0.007 -0.007   -0.007  0.007  0.006   -0.008 -0.016 -0.003
 C          0.024  0.035 -0.023   -0.017 -0.034  0.022   -0.014  0.013 -0.009
 C          0.000 -0.001  0.000   -0.013 -0.006 -0.023    0.026  0.011 -0.073
 C         -0.042  0.007  0.022   -0.037  0.011  0.021   -0.000 -0.022 -0.009
 H          0.015  0.127  0.046   -0.014 -0.120 -0.044    0.016  0.166  0.064
 H         -0.004  0.001  0.001   -0.031 -0.014  0.008   -0.071 -0.031  0.016
 H          0.140  0.066 -0.043    0.105  0.049 -0.032    0.068  0.036 -0.023
 H         -0.111  0.078 -0.052   -0.100  0.071 -0.048    0.110 -0.081  0.056
 H         -0.526 -0.257  0.164    0.462  0.227 -0.142   -0.022 -0.009  0.004
 H          0.237 -0.162  0.109   -0.253  0.177 -0.118    0.193 -0.145  0.096
 H         -0.002  0.004 -0.001   -0.041 -0.014  0.322   -0.090 -0.029  0.833
 H          0.003 -0.000 -0.000    0.186  0.082 -0.046   -0.227 -0.100  0.036
 H          0.534  0.209 -0.160    0.476  0.186 -0.140   -0.012 -0.007  0.001
 H         -0.038 -0.288 -0.104   -0.037 -0.311 -0.113    0.024  0.272  0.102
 H         -0.112 -0.046  0.033    0.093  0.038 -0.028    0.077  0.027 -0.024
 N         -0.000  0.000 -0.000    0.000  0.000  0.000   -0.000 -0.000 -0.000
 H          0.000 -0.001  0.000    0.000  0.000 -0.002    0.001  0.000 -0.001
 C          0.000  0.000 -0.000   -0.000 -0.000 -0.000    0.000  0.000  0.000
 H          0.000 -0.000 -0.000    0.000  0.000  0.000   -0.000 -0.000 -0.000
 O         -0.000 -0.000  0.000    0.000  0.000  0.000   -0.000 -0.000  0.000
 TransDip  -0.058  0.118  0.001   -0.253 -0.112  0.135   -0.032 -0.032 -0.325

 Mode:                55                     56                     57
 Frequency:      3064.72                3068.59                3070.39
 Force Cnst:      6.0746                 6.0973                 6.0814
 Red. Mass:       1.0977                 1.0990                 1.0949
 IR Active:          YES                    YES                    YES
 IR Intens:       95.762                 73.793                 61.092
 Raman Active:       YES                    YES                    YES
               X      Y      Z        X      Y      Z        X      Y      Z
 C          0.004 -0.008  0.005    0.008 -0.011  0.007   -0.029  0.013 -0.009
 C         -0.000  0.001 -0.000   -0.000 -0.000  0.001    0.022  0.010 -0.006
 C          0.003 -0.009 -0.005   -0.001  0.017  0.008   -0.023 -0.064 -0.017
 C          0.058 -0.020  0.014   -0.054  0.016 -0.011   -0.019 -0.005  0.003
 C         -0.001 -0.001  0.002   -0.024 -0.010  0.019   -0.013 -0.005  0.024
 C         -0.025 -0.056 -0.012   -0.025 -0.051 -0.009   -0.010 -0.004  0.003
 H          0.013  0.123  0.049   -0.022 -0.217 -0.085    0.070  0.686  0.270
 H         -0.001  0.001  0.000    0.012  0.005 -0.002   -0.281 -0.124  0.065
 H          0.045  0.020 -0.014    0.042  0.019 -0.014    0.083  0.046 -0.031
 H         -0.098  0.071 -0.051   -0.137  0.100 -0.070    0.267 -0.195  0.138
 H         -0.225 -0.121  0.078    0.237  0.129 -0.080    0.173  0.090 -0.057
 H         -0.473  0.355 -0.238    0.415 -0.313  0.208    0.047 -0.036  0.024
 H          0.003  0.000 -0.026    0.020  0.006 -0.188    0.028  0.009 -0.258
 H          0.010  0.002 -0.002    0.254  0.112 -0.049    0.129  0.058 -0.022
 H          0.250  0.087 -0.079    0.262  0.090 -0.081    0.110  0.040 -0.033
 H          0.051  0.587  0.223    0.044  0.518  0.196    0.001  0.013  0.005
 H         -0.043 -0.018  0.014    0.025  0.012 -0.008    0.217  0.073 -0.072
 N          0.000 -0.000  0.000   -0.000 -0.000 -0.000   -0.000  0.000  0.000
 H          0.000 -0.000  0.000   -0.000 -0.000 -0.001    0.004  0.001 -0.002
 C          0.000 -0.000  0.000    0.000  0.000  0.000    0.000  0.000  0.000
 H         -0.000  0.000  0.000   -0.000 -0.000 -0.000    0.000  0.000 -0.000
 O         -0.000  0.000  0.000   -0.000 -0.000 -0.000   -0.000  0.000  0.000
 TransDip   0.123 -0.288  0.013   -0.255 -0.101  0.019   -0.196 -0.156 -0.012

 Mode:                58                     59                     60
 Frequency:      3072.07                3098.07                3584.86
 Force Cnst:      6.1016                 6.1525                 8.1634
 Red. Mass:       1.0973                 1.0880                 1.0781
 IR Active:          YES                    YES                    YES
 IR Intens:       48.458                 41.786                 40.135
 Raman Active:       YES                    YES                    YES
               X      Y      Z        X      Y      Z        X      Y      Z
 C         -0.070  0.026 -0.019   -0.023  0.004 -0.003    0.000  0.000 -0.000
 C          0.007  0.004 -0.002   -0.071 -0.031  0.015   -0.001 -0.000 -0.001
 C          0.017  0.038  0.009   -0.012 -0.019 -0.002    0.000  0.000 -0.000
 C          0.009  0.000  0.000   -0.005 -0.001  0.001    0.000  0.000 -0.000
 C         -0.002 -0.002  0.005   -0.001 -0.001  0.002    0.000  0.000 -0.000
 C         -0.012 -0.008  0.002   -0.004 -0.003  0.001    0.000  0.000 -0.000
 H         -0.041 -0.405 -0.160    0.016  0.176  0.067   -0.000 -0.000  0.000
 H         -0.095 -0.040  0.022    0.836  0.367 -0.183    0.009  0.004 -0.005
 H          0.236  0.127 -0.084    0.126  0.069 -0.040   -0.000  0.001  0.001
 H          0.596 -0.436  0.308    0.145 -0.108  0.073   -0.000  0.000 -0.000
 H         -0.067 -0.034  0.023    0.048  0.025 -0.018   -0.000 -0.000 -0.000
 H         -0.045  0.034 -0.023    0.011 -0.007  0.004   -0.000  0.000  0.000
 H          0.005  0.004 -0.057    0.002  0.001 -0.019   -0.000 -0.000  0.000
 H          0.027  0.010 -0.004    0.017  0.007 -0.002   -0.000 -0.000  0.000
 H          0.138  0.051 -0.044    0.051  0.019 -0.018   -0.000 -0.000 -0.000
 H          0.003  0.048  0.018    0.002  0.012  0.004   -0.000 -0.000  0.000
 H         -0.155 -0.054  0.050    0.132  0.044 -0.038    0.000 -0.001  0.001
 N          0.000 -0.000  0.000    0.001  0.000  0.001   -0.064 -0.024  0.028
 H          0.001  0.000 -0.001   -0.010 -0.004 -0.001    0.859  0.322 -0.391
 C          0.000  0.000  0.000   -0.002 -0.001 -0.000    0.001  0.000  0.002
 H          0.000  0.000 -0.000    0.000 -0.000  0.001   -0.000 -0.000 -0.003
 O          0.000 -0.000  0.000    0.001  0.000 -0.001    0.001  0.000 -0.000
 TransDip  -0.144  0.169 -0.013   -0.177 -0.081  0.069    0.190  0.070 -0.015

 STANDARD THERMODYNAMIC QUANTITIES AT   298.18 K  AND     1.00 ATM

   This Molecule has  1 Imaginary Frequencies
   Zero point vibrational energy:      121.885 kcal/mol

   Atom    1 Element C  Has Mass   12.00000
   Atom    2 Element C  Has Mass   12.00000
   Atom    3 Element C  Has Mass   12.00000
   Atom    4 Element C  Has Mass   12.00000
   Atom    5 Element C  Has Mass   12.00000
   Atom    6 Element C  Has Mass   12.00000
   Atom    7 Element H  Has Mass    1.00783
   Atom    8 Element H  Has Mass    1.00783
   Atom    9 Element H  Has Mass    1.00783
   Atom   10 Element H  Has Mass    1.00783
   Atom   11 Element H  Has Mass    1.00783
   Atom   12 Element H  Has Mass    1.00783
   Atom   13 Element H  Has Mass    1.00783
   Atom   14 Element H  Has Mass    1.00783
   Atom   15 Element H  Has Mass    1.00783
   Atom   16 Element H  Has Mass    1.00783
   Atom   17 Element H  Has Mass    1.00783
   Atom   18 Element N  Has Mass   14.00307
   Atom   19 Element H  Has Mass    1.00783
   Atom   20 Element C  Has Mass   12.00000
   Atom   21 Element H  Has Mass    2.01410
   Atom   22 Element O  Has Mass   15.99491
   Molecular Mass:   128.106042 amu
   Principal axes and moments of inertia in amu*Bohr^2:
                             1           2           3
    Eigenvalues --      538.87161  2026.10006  2226.32642
          X               0.39119    -0.42948     0.81395
          Y               0.16032     0.90271     0.39926
          Z               0.90624     0.02569    -0.42199
   Rotational Symmetry Number is   1
   The Molecule is an Asymmetric Top
   Translational Enthalpy:        0.889 kcal/mol
   Rotational Enthalpy:           0.889 kcal/mol
   Vibrational Enthalpy:        125.177 kcal/mol
   gas constant (RT):             0.593 kcal/mol
   Translational Entropy:        40.457  cal/mol.K
   Rotational Entropy:           29.276  cal/mol.K
   Vibrational Entropy:          18.154  cal/mol.K

   Total Enthalpy:              127.548 kcal/mol
   Total Entropy:                87.886  cal/mol.K
Archival summary:
1\1\node023\FREQ\ProcedureUnspecified\6-31+G*\11713\ymao90\ThuApr815:43:342021ThuApr815:43:342021\0\\#,FREQ,ProcedureUnspecified,6-31+G*,\\0,1\N\H,1,1.01455\C,1,1.35074,2,116.961\H,3,1.10396,1,112.53,2,0.637434,0\O,3,1.23384,1,125.887,2,-179.464,0\C,1,1.46583,2,117.813,3,-179.174,0\H,6,1.09474,1,105.692,2,-176.918,0\C,6,1.5389,1,110.7,2,-58.9681,0\H,8,1.09731,6,109.417,1,-58.6956,0\H,8,1.1013,6,108.858,1,57.9335,0\C,8,1.53788,6,111.402,1,178.663,0\H,11,1.0977,8,109.673,6,-177.623,0\H,11,1.1003,8,109.117,6,65.9587,0\C,11,1.53687,8,111.656,6,-54.8951,0\H,14,1.09791,11,110.133,8,177.182,0\H,14,1.10081,11,109.258,8,-65.9512,0\C,14,1.53686,11,111.246,8,54.753,0\H,17,1.09771,14,110.42,11,-177.086,0\H,17,1.10032,14,109.247,11,65.9938,0\C,17,1.53782,14,111.608,11,-54.7881,0\H,20,1.09724,17,110.656,14,176.879,0\H,20,1.10114,17,109.463,14,-65.4035,0\\\@

 Total job time:  1212.78s(wall), 17149.80s(cpu) 
 Thu Apr  8 15:43:34 2021

        *************************************************************
        *                                                           *
        *  Thank you very much for using Q-Chem.  Have a nice day.  *
        *                                                           *
        *************************************************************


