                  Welcome to Q-Chem
     A Quantum Leap Into The Future Of Chemistry


 Q-Chem 5.2 (devel), Q-Chem, Inc., Pleasanton, CA (2019)

 Yihan Shao,  Zhengting Gan,  E. Epifanovsky,  A. T. B. Gilbert,  M. Wormit,  
 J. Kussmann,  A. W. Lange,  A. Behn,  Jia Deng,  Xintian Feng,  D. Ghosh,  
 M. Goldey,  P. R. Horn,  L. D. Jacobson,  I. Kaliman,  T. Kus,  A. Landau,  
 Jie Liu,  E. I. Proynov,  R. M. Richard,  R. P. Steele,  E. J. Sundstrom,  
 H. L. Woodcock III,  P. M. Zimmerman,  D. Zuev,  B. Alam,  B. Albrecht,  
 E. Alguire,  S. A. Baeppler,  D. Barton,  Z. Benda,  Y. A. Bernard,  
 E. J. Berquist,  K. B. Bravaya,  H. Burton,  K. Carter-Fenk,  D. Casanova,  
 Chun-Min Chang,  Yunqing Chen,  A. Chien,  K. D. Closser,  M. P. Coons,  
 S. Coriani,  S. Dasgupta,  A. L. Dempwolff,  M. Diedenhofen,  Hainam Do,  
 R. G. Edgar,  Po-Tung Fang,  S. Faraji,  S. Fatehi,  Qingguo Feng,  
 J. Fosso-Tande,  J. Gayvert,  Qinghui Ge,  A. Ghysels,  G. Gidofalvi,  
 J. Gomes,  J. Gonthier,  A. Gunina,  D. Hait,  M. W. D. Hanson-Heine,  
 P. H. P. Harbach,  A. W. Hauser,  M. F. Herbst,  J. E. Herr,  
 E. G. Hohenstein,  Z. C. Holden,  Kerwin Hui,  B. C. Huynh,  T.-C. Jagau,  
 Hyunjun Ji,  B. Kaduk,  K. Khistyaev,  Jaehoon Kim,  P. Klunzinger,  K. Koh,  
 D. Kosenkov,  L. Koulias,  T. Kowalczyk,  C. M. Krauter,  A. Kunitsa,  
 Ka Un Lao,  A. Laurent,  K. V. Lawler,  Joonho Lee,  D. Lefrancois,  
 S. Lehtola,  D. S. Levine,  Yi-Pei Li,  You-Sheng Lin,  Fenglai Liu,  
 Kuan-Yu Liu,  E. Livshits,  M. Loipersberger,  A. Luenser,  P. Manohar,  
 E. Mansoor,  S. F. Manzer,  Shan-Ping Mao,  Yuezhi Mao,  N. Mardirossian,  
 A. V. Marenich,  T. Markovich,  L. A. Martinez-Martinez,  S. A. Maurer,  
 N. J. Mayhall,  S. C. McKenzie,  J.-M. Mewes,  P. Morgante,  A. F. Morrison,  
 J. W. Mullinax,  K. Nanda,  T. S. Nguyen-Beck,  R. Olivares-Amaya,  
 J. A. Parkhill,  S. K. Paul,  F. Pavosevic,  Zheng Pei,  T. M. Perrine,  
 F. Plasser,  P. Pokhilko,  S. Prager,  A. Prociuk,  E. Ramos,  B. Rana,  
 D. R. Rehn,  F. Rob,  M. Scheurer,  M. Schneider,  N. Sergueev,  
 S. M. Sharada,  S. Sharma,  D. W. Small,  T. Stauch,  C. J. Stein,  
 T. Stein,  Yu-Chuan Su,  S. P. Veccham,  Zhen Tao,  A. J. W. Thom,  
 A. Tkatchenko,  T. Tsuchimochi,  N. M. Tubman,  L. Vogt,  M. L. Vidal,  
 O. Vydrov,  M. A. Watson,  J. Wenzel,  M. de Wergifosse,  T. A. Wesolowski,  
 A. White,  J. Witte,  A. Yamada,  Jun Yang,  K. Yao,  S. Yeganeh,  
 S. R. Yost,  Zhi-Qiang You,  A. Zech,  Igor Ying Zhang,  Xing Zhang,  
 Yan Zhao,  Ying Zhu,  B. R. Brooks,  G. K. L. Chan,  C. J. Cramer,  
 M. S. Gordon,  W. J. Hehre,  A. Klamt,  M. W. Schmidt,  C. D. Sherrill,  
 D. G. Truhlar,  A. Aspuru-Guzik,  R. Baer,  A. T. Bell,  N. A. Besley,  
 Jeng-Da Chai,  A. E. DePrince, III,  R. A. DiStasio Jr.,  A. Dreuw,  
 B. D. Dunietz,  T. R. Furlani,  Chao-Ping Hsu,  Yousung Jung,  Jing Kong,  
 D. S. Lambrecht,  WanZhen Liang,  C. Ochsenfeld,  V. A. Rassolov,  
 L. V. Slipchenko,  J. E. Subotnik,  T. Van Voorhis,  J. M. Herbert,  
 A. I. Krylov,  P. M. W. Gill,  M. Head-Gordon

 Contributors to earlier versions of Q-Chem not listed above: 
 R. D. Adamson,  B. Austin,  J. Baker,  G. J. O. Beran,  K. Brandhorst,  
 S. T. Brown,  E. F. C. Byrd,  A. K. Chakraborty,  C.-L. Cheng,  
 Siu Hung Chien,  D. M. Chipman,  D. L. Crittenden,  H. Dachsel,  
 R. J. Doerksen,  A. D. Dutoi,  L. Fusti-Molnar,  W. A. Goddard III,  
 A. Golubeva-Zadorozhnaya,  S. R. Gwaltney,  G. Hawkins,  A. Heyden,  
 S. Hirata,  G. Kedziora,  F. J. Keil,  C. Kelley,  Jihan Kim,  R. A. King,  
 R. Z. Khaliullin,  P. P. Korambath,  W. Kurlancheek,  A. M. Lee,  M. S. Lee,  
 S. V. Levchenko,  Ching Yeh Lin,  D. Liotard,  R. C. Lochan,  I. Lotan,  
 P. E. Maslen,  N. Nair,  D. P. O'Neill,  D. Neuhauser,  E. Neuscamman,  
 C. M. Oana,  R. Olson,  B. Peters,  R. Peverati,  P. A. Pieniazek,  
 Y. M. Rhee,  J. Ritchie,  M. A. Rohrdanz,  E. Rosta,  N. J. Russ,  
 H. F. Schaefer III,  N. E. Schultz,  N. Shenvi,  A. C. Simmonett,  A. Sodt,  
 D. Stuck,  K. S. Thanthiriwatte,  V. Vanovschi,  Tao Wang,  A. Warshel,  
 C. F. Williams,  Q. Wu,  X. Xu,  W. Zhang

 Please cite Q-Chem as follows:
 Y. Shao et al., Mol. Phys. 113, 184-215 (2015)
 DOI: 10.1080/00268976.2014.952696

 Q-Chem 5.2.2 for Intel X86 EM64T Linux

 Parts of Q-Chem use Armadillo 9.800.1 (Horizon Scraper).
 http://arma.sourceforge.net/

 Q-Chem begins on Sun Mar  7 04:26:31 2021  

Host: node028
0

     Scratch files written to /home/ymao90/scratch/CCX_CD_+8020210307030514//

Checking the input file for inconsistencies... 	...done.

--------------------------------------------------------------
User input:
--------------------------------------------------------------
$molecule
0 1
C     -2.4083508923    0.9984834764   -2.3662547437
C     -1.5543120384   -0.2118403749   -1.9459885704
C     -2.2384976761   -1.5367925874   -2.3261896725
C     -2.5867463449   -1.5816552836   -3.8234193167
C     -3.4377297730   -0.3731774783   -4.2445934317
C     -2.7551397527    0.9499468362   -3.8636626912
H     -1.5849547626   -2.3750094827   -2.0545927530
H     -0.5831065672   -0.1532425547   -2.4485260558
H     -3.3388117820    1.0024650072   -1.7759883684
H     -1.8720534969    1.9234708349   -2.1213670712
H     -1.6555784977   -1.5918293252   -4.4093866053
H     -3.1102152921   -2.5181807775   -4.0551406051
H     -3.6290653549   -0.4033428377   -5.3251377272
H     -4.4201020066   -0.4306546907   -3.7508934023
H     -1.8320207629    1.0648782183   -4.4511997179
H     -3.3973970401    1.8010825553   -4.1242295555
H     -3.1618885583   -1.6469527918   -1.7346449512
N     -1.2474445251   -0.1731895513   -0.5151412109
H     -2.0131265263   -0.2687147311    0.1418849346
C      0.0000000000    0.0000000000    0.0000000000
H      0.0000000000    0.0000000000    1.1070732462
O      1.0278769477    0.1402881570   -0.6492362509
$end

$rem
JOBTYPE  OPT
METHOD  B3LYP
BASIS  6-31+G(D)
SYMMETRY  FALSE
SYM_IGNORE  TRUE
MEM_TOTAL  8000
MEM_STATIC  2000
MAX_SUB_FILE_NUM  16000
BASIS_LIN_DEP_THRESH  6
THRESH  14
SCF_CONVERGENCE  9
GEN_SCFMAN  TRUE
SCF_GUESS  SAD
FD_MAT_VEC_PROD  FALSE
XC_GRID  000099000590
NL_GRID  1
MAX_SCF_CYCLES  200
GEOM_OPT_TOL_GRADIENT  100
GEOM_OPT_TOL_DISPLACEMENT  100
GEOM_OPT_TOL_ENERGY  10
$end

$multipole_field
Z   -0.015558
$end


--------------------------------------------------------------
 ----------------------------------------------------------------
             Standard Nuclear Orientation (Angstroms)
    I     Atom           X                Y                Z
 ----------------------------------------------------------------
    1      C      -2.4083508923     0.9984834764    -2.3662547437
    2      C      -1.5543120384    -0.2118403749    -1.9459885704
    3      C      -2.2384976761    -1.5367925874    -2.3261896725
    4      C      -2.5867463449    -1.5816552836    -3.8234193167
    5      C      -3.4377297730    -0.3731774783    -4.2445934317
    6      C      -2.7551397527     0.9499468362    -3.8636626912
    7      H      -1.5849547626    -2.3750094827    -2.0545927530
    8      H      -0.5831065672    -0.1532425547    -2.4485260558
    9      H      -3.3388117820     1.0024650072    -1.7759883684
   10      H      -1.8720534969     1.9234708349    -2.1213670712
   11      H      -1.6555784977    -1.5918293252    -4.4093866053
   12      H      -3.1102152921    -2.5181807775    -4.0551406051
   13      H      -3.6290653549    -0.4033428377    -5.3251377272
   14      H      -4.4201020066    -0.4306546907    -3.7508934023
   15      H      -1.8320207629     1.0648782183    -4.4511997179
   16      H      -3.3973970401     1.8010825553    -4.1242295555
   17      H      -3.1618885583    -1.6469527918    -1.7346449512
   18      N      -1.2474445251    -0.1731895513    -0.5151412109
   19      H      -2.0131265263    -0.2687147311     0.1418849346
   20      C       0.0000000000     0.0000000000     0.0000000000
   21      H       0.0000000000     0.0000000000     1.1070732462
   22      O       1.0278769477     0.1402881570    -0.6492362509
 ----------------------------------------------------------------
 Nuclear Repulsion Energy =         466.63298041 hartrees
 There are       35 alpha and       35 beta electrons
 Requested basis set is 6-31+G(d)
 There are 71 shells and 197 basis functions

 Total QAlloc Memory Limit   8000 MB
 Mega-Array Size      1956 MB
 MEM_STATIC part      2000 MB
 Applying Cartesian multipole field
    Component          Value
    ---------          -----
     (0,0,1)       -1.55580E-02
 Nucleus-field energy     =     4.5636024567 hartrees
 A cutoff of  1.0D-14 yielded   2413 shell pairs
 There are     18998 function pairs
 Smallest overlap matrix eigenvalue = 2.48E-05
 Guess from superposition of atomic densities
 Warning:  Energy on first SCF cycle will be non-variational
 SAD guess density has 70.000000 electrons

 -----------------------------------------------------------------------
  General SCF calculation program by
  Eric Jon Sundstrom, Paul Horn, Yuezhi Mao, Dmitri Zuev, Alec White,
  David Stuck, Shaama M.S., Shane Yost, Joonho Lee, David Small,
  Daniel Levine, Susi Lehtola, Hugh Burton, Evgeny Epifanovsky,
  Bang C. Huynh
 -----------------------------------------------------------------------
 Exchange:     0.2000 Hartree-Fock + 0.0800 Slater + 0.7200 B88
 Correlation:  0.1900 VWN1RPA + 0.8100 LYP
 Using Euler-Maclaurin-Lebedev (99,590) quadrature formula
 using 16 threads for integral computing
 -------------------------------------------------------
 OpenMP Integral computing Module                
 Release: version 2.0, May 2017, Q-Chem Inc. Pleasanton 
 -------------------------------------------------------
 A restricted SCF calculation will be
 performed using DIIS
 SCF converges when DIIS error is below 1.0e-09
 ---------------------------------------
  Cycle       Energy         DIIS error
 ---------------------------------------
    1    -406.2319617899      5.08e-02  
    2    -404.3794754629      6.81e-03  
    3    -403.9586011168      1.23e-02  
    4    -404.5700474560      2.66e-03  
    5    -404.5980517196      6.79e-04  
    6    -404.5998929884      1.86e-04  
    7    -404.6000317065      6.83e-05  
    8    -404.6000516291      1.26e-05  
    9    -404.6000522481      4.63e-06  
   10    -404.6000523379      8.29e-07  
   11    -404.6000523406      3.17e-07  
   12    -404.6000523410      5.47e-08  
   13    -404.6000523411      1.47e-08  
   14    -404.6000523411      4.72e-09  
   15    -404.6000523411      1.47e-09  
   16    -404.6000523411      3.10e-10  Convergence criterion met
 ---------------------------------------
 SCF time:   CPU 788.76s  wall 50.00s 
 SCF   energy in the final basis set =     -404.6000523411
 Total energy in the final basis set =     -404.6000523411
 
 --------------------------------------------------------------
 
                    Orbital Energies (a.u.)
 --------------------------------------------------------------
 
 Alpha MOs
 -- Occupied --
-19.1530 -14.4050 -10.3129 -10.3009 -10.2947 -10.2936 -10.2935 -10.2664
-10.2657  -1.0642  -0.9729  -0.9212  -0.8404  -0.8267  -0.7151  -0.7080
 -0.6577  -0.6372  -0.5890  -0.5636  -0.5387  -0.5354  -0.5223  -0.4892
 -0.4849  -0.4785  -0.4504  -0.4417  -0.4400  -0.4267  -0.4190  -0.4051
 -0.3964  -0.2972  -0.2862
 -- Virtual --
 -0.1484  -0.1170  -0.1066  -0.0800  -0.0578  -0.0504  -0.0478  -0.0398
 -0.0241  -0.0147  -0.0075  -0.0051   0.0048   0.0160   0.0212   0.0238
  0.0244   0.0464   0.0599   0.0638   0.0695   0.0740   0.0824   0.0875
  0.0912   0.0962   0.1105   0.1138   0.1192   0.1206   0.1300   0.1374
  0.1453   0.1537   0.1570   0.1761   0.1865   0.1924   0.1983   0.2063
  0.2071   0.2201   0.2303   0.2353   0.2432   0.2477   0.2664   0.2683
  0.2695   0.2741   0.2815   0.2943   0.3118   0.3241   0.3395   0.3543
  0.3815   0.3944   0.4670   0.5192   0.5367   0.5484   0.5614   0.5808
  0.5865   0.6102   0.6261   0.6473   0.6687   0.6774   0.7034   0.7073
  0.7346   0.7366   0.7599   0.7775   0.7886   0.8533   0.8684   0.8725
  0.9053   0.9066   0.9370   0.9649   0.9793   0.9853   0.9970   1.0069
  1.0226   1.0256   1.0453   1.0622   1.0806   1.0893   1.1005   1.1259
  1.1629   1.2261   1.2593   1.2744   1.2991   1.3126   1.3192   1.3499
  1.4227   1.4300   1.4348   1.4747   1.5230   1.5575   1.6354   1.6460
  1.6493   1.6727   1.7216   1.7365   1.8030   1.8052   1.8126   1.8224
  1.8308   1.8912   1.8970   1.9177   1.9226   1.9619   1.9851   1.9995
  2.0182   2.0686   2.1163   2.1482   2.2011   2.2465   2.2548   2.2611
  2.2977   2.3192   2.3215   2.3595   2.3732   2.5010   2.5200   2.5537
  2.5737   2.6278   2.6321   2.6583   2.7120   2.7586   2.8202   2.9879
  3.1589   4.0335   4.1198   4.1939   4.1970   4.2583   4.3964   4.4899
  4.5113   4.5980
 --------------------------------------------------------------
 
          Ground-State Mulliken Net Atomic Charges

     Atom                 Charge (a.u.)
  ----------------------------------------
      1 C                    -0.203769
      2 C                    -0.564342
      3 C                    -0.236617
      4 C                    -0.453434
      5 C                    -0.362314
      6 C                    -0.456496
      7 H                     0.230769
      8 H                     0.225130
      9 H                     0.223949
     10 H                     0.229604
     11 H                     0.172876
     12 H                     0.179284
     13 H                     0.131429
     14 H                     0.213066
     15 H                     0.172786
     16 H                     0.177610
     17 H                     0.223491
     18 N                    -0.391472
     19 H                     0.429530
     20 C                     0.346922
     21 H                     0.219045
     22 O                    -0.507047
  ----------------------------------------
  Sum of atomic charges =     0.000000

 -----------------------------------------------------------------
                    Cartesian Multipole Moments
 -----------------------------------------------------------------
    Charge (ESU x 10^10)
                 0.0000
    Dipole Moment (Debye)
         X      -3.6570      Y      -0.5018      Z       4.0618
       Tot       5.4885
    Quadrupole Moments (Debye-Ang)
        XX     -57.2251     XY       0.0333     YY     -57.3445
        XZ      -4.6383     YZ      -0.4235     ZZ     -70.1487
    Octopole Moments (Debye-Ang^2)
       XXX     296.2706    XXY      10.2841    XYY     103.1880
       YYY      36.3155    XXZ     155.6057    XYZ       2.3540
       YYZ     135.6092    XZZ     143.0851    YZZ      16.2104
       ZZZ     476.0417
    Hexadecapole Moments (Debye-Ang^3)
      XXXX   -1800.3221   XXXY     -87.6801   XXYY    -372.4655
      XYYY     -91.0553   YYYY    -407.2861   XXXZ   -1078.6159
      XXYZ     -44.3634   XYYZ    -345.4666   YYYZ    -117.6199
      XXZZ    -900.9454   XYZZ     -43.3136   YYZZ    -551.9857
      XZZZ   -1253.3608   YZZZ    -139.9369   ZZZZ   -3159.8413
 -----------------------------------------------------------------
 Calculating analytic gradient of the SCF energy
 Gradient of SCF Energy
            1           2           3           4           5           6
    1   0.0009596  -0.0020087   0.0009883   0.0010943  -0.0002149   0.0011163
    2   0.0001037  -0.0001578   0.0000810   0.0002846  -0.0000304  -0.0002394
    3  -0.0008819  -0.0084182  -0.0008870  -0.0015719  -0.0026411  -0.0015741
            7           8           9          10          11          12
    1   0.0008206  -0.0015451  -0.0012550   0.0006743  -0.0019440   0.0011221
    2  -0.0005765  -0.0001722  -0.0007238   0.0006206  -0.0005873   0.0012282
    3  -0.0001502   0.0000630   0.0007746  -0.0001687   0.0011645   0.0002931
           13          14          15          16          17          18
    1   0.0011317  -0.0008475  -0.0020491   0.0013432  -0.0013669   0.0076375
    2   0.0001553  -0.0000555   0.0003808  -0.0011438   0.0006061   0.0009757
    3   0.0046221  -0.0001717   0.0011522   0.0003912   0.0007878   0.0101940
           19          20          21          22
    1  -0.0000083  -0.0066045  -0.0004358   0.0013919
    2   0.0000049  -0.0008231  -0.0000758   0.0001448
    3  -0.0019514  -0.0130604   0.0030364   0.0089979
 Max gradient component =       1.306E-02
 RMS gradient           =       3.059E-03
 Gradient time:  CPU 125.60 s  wall 8.26 s
 Geometry Optimization Parameters
   NAtoms,    NIC,     NZ,  NCons,   NDum,   NFix, NCnnct, MaxDiis
       22     172       0       0       0       0       0       0


** GEOMETRY OPTIMIZATION IN DELOCALIZED INTERNAL COORDINATES **
   Searching for a Minimum

   Optimization Cycle:   1

                       Coordinates (Angstroms)
     ATOM                X               Y               Z
      1  C        -2.4083508923    0.9984834764   -2.3662547437
      2  C        -1.5543120384   -0.2118403749   -1.9459885704
      3  C        -2.2384976761   -1.5367925874   -2.3261896725
      4  C        -2.5867463449   -1.5816552836   -3.8234193167
      5  C        -3.4377297730   -0.3731774783   -4.2445934317
      6  C        -2.7551397527    0.9499468362   -3.8636626912
      7  H        -1.5849547626   -2.3750094827   -2.0545927530
      8  H        -0.5831065672   -0.1532425547   -2.4485260558
      9  H        -3.3388117820    1.0024650072   -1.7759883684
     10  H        -1.8720534969    1.9234708349   -2.1213670712
     11  H        -1.6555784977   -1.5918293252   -4.4093866053
     12  H        -3.1102152921   -2.5181807775   -4.0551406051
     13  H        -3.6290653549   -0.4033428377   -5.3251377272
     14  H        -4.4201020066   -0.4306546907   -3.7508934023
     15  H        -1.8320207629    1.0648782183   -4.4511997179
     16  H        -3.3973970401    1.8010825553   -4.1242295555
     17  H        -3.1618885583   -1.6469527918   -1.7346449512
     18  N        -1.2474445251   -0.1731895513   -0.5151412109
     19  H        -2.0131265263   -0.2687147311    0.1418849346
     20  C         0.0000000000    0.0000000000    0.0000000000
     21  H         0.0000000000    0.0000000000    1.1070732462
     22  O         1.0278769477    0.1402881570   -0.6492362509
   Point Group: c1    Number of degrees of freedom:    60


   Energy is   -404.600052341


 Attempting to generate delocalized internal coordinates
 Initial Hessian constructed with Jon Baker's OPTIMIZE code

 60 Hessian modes will be used to form the next step
  Hessian Eigenvalues:
     0.005967    0.006024    0.006964    0.007193    0.012605    0.019501
     0.019786    0.020845    0.020845    0.037215    0.038526    0.039417
     0.041724    0.048166    0.048450    0.048891    0.055292    0.055631
     0.055746    0.059934    0.066958    0.081508    0.081536    0.081616
     0.082032    0.082133    0.084029    0.087513    0.120967    0.121178
     0.142989    0.159989    0.160000    0.160554    0.174868    0.210947
     0.220000    0.220003    0.272263    0.272658    0.275535    0.286789
     0.287121    0.287175    0.329119    0.334466    0.334727    0.335769
     0.336541    0.336553    0.339301    0.339441    0.339454    0.340119
     0.340274    0.342312    0.364811    0.454000    0.528079    0.937134

 Minimum search - taking simple RFO step
 Searching for Lamda that Minimizes Along All modes
 Value Taken    Lamda =  -0.00400628
 Step Taken.  Stepsize is  0.273441

                             Maximum     Tolerance    Cnvgd?
         Gradient           0.021353      0.000100      NO
         Displacement       0.176880      0.000100      NO
         Energy change     *********      0.000000      NO


 New Cartesian Coordinates Obtained by Inverse Iteration

 Displacement from previous Coordinates is:  0.916722
 ----------------------------------------------------------------
             Standard Nuclear Orientation (Angstroms)
    I     Atom           X                Y                Z
 ----------------------------------------------------------------
    1      C      -2.4661669057     0.9913154610    -2.3250632803
    2      C      -1.6208084480    -0.2196387795    -1.8897315712
    3      C      -2.2979772708    -1.5424111841    -2.2892790061
    4      C      -2.5651852737    -1.5835641612    -3.8054476566
    5      C      -3.3828550554    -0.3679566222    -4.2782283594
    6      C      -2.7324775775     0.9568856407    -3.8412164417
    7      H      -1.6602317232    -2.3812416896    -1.9891631833
    8      H      -0.6489207029    -0.1601537695    -2.3952509276
    9      H      -3.4200407476     0.9911897564    -1.7780139898
   10      H      -1.9444708146     1.9139125065    -2.0475049025
   11      H      -1.5973624806    -1.5918241435    -4.3366000930
   12      H      -3.0784853378    -2.5191967459    -4.0723296391
   13      H      -3.5048371242    -0.3915394877    -5.3764997641
   14      H      -4.3932759090    -0.4283800383    -3.8489362756
   15      H      -1.7727354099     1.0774597100    -4.3735130332
   16      H      -3.3634705728     1.8096943243    -4.1330318003
   17      H      -3.2449559206    -1.6544015864    -1.7413839223
   18      N      -1.2657787813    -0.1763624529    -0.4803345714
   19      H      -1.9826074361    -0.2666613788     0.2328198170
   20      C       0.0297327038     0.0037992945    -0.0871525208
   21      H       0.1655604250     0.0217926310     1.0069387614
   22      O       0.9486856607     0.1333153337    -0.8877121602
 ----------------------------------------------------------------
 Nuclear Repulsion Energy =         468.81961608 hartrees
 There are       35 alpha and       35 beta electrons
 Applying Cartesian multipole field
    Component          Value
    ---------          -----
     (0,0,1)       -1.55580E-02
 Nucleus-field energy     =     4.5986048653 hartrees
 Requested basis set is 6-31+G(d)
 There are 71 shells and 197 basis functions
 A cutoff of  1.0D-14 yielded   2418 shell pairs
 There are     19074 function pairs
 Smallest overlap matrix eigenvalue = 2.57E-05
 Guess MOs from SCF MO coefficient file

 -----------------------------------------------------------------------
  General SCF calculation program by
  Eric Jon Sundstrom, Paul Horn, Yuezhi Mao, Dmitri Zuev, Alec White,
  David Stuck, Shaama M.S., Shane Yost, Joonho Lee, David Small,
  Daniel Levine, Susi Lehtola, Hugh Burton, Evgeny Epifanovsky,
  Bang C. Huynh
 -----------------------------------------------------------------------
 Exchange:     0.2000 Hartree-Fock + 0.0800 Slater + 0.7200 B88
 Correlation:  0.1900 VWN1RPA + 0.8100 LYP
 Using Euler-Maclaurin-Lebedev (99,590) quadrature formula
 using 16 threads for integral computing
 -------------------------------------------------------
 OpenMP Integral computing Module                
 Release: version 2.0, May 2017, Q-Chem Inc. Pleasanton 
 -------------------------------------------------------
 A restricted SCF calculation will be
 performed using DIIS
 SCF converges when DIIS error is below 1.0e-09
 ---------------------------------------
  Cycle       Energy         DIIS error
 ---------------------------------------
    1    -404.5804607136      1.67e-03  
    2    -404.6017246304      2.81e-04  
    3    -404.6011533973      4.87e-04  
    4    -404.6020967812      9.00e-05  
    5    -404.6021232446      3.02e-05  
    6    -404.6021271064      4.52e-06  
    7    -404.6021271875      1.85e-06  
    8    -404.6021272028      3.42e-07  
    9    -404.6021272032      1.44e-07  
   10    -404.6021272033      1.90e-08  
   11    -404.6021272033      8.05e-09  
   12    -404.6021272033      1.36e-09  
   13    -404.6021272033      3.05e-10  Convergence criterion met
 ---------------------------------------
 SCF time:   CPU 636.75s  wall 41.00s 
 SCF   energy in the final basis set =     -404.6021272033
 Total energy in the final basis set =     -404.6021272033
 
 --------------------------------------------------------------
 
                    Orbital Energies (a.u.)
 --------------------------------------------------------------
 
 Alpha MOs
 -- Occupied --
-19.1568 -14.4045 -10.3169 -10.3003 -10.2919 -10.2919 -10.2885 -10.2631
-10.2624  -1.0701  -0.9706  -0.9180  -0.8370  -0.8232  -0.7118  -0.7049
 -0.6561  -0.6368  -0.5881  -0.5621  -0.5357  -0.5350  -0.5216  -0.4869
 -0.4850  -0.4758  -0.4507  -0.4403  -0.4392  -0.4267  -0.4165  -0.4013
 -0.3946  -0.2977  -0.2916
 -- Virtual --
 -0.1467  -0.1155  -0.1050  -0.0792  -0.0547  -0.0471  -0.0467  -0.0359
 -0.0237  -0.0150  -0.0115  -0.0031   0.0086   0.0191   0.0220   0.0246
  0.0257   0.0474   0.0619   0.0633   0.0711   0.0720   0.0844   0.0888
  0.0931   0.0979   0.1124   0.1156   0.1188   0.1197   0.1335   0.1401
  0.1433   0.1565   0.1587   0.1772   0.1883   0.1936   0.1984   0.2068
  0.2085   0.2234   0.2305   0.2374   0.2441   0.2481   0.2659   0.2682
  0.2706   0.2727   0.2832   0.2947   0.3093   0.3272   0.3342   0.3531
  0.3809   0.3926   0.4602   0.5237   0.5386   0.5557   0.5631   0.5840
  0.5911   0.6150   0.6271   0.6514   0.6715   0.6865   0.7087   0.7144
  0.7260   0.7390   0.7644   0.7720   0.7879   0.8484   0.8691   0.8705
  0.9004   0.9110   0.9375   0.9668   0.9759   0.9855   1.0005   1.0041
  1.0212   1.0272   1.0458   1.0672   1.0843   1.0896   1.1003   1.1220
  1.1575   1.2258   1.2594   1.2732   1.3030   1.3102   1.3310   1.3476
  1.4171   1.4330   1.4369   1.4642   1.5211   1.5377   1.6384   1.6548
  1.6588   1.6932   1.7270   1.7349   1.7976   1.8059   1.8205   1.8243
  1.8393   1.8799   1.9111   1.9206   1.9240   1.9641   1.9948   1.9983
  2.0329   2.0793   2.1246   2.1644   2.2031   2.2471   2.2634   2.2653
  2.2935   2.3215   2.3236   2.3559   2.3786   2.4971   2.5277   2.5494
  2.5705   2.6199   2.6350   2.6594   2.7166   2.7609   2.8249   2.9887
  3.1391   4.0342   4.1221   4.1957   4.1971   4.2556   4.3823   4.4974
  4.5162   4.6043
 --------------------------------------------------------------
 
          Ground-State Mulliken Net Atomic Charges

     Atom                 Charge (a.u.)
  ----------------------------------------
      1 C                    -0.219753
      2 C                    -0.552659
      3 C                    -0.257065
      4 C                    -0.433843
      5 C                    -0.371145
      6 C                    -0.435155
      7 H                     0.230732
      8 H                     0.232924
      9 H                     0.223025
     10 H                     0.229908
     11 H                     0.175848
     12 H                     0.175770
     13 H                     0.128561
     14 H                     0.209633
     15 H                     0.176049
     16 H                     0.174205
     17 H                     0.223016
     18 N                    -0.403135
     19 H                     0.432061
     20 C                     0.339810
     21 H                     0.225813
     22 O                    -0.504596
  ----------------------------------------
  Sum of atomic charges =     0.000000

 -----------------------------------------------------------------
                    Cartesian Multipole Moments
 -----------------------------------------------------------------
    Charge (ESU x 10^10)
                 0.0000
    Dipole Moment (Debye)
         X      -3.3056      Y      -0.4645      Z       4.6948
       Tot       5.7606
    Quadrupole Moments (Debye-Ang)
        XX     -57.2826     XY       0.0379     YY     -57.4737
        XZ      -4.5800     YZ      -0.4041     ZZ     -71.6108
    Octopole Moments (Debye-Ang^2)
       XXX     300.4164    XXY      10.5253    XYY     104.2021
       YYY      36.6671    XXZ     158.4259    XYZ       2.5741
       YYZ     137.0257    XZZ     144.6013    YZZ      16.3808
       ZZZ     482.7112
    Hexadecapole Moments (Debye-Ang^3)
      XXXX   -1804.1782   XXXY     -88.1001   XXYY    -373.4931
      XYYY     -91.4668   YYYY    -409.5215   XXXZ   -1073.6991
      XXYZ     -44.3777   XYYZ    -343.5200   YYYZ    -117.1256
      XXZZ    -904.3689   XYZZ     -43.8716   YYZZ    -552.7110
      XZZZ   -1252.3975   YZZZ    -140.1077   ZZZZ   -3171.3774
 -----------------------------------------------------------------
 Calculating analytic gradient of the SCF energy
 Gradient of SCF Energy
            1           2           3           4           5           6
    1   0.0002287  -0.0020042   0.0003548  -0.0006168   0.0004509  -0.0005968
    2   0.0002958   0.0000818  -0.0004535  -0.0001769   0.0000348   0.0000413
    3  -0.0004949  -0.0008761  -0.0006940   0.0001642  -0.0008859   0.0001496
            7           8           9          10          11          12
    1   0.0000477   0.0008992   0.0002839   0.0000531   0.0001852   0.0004330
    2   0.0002204   0.0000372  -0.0001810  -0.0001661   0.0000632  -0.0001088
    3  -0.0000052   0.0013480   0.0003047   0.0000147  -0.0002939  -0.0000128
           13          14          15          16          17          18
    1   0.0001107   0.0004930   0.0001998   0.0004045   0.0002319   0.0055453
    2   0.0000545   0.0000342  -0.0000222   0.0001965   0.0002432   0.0008222
    3   0.0002159  -0.0001853  -0.0002893   0.0000194   0.0003004  -0.0002064
           19          20          21          22
    1  -0.0007616   0.0007708  -0.0005969  -0.0061163
    2  -0.0000765  -0.0001889   0.0000342  -0.0007854
    3  -0.0003457  -0.0011689   0.0016533   0.0012883
 Max gradient component =       6.116E-03
 RMS gradient           =       1.160E-03
 Gradient time:  CPU 121.89 s  wall 8.39 s
 Geometry Optimization Parameters
   NAtoms,    NIC,     NZ,  NCons,   NDum,   NFix, NCnnct, MaxDiis
       22     172       0       0       0       0       0       0

 Cartesian Hessian Update
 Hessian updated using BFGS update


** GEOMETRY OPTIMIZATION IN DELOCALIZED INTERNAL COORDINATES **
   Searching for a Minimum

   Optimization Cycle:   2

                       Coordinates (Angstroms)
     ATOM                X               Y               Z
      1  C        -2.4661669057    0.9913154610   -2.3250632803
      2  C        -1.6208084480   -0.2196387795   -1.8897315712
      3  C        -2.2979772708   -1.5424111841   -2.2892790061
      4  C        -2.5651852737   -1.5835641612   -3.8054476566
      5  C        -3.3828550554   -0.3679566222   -4.2782283594
      6  C        -2.7324775775    0.9568856407   -3.8412164417
      7  H        -1.6602317232   -2.3812416896   -1.9891631833
      8  H        -0.6489207029   -0.1601537695   -2.3952509276
      9  H        -3.4200407476    0.9911897564   -1.7780139898
     10  H        -1.9444708146    1.9139125065   -2.0475049025
     11  H        -1.5973624806   -1.5918241435   -4.3366000930
     12  H        -3.0784853378   -2.5191967459   -4.0723296391
     13  H        -3.5048371242   -0.3915394877   -5.3764997641
     14  H        -4.3932759090   -0.4283800383   -3.8489362756
     15  H        -1.7727354099    1.0774597100   -4.3735130332
     16  H        -3.3634705728    1.8096943243   -4.1330318003
     17  H        -3.2449559206   -1.6544015864   -1.7413839223
     18  N        -1.2657787813   -0.1763624529   -0.4803345714
     19  H        -1.9826074361   -0.2666613788    0.2328198170
     20  C         0.0297327038    0.0037992945   -0.0871525208
     21  H         0.1655604250    0.0217926310    1.0069387614
     22  O         0.9486856607    0.1333153337   -0.8877121602
   Point Group: c1    Number of degrees of freedom:    60


   Energy is   -404.602127203

 Hessian updated using BFGS update

 60 Hessian modes will be used to form the next step
  Hessian Eigenvalues:
     0.005883    0.005977    0.006912    0.007194    0.012605    0.019464
     0.019507    0.020845    0.020856    0.036496    0.038623    0.039417
     0.042099    0.048337    0.048452    0.048899    0.055288    0.055713
     0.056013    0.059935    0.066955    0.081459    0.081535    0.081610
     0.082054    0.082135    0.084335    0.087503    0.120953    0.120990
     0.142968    0.158691    0.160034    0.160502    0.174866    0.206045
     0.211904    0.268193    0.272579    0.274203    0.275533    0.286775
     0.287163    0.288001    0.327066    0.334517    0.334826    0.335829
     0.336547    0.337341    0.338523    0.339448    0.339473    0.340184
     0.340403    0.342700    0.363111    0.453992    0.525306    0.937303

 Minimum search - taking simple RFO step
 Searching for Lamda that Minimizes Along All modes
 Value Taken    Lamda =  -0.00043810
 Step Taken.  Stepsize is  0.173607

                             Maximum     Tolerance    Cnvgd?
         Gradient           0.004105      0.000100      NO
         Displacement       0.072515      0.000100      NO
         Energy change     -0.002075      0.000000      NO


 New Cartesian Coordinates Obtained by Inverse Iteration

 Displacement from previous Coordinates is:  0.320657
 ----------------------------------------------------------------
             Standard Nuclear Orientation (Angstroms)
    I     Atom           X                Y                Z
 ----------------------------------------------------------------
    1      C      -2.4918431137     0.9852718001    -2.3103738188
    2      C      -1.6394198784    -0.2222374099    -1.8799137363
    3      C      -2.3255782952    -1.5411663629    -2.2752118007
    4      C      -2.5599443878    -1.5844637296    -3.7965925090
    5      C      -3.3626180035    -0.3662700530    -4.2897235210
    6      C      -2.7264159527     0.9589899094    -3.8316713315
    7      H      -1.7020127367    -2.3853152169    -1.9602806754
    8      H      -0.6805591996    -0.1637667443    -2.4093498169
    9      H      -3.4564348167     0.9726850981    -1.7826438112
   10      H      -1.9837329588     1.9106267841    -2.0170618741
   11      H      -1.5793320018    -1.5978853100    -4.3037781381
   12      H      -3.0727095049    -2.5173510096    -4.0749023398
   13      H      -3.4506400226    -0.3875093962    -5.3923997639
   14      H      -4.3862214352    -0.4276719028    -3.8920663579
   15      H      -1.7547557818     1.0867287511    -4.3402361780
   16      H      -3.3559290865     1.8095900424    -4.1338925850
   17      H      -3.2848813178    -1.6423646844    -1.7471618719
   18      N      -1.2573303645    -0.1770459118    -0.4789782775
   19      H      -1.9548131222    -0.2689072282     0.2529580593
   20      C       0.0517205710     0.0095172579    -0.1172474263
   21      H       0.2089337868     0.0235670011     0.9714799433
   22      O       0.9658529203     0.1410109338    -0.9275866896
 ----------------------------------------------------------------
 Nuclear Repulsion Energy =         468.67693631 hartrees
 There are       35 alpha and       35 beta electrons
 Applying Cartesian multipole field
    Component          Value
    ---------          -----
     (0,0,1)       -1.55580E-02
 Nucleus-field energy     =     4.6043103131 hartrees
 Requested basis set is 6-31+G(d)
 There are 71 shells and 197 basis functions
 A cutoff of  1.0D-14 yielded   2417 shell pairs
 There are     19073 function pairs
 Smallest overlap matrix eigenvalue = 2.64E-05
 Guess MOs from SCF MO coefficient file

 -----------------------------------------------------------------------
  General SCF calculation program by
  Eric Jon Sundstrom, Paul Horn, Yuezhi Mao, Dmitri Zuev, Alec White,
  David Stuck, Shaama M.S., Shane Yost, Joonho Lee, David Small,
  Daniel Levine, Susi Lehtola, Hugh Burton, Evgeny Epifanovsky,
  Bang C. Huynh
 -----------------------------------------------------------------------
 Exchange:     0.2000 Hartree-Fock + 0.0800 Slater + 0.7200 B88
 Correlation:  0.1900 VWN1RPA + 0.8100 LYP
 Using Euler-Maclaurin-Lebedev (99,590) quadrature formula
 using 16 threads for integral computing
 -------------------------------------------------------
 OpenMP Integral computing Module                
 Release: version 2.0, May 2017, Q-Chem Inc. Pleasanton 
 -------------------------------------------------------
 A restricted SCF calculation will be
 performed using DIIS
 SCF converges when DIIS error is below 1.0e-09
 ---------------------------------------
  Cycle       Energy         DIIS error
 ---------------------------------------
    1    -404.6010660739      3.80e-04  
    2    -404.6023294414      5.50e-05  
    3    -404.6023131042      9.45e-05  
    4    -404.6023475053      1.66e-05  
    5    -404.6023484740      5.29e-06  
    6    -404.6023485872      1.13e-06  
    7    -404.6023485915      4.78e-07  
    8    -404.6023485925      7.35e-08  
    9    -404.6023485925      2.53e-08  
   10    -404.6023485925      6.23e-09  
   11    -404.6023485925      1.83e-09  
   12    -404.6023485925      4.92e-10  Convergence criterion met
 ---------------------------------------
 SCF time:   CPU 584.82s  wall 37.00s 
 SCF   energy in the final basis set =     -404.6023485925
 Total energy in the final basis set =     -404.6023485925
 
 --------------------------------------------------------------
 
                    Orbital Energies (a.u.)
 --------------------------------------------------------------
 
 Alpha MOs
 -- Occupied --
-19.1586 -14.4056 -10.3182 -10.3007 -10.2918 -10.2917 -10.2888 -10.2630
-10.2621  -1.0689  -0.9712  -0.9181  -0.8369  -0.8232  -0.7114  -0.7043
 -0.6566  -0.6375  -0.5882  -0.5620  -0.5360  -0.5350  -0.5216  -0.4865
 -0.4852  -0.4757  -0.4508  -0.4405  -0.4394  -0.4260  -0.4163  -0.4025
 -0.3941  -0.2985  -0.2926
 -- Virtual --
 -0.1466  -0.1154  -0.1049  -0.0795  -0.0542  -0.0474  -0.0459  -0.0353
 -0.0242  -0.0162  -0.0119  -0.0032   0.0087   0.0197   0.0220   0.0242
  0.0260   0.0475   0.0621   0.0625   0.0702   0.0726   0.0841   0.0888
  0.0929   0.0987   0.1129   0.1159   0.1181   0.1195   0.1343   0.1401
  0.1422   0.1555   0.1600   0.1773   0.1868   0.1935   0.1983   0.2060
  0.2087   0.2242   0.2295   0.2383   0.2449   0.2485   0.2634   0.2682
  0.2708   0.2719   0.2827   0.2933   0.3088   0.3275   0.3321   0.3528
  0.3804   0.3898   0.4573   0.5236   0.5383   0.5569   0.5626   0.5847
  0.5914   0.6166   0.6266   0.6514   0.6719   0.6906   0.7084   0.7154
  0.7253   0.7372   0.7654   0.7704   0.7891   0.8490   0.8697   0.8712
  0.9004   0.9107   0.9376   0.9627   0.9731   0.9849   0.9995   1.0029
  1.0207   1.0275   1.0462   1.0685   1.0846   1.0910   1.1023   1.1210
  1.1590   1.2234   1.2577   1.2760   1.3025   1.3143   1.3361   1.3423
  1.4121   1.4305   1.4408   1.4609   1.5207   1.5393   1.6395   1.6545
  1.6579   1.6934   1.7237   1.7330   1.7959   1.8019   1.8209   1.8263
  1.8380   1.8819   1.9144   1.9206   1.9268   1.9644   1.9917   1.9935
  2.0354   2.0768   2.1272   2.1615   2.2049   2.2451   2.2565   2.2649
  2.2944   2.3211   2.3248   2.3536   2.3796   2.4989   2.5261   2.5476
  2.5705   2.6183   2.6331   2.6613   2.7132   2.7617   2.8254   2.9819
  3.1362   4.0353   4.1215   4.1943   4.1959   4.2537   4.3818   4.5007
  4.5189   4.6061
 --------------------------------------------------------------
 
          Ground-State Mulliken Net Atomic Charges

     Atom                 Charge (a.u.)
  ----------------------------------------
      1 C                    -0.223006
      2 C                    -0.556192
      3 C                    -0.260662
      4 C                    -0.426863
      5 C                    -0.376775
      6 C                    -0.427663
      7 H                     0.231365
      8 H                     0.230805
      9 H                     0.222978
     10 H                     0.230532
     11 H                     0.177641
     12 H                     0.174892
     13 H                     0.128173
     14 H                     0.208144
     15 H                     0.177913
     16 H                     0.173369
     17 H                     0.223175
     18 N                    -0.398410
     19 H                     0.433712
     20 C                     0.338191
     21 H                     0.224649
     22 O                    -0.505967
  ----------------------------------------
  Sum of atomic charges =     0.000000

 -----------------------------------------------------------------
                    Cartesian Multipole Moments
 -----------------------------------------------------------------
    Charge (ESU x 10^10)
                -0.0000
    Dipole Moment (Debye)
         X      -3.3138      Y      -0.4810      Z       4.7513
       Tot       5.8127
    Quadrupole Moments (Debye-Ang)
        XX     -57.2942     XY       0.0375     YY     -57.4938
        XZ      -4.4187     YZ      -0.3773     ZZ     -71.8378
    Octopole Moments (Debye-Ang^2)
       XXX     299.9453    XXY      10.3982    XYY     104.1016
       YYY      36.5335    XXZ     158.5718    XYZ       2.6031
       YYZ     137.2332    XZZ     144.2687    YZZ      16.2729
       ZZZ     483.5170
    Hexadecapole Moments (Debye-Ang^3)
      XXXX   -1807.0164   XXXY     -88.4189   XXYY    -374.1172
      XYYY     -91.9580   YYYY    -409.1490   XXXZ   -1069.6046
      XXYZ     -44.0943   XYYZ    -342.7698   YYYZ    -116.8161
      XXZZ    -903.9383   XYZZ     -44.0388   YYZZ    -552.0327
      XZZZ   -1250.3929   YZZZ    -139.7822   ZZZZ   -3169.4247
 -----------------------------------------------------------------
 Calculating analytic gradient of the SCF energy
 Gradient of SCF Energy
            1           2           3           4           5           6
    1  -0.0002355  -0.0001374  -0.0003622  -0.0001239   0.0002521  -0.0001254
    2  -0.0005331   0.0000159   0.0003544   0.0000209   0.0000213  -0.0000270
    3  -0.0000929  -0.0007188  -0.0002658   0.0004087  -0.0001452   0.0004066
            7           8           9          10          11          12
    1   0.0000096   0.0001856  -0.0000118   0.0000261   0.0005112   0.0002261
    2   0.0001821   0.0000444   0.0001077  -0.0001467   0.0000943  -0.0001117
    3   0.0000204   0.0004517  -0.0000438   0.0000544  -0.0001906  -0.0000702
           13          14          15          16          17          18
    1   0.0001850   0.0002607   0.0005145   0.0001959  -0.0000004  -0.0009402
    2   0.0000399   0.0000256  -0.0000068   0.0001786  -0.0001334  -0.0002008
    3  -0.0003663  -0.0002084  -0.0001651  -0.0000437  -0.0000489   0.0008330
           19          20          21          22
    1  -0.0008283   0.0002280  -0.0003797   0.0005499
    2  -0.0001394   0.0006946  -0.0002913  -0.0001897
    3  -0.0001537  -0.0000111   0.0000613   0.0002884
 Max gradient component =       9.402E-04
 RMS gradient           =       3.151E-04
 Gradient time:  CPU 121.91 s  wall 7.91 s
 Geometry Optimization Parameters
   NAtoms,    NIC,     NZ,  NCons,   NDum,   NFix, NCnnct, MaxDiis
       22     172       0       0       0       0       0       0

 Cartesian Hessian Update
 Hessian updated using BFGS update


** GEOMETRY OPTIMIZATION IN DELOCALIZED INTERNAL COORDINATES **
   Searching for a Minimum

   Optimization Cycle:   3

                       Coordinates (Angstroms)
     ATOM                X               Y               Z
      1  C        -2.4918431137    0.9852718001   -2.3103738188
      2  C        -1.6394198784   -0.2222374099   -1.8799137363
      3  C        -2.3255782952   -1.5411663629   -2.2752118007
      4  C        -2.5599443878   -1.5844637296   -3.7965925090
      5  C        -3.3626180035   -0.3662700530   -4.2897235210
      6  C        -2.7264159527    0.9589899094   -3.8316713315
      7  H        -1.7020127367   -2.3853152169   -1.9602806754
      8  H        -0.6805591996   -0.1637667443   -2.4093498169
      9  H        -3.4564348167    0.9726850981   -1.7826438112
     10  H        -1.9837329588    1.9106267841   -2.0170618741
     11  H        -1.5793320018   -1.5978853100   -4.3037781381
     12  H        -3.0727095049   -2.5173510096   -4.0749023398
     13  H        -3.4506400226   -0.3875093962   -5.3923997639
     14  H        -4.3862214352   -0.4276719028   -3.8920663579
     15  H        -1.7547557818    1.0867287511   -4.3402361780
     16  H        -3.3559290865    1.8095900424   -4.1338925850
     17  H        -3.2848813178   -1.6423646844   -1.7471618719
     18  N        -1.2573303645   -0.1770459118   -0.4789782775
     19  H        -1.9548131222   -0.2689072282    0.2529580593
     20  C         0.0517205710    0.0095172579   -0.1172474263
     21  H         0.2089337868    0.0235670011    0.9714799433
     22  O         0.9658529203    0.1410109338   -0.9275866896
   Point Group: c1    Number of degrees of freedom:    60


   Energy is   -404.602348592

 Hessian updated using BFGS update

 60 Hessian modes will be used to form the next step
  Hessian Eigenvalues:
     0.005303    0.005975    0.006872    0.007198    0.012606    0.019143
     0.019502    0.020843    0.021532    0.036486    0.038764    0.039419
     0.042194    0.048236    0.048452    0.048901    0.055293    0.055722
     0.055991    0.060023    0.066956    0.080792    0.081533    0.081607
     0.082059    0.082135    0.084217    0.087500    0.120204    0.120969
     0.142979    0.156381    0.160160    0.160632    0.174871    0.209333
     0.214360    0.269709    0.272581    0.275531    0.277048    0.286816
     0.287158    0.293266    0.330220    0.334549    0.334931    0.335907
     0.336547    0.337036    0.338698    0.339442    0.339455    0.340136
     0.340291    0.342599    0.363056    0.454062    0.553888    0.952091

 Minimum search - taking simple RFO step
 Searching for Lamda that Minimizes Along All modes
 Value Taken    Lamda =  -0.00003623
 Step Taken.  Stepsize is  0.050420

                             Maximum     Tolerance    Cnvgd?
         Gradient           0.001203      0.000100      NO
         Displacement       0.019762      0.000100      NO
         Energy change     -0.000221      0.000000      NO


 New Cartesian Coordinates Obtained by Inverse Iteration

 Displacement from previous Coordinates is:  0.079163
 ----------------------------------------------------------------
             Standard Nuclear Orientation (Angstroms)
    I     Atom           X                Y                Z
 ----------------------------------------------------------------
    1      C      -2.4942610843     0.9837897242    -2.3068966892
    2      C      -1.6421143251    -0.2254009572    -1.8775495287
    3      C      -2.3314589921    -1.5432583304    -2.2730644044
    4      C      -2.5606174892    -1.5854195482    -3.7957156225
    5      C      -3.3580669005    -0.3650017676    -4.2917540756
    6      C      -2.7236603726     0.9596031361    -3.8293919762
    7      H      -1.7135860057    -2.3908677158    -1.9555819827
    8      H      -0.6869828586    -0.1683071074    -2.4136828367
    9      H      -3.4612039491     0.9677315189    -1.7834990419
   10      H      -1.9893395768     1.9098814654    -2.0099310202
   11      H      -1.5784702107    -1.6026293988    -4.2984500663
   12      H      -3.0761794804    -2.5157741949    -4.0769216138
   13      H      -3.4379576235    -0.3850889503    -5.3947763643
   14      H      -4.3848698649    -0.4255159522    -3.9017792700
   15      H      -1.7506574073     1.0893842703    -4.3335141142
   16      H      -3.3532986156     1.8093277840    -4.1333337504
   17      H      -3.2938478632    -1.6391485410    -1.7496261230
   18      N      -1.2532594674    -0.1814035814    -0.4786383651
   19      H      -1.9448538568    -0.2744222052     0.2582941506
   20      C       0.0558637685     0.0089160745    -0.1215062412
   21      H       0.2163357132     0.0332914570     0.9666602173
   22      O       0.9638217600     0.1563454383    -0.9359758018
 ----------------------------------------------------------------
 Nuclear Repulsion Energy =         468.67489582 hartrees
 There are       35 alpha and       35 beta electrons
 Applying Cartesian multipole field
    Component          Value
    ---------          -----
     (0,0,1)       -1.55580E-02
 Nucleus-field energy     =     4.6052630694 hartrees
 Requested basis set is 6-31+G(d)
 There are 71 shells and 197 basis functions
 A cutoff of  1.0D-14 yielded   2418 shell pairs
 There are     19109 function pairs
 Smallest overlap matrix eigenvalue = 2.66E-05
 Guess MOs from SCF MO coefficient file

 -----------------------------------------------------------------------
  General SCF calculation program by
  Eric Jon Sundstrom, Paul Horn, Yuezhi Mao, Dmitri Zuev, Alec White,
  David Stuck, Shaama M.S., Shane Yost, Joonho Lee, David Small,
  Daniel Levine, Susi Lehtola, Hugh Burton, Evgeny Epifanovsky,
  Bang C. Huynh
 -----------------------------------------------------------------------
 Exchange:     0.2000 Hartree-Fock + 0.0800 Slater + 0.7200 B88
 Correlation:  0.1900 VWN1RPA + 0.8100 LYP
 Using Euler-Maclaurin-Lebedev (99,590) quadrature formula
 using 16 threads for integral computing
 -------------------------------------------------------
 OpenMP Integral computing Module                
 Release: version 2.0, May 2017, Q-Chem Inc. Pleasanton 
 -------------------------------------------------------
 A restricted SCF calculation will be
 performed using DIIS
 SCF converges when DIIS error is below 1.0e-09
 ---------------------------------------
  Cycle       Energy         DIIS error
 ---------------------------------------
    1    -404.6021505346      1.50e-04  
    2    -404.6023463961      2.10e-05  
    3    -404.6023484589      1.32e-05  
    4    -404.6023491645      5.22e-06  
    5    -404.6023492870      1.31e-06  
    6    -404.6023492916      8.41e-07  
    7    -404.6023492943      2.02e-07  
    8    -404.6023492944      5.46e-08  
    9    -404.6023492944      1.18e-08  
   10    -404.6023492944      3.94e-09  
   11    -404.6023492944      1.18e-09  
   12    -404.6023492944      2.84e-10  Convergence criterion met
 ---------------------------------------
 SCF time:   CPU 582.68s  wall 37.00s 
 SCF   energy in the final basis set =     -404.6023492944
 Total energy in the final basis set =     -404.6023492944
 
 --------------------------------------------------------------
 
                    Orbital Energies (a.u.)
 --------------------------------------------------------------
 
 Alpha MOs
 -- Occupied --
-19.1585 -14.4056 -10.3181 -10.3007 -10.2917 -10.2915 -10.2890 -10.2631
-10.2621  -1.0689  -0.9712  -0.9181  -0.8368  -0.8233  -0.7114  -0.7042
 -0.6568  -0.6373  -0.5882  -0.5620  -0.5361  -0.5351  -0.5216  -0.4866
 -0.4852  -0.4757  -0.4507  -0.4405  -0.4393  -0.4260  -0.4161  -0.4025
 -0.3942  -0.2986  -0.2925
 -- Virtual --
 -0.1465  -0.1153  -0.1048  -0.0795  -0.0541  -0.0474  -0.0458  -0.0351
 -0.0242  -0.0163  -0.0118  -0.0031   0.0088   0.0199   0.0220   0.0242
  0.0260   0.0475   0.0621   0.0624   0.0700   0.0727   0.0841   0.0888
  0.0930   0.0988   0.1128   0.1160   0.1181   0.1197   0.1344   0.1401
  0.1419   0.1554   0.1604   0.1773   0.1863   0.1934   0.1988   0.2059
  0.2088   0.2245   0.2293   0.2384   0.2448   0.2489   0.2632   0.2682
  0.2707   0.2718   0.2826   0.2930   0.3087   0.3276   0.3323   0.3531
  0.3804   0.3898   0.4571   0.5234   0.5383   0.5570   0.5625   0.5847
  0.5918   0.6169   0.6265   0.6513   0.6718   0.6914   0.7083   0.7159
  0.7247   0.7368   0.7656   0.7707   0.7895   0.8490   0.8697   0.8718
  0.9001   0.9107   0.9376   0.9616   0.9728   0.9845   0.9986   1.0034
  1.0209   1.0277   1.0466   1.0689   1.0845   1.0909   1.1027   1.1208
  1.1591   1.2231   1.2578   1.2763   1.3022   1.3149   1.3374   1.3427
  1.4111   1.4300   1.4410   1.4608   1.5206   1.5385   1.6393   1.6540
  1.6579   1.6942   1.7230   1.7334   1.7957   1.8016   1.8205   1.8261
  1.8391   1.8815   1.9143   1.9205   1.9276   1.9638   1.9908   1.9930
  2.0365   2.0770   2.1276   2.1609   2.2059   2.2454   2.2559   2.2659
  2.2949   2.3206   2.3253   2.3544   2.3800   2.4991   2.5258   2.5472
  2.5707   2.6176   2.6326   2.6615   2.7134   2.7616   2.8251   2.9821
  3.1365   4.0354   4.1215   4.1944   4.1957   4.2535   4.3813   4.5014
  4.5191   4.6056
 --------------------------------------------------------------
 
          Ground-State Mulliken Net Atomic Charges

     Atom                 Charge (a.u.)
  ----------------------------------------
      1 C                    -0.224714
      2 C                    -0.552381
      3 C                    -0.262037
      4 C                    -0.425958
      5 C                    -0.378573
      6 C                    -0.426548
      7 H                     0.231296
      8 H                     0.230290
      9 H                     0.222829
     10 H                     0.230790
     11 H                     0.178007
     12 H                     0.174674
     13 H                     0.128240
     14 H                     0.207819
     15 H                     0.178425
     16 H                     0.173244
     17 H                     0.223047
     18 N                    -0.397817
     19 H                     0.433703
     20 C                     0.337829
     21 H                     0.224643
     22 O                    -0.506807
  ----------------------------------------
  Sum of atomic charges =     0.000000

 -----------------------------------------------------------------
                    Cartesian Multipole Moments
 -----------------------------------------------------------------
    Charge (ESU x 10^10)
                -0.0000
    Dipole Moment (Debye)
         X      -3.3064      Y      -0.5081      Z       4.7642
       Tot       5.8213
    Quadrupole Moments (Debye-Ang)
        XX     -57.2965     XY      -0.0036     YY     -57.4970
        XZ      -4.3752     YZ      -0.3385     ZZ     -71.8451
    Octopole Moments (Debye-Ang^2)
       XXX     299.9458    XXY      10.3379    XYY     104.0669
       YYY      36.4705    XXZ     158.5054    XYZ       2.6671
       YYZ     137.2593    XZZ     144.1097    YZZ      16.2309
       ZZZ     483.4928
    Hexadecapole Moments (Debye-Ang^3)
      XXXX   -1806.5998   XXXY     -89.1989   XXYY    -374.2101
      XYYY     -92.7858   YYYY    -409.6256   XXXZ   -1068.4423
      XXYZ     -44.0875   XYYZ    -342.5944   YYYZ    -116.8689
      XXZZ    -903.2837   XYZZ     -44.3648   YYZZ    -551.9605
      XZZZ   -1249.4514   YZZZ    -139.8118   ZZZZ   -3168.2865
 -----------------------------------------------------------------
 Calculating analytic gradient of the SCF energy
 Gradient of SCF Energy
            1           2           3           4           5           6
    1  -0.0000132  -0.0000766   0.0000015   0.0001426   0.0001401   0.0001123
    2  -0.0002240   0.0001035   0.0001222   0.0000268   0.0000157   0.0000313
    3  -0.0001004  -0.0002470  -0.0001512   0.0000412  -0.0001249   0.0000515
            7           8           9          10          11          12
    1  -0.0000336  -0.0000731  -0.0000838  -0.0000554   0.0002438   0.0001911
    2  -0.0000604  -0.0000319   0.0000280   0.0000669   0.0000278   0.0000299
    3   0.0000263   0.0000452  -0.0001461   0.0000590   0.0000327  -0.0001517
           13          14          15          16          17          18
    1   0.0002924   0.0001121   0.0002461   0.0001864  -0.0000661  -0.0007722
    2   0.0000426   0.0000167   0.0000321   0.0000235  -0.0000372   0.0004053
    3  -0.0001590  -0.0002508   0.0000490  -0.0001220  -0.0001589   0.0005055
           19          20          21          22
    1  -0.0002741   0.0002967  -0.0004633  -0.0000535
    2   0.0000967  -0.0022857   0.0006872   0.0008830
    3  -0.0000239   0.0004417   0.0001192   0.0002645
 Max gradient component =       2.286E-03
 RMS gradient           =       3.677E-04
 Gradient time:  CPU 123.89 s  wall 7.90 s
 Geometry Optimization Parameters
   NAtoms,    NIC,     NZ,  NCons,   NDum,   NFix, NCnnct, MaxDiis
       22     172       0       0       0       0       0       0

 Cartesian Hessian Update
 Hessian updated using BFGS update


** GEOMETRY OPTIMIZATION IN DELOCALIZED INTERNAL COORDINATES **
   Searching for a Minimum

   Optimization Cycle:   4

                       Coordinates (Angstroms)
     ATOM                X               Y               Z
      1  C        -2.4942610843    0.9837897242   -2.3068966892
      2  C        -1.6421143251   -0.2254009572   -1.8775495287
      3  C        -2.3314589921   -1.5432583304   -2.2730644044
      4  C        -2.5606174892   -1.5854195482   -3.7957156225
      5  C        -3.3580669005   -0.3650017676   -4.2917540756
      6  C        -2.7236603726    0.9596031361   -3.8293919762
      7  H        -1.7135860057   -2.3908677158   -1.9555819827
      8  H        -0.6869828586   -0.1683071074   -2.4136828367
      9  H        -3.4612039491    0.9677315189   -1.7834990419
     10  H        -1.9893395768    1.9098814654   -2.0099310202
     11  H        -1.5784702107   -1.6026293988   -4.2984500663
     12  H        -3.0761794804   -2.5157741949   -4.0769216138
     13  H        -3.4379576235   -0.3850889503   -5.3947763643
     14  H        -4.3848698649   -0.4255159522   -3.9017792700
     15  H        -1.7506574073    1.0893842703   -4.3335141142
     16  H        -3.3532986156    1.8093277840   -4.1333337504
     17  H        -3.2938478632   -1.6391485410   -1.7496261230
     18  N        -1.2532594674   -0.1814035814   -0.4786383651
     19  H        -1.9448538568   -0.2744222052    0.2582941506
     20  C         0.0558637685    0.0089160745   -0.1215062412
     21  H         0.2163357132    0.0332914570    0.9666602173
     22  O         0.9638217600    0.1563454383   -0.9359758018
   Point Group: c1    Number of degrees of freedom:    60


   Energy is   -404.602349294

 Hessian updated using BFGS update

 60 Hessian modes will be used to form the next step
  Hessian Eigenvalues:
     0.004327    0.005974    0.006871    0.007167    0.012569    0.019129
     0.019501    0.020845    0.035997    0.036719    0.039416    0.042124
     0.047828    0.048452    0.048899    0.053562    0.055288    0.055708
     0.059195    0.066686    0.071456    0.081471    0.081543    0.082018
     0.082091    0.082273    0.084453    0.087637    0.118764    0.120969
     0.143110    0.152628    0.159854    0.160291    0.175132    0.205693
     0.211428    0.263838    0.272583    0.275436    0.275970    0.286529
     0.287162    0.287994    0.327086    0.333273    0.334551    0.334934
     0.335971    0.336549    0.338415    0.339441    0.339459    0.340160
     0.340497    0.342595    0.365302    0.453646    0.526111    0.943395

 Minimum search - taking simple RFO step
 Searching for Lamda that Minimizes Along All modes
 Value Taken    Lamda =  -0.00003930
 Step Taken.  Stepsize is  0.032687

                             Maximum     Tolerance    Cnvgd?
         Gradient           0.001277      0.000100      NO
         Displacement       0.022120      0.000100      NO
         Energy change     -0.000001      0.000000      NO


 New Cartesian Coordinates Obtained by Inverse Iteration

 Displacement from previous Coordinates is:  0.033844
 ----------------------------------------------------------------
             Standard Nuclear Orientation (Angstroms)
    I     Atom           X                Y                Z
 ----------------------------------------------------------------
    1      C      -2.4960862443     0.9842817546    -2.3058933334
    2      C      -1.6432533064    -0.2251174654    -1.8764059289
    3      C      -2.3328648081    -1.5434249270    -2.2715895932
    4      C      -2.5600709768    -1.5857852299    -3.7949098493
    5      C      -3.3557577951    -0.3649771138    -4.2926881371
    6      C      -2.7234755168     0.9601255331    -3.8289896290
    7      H      -1.7170978782    -2.3921132233    -1.9526824718
    8      H      -0.6896323170    -0.1679152028    -2.4151506801
    9      H      -3.4640179943     0.9657139874    -1.7843503235
   10      H      -1.9934383150     1.9112323075    -2.0076561548
   11      H      -1.5775366759    -1.6047107595    -4.2959121484
   12      H      -3.0767550059    -2.5152094894    -4.0768865254
   13      H      -3.4317103029    -0.3850448548    -5.3957538085
   14      H      -4.3840080505    -0.4257071673    -3.9063803675
   15      H      -1.7503426799     1.0919061060    -4.3314211828
   16      H      -3.3543469824     1.8085005671    -4.1338291770
   17      H      -3.2965862622    -1.6370650382    -1.7501575134
   18      N      -1.2515765555    -0.1804391058    -0.4786708752
   19      H      -1.9401606457    -0.2758110247     0.2605570987
   20      C       0.0563285123     0.0150823529    -0.1230149962
   21      H       0.2204349933     0.0293029482     0.9650541102
   22      O       0.9632901049     0.1532076636    -0.9399030334
 ----------------------------------------------------------------
 Nuclear Repulsion Energy =         468.69313816 hartrees
 There are       35 alpha and       35 beta electrons
 Applying Cartesian multipole field
    Component          Value
    ---------          -----
     (0,0,1)       -1.55580E-02
 Nucleus-field energy     =     4.6057261347 hartrees
 Requested basis set is 6-31+G(d)
 There are 71 shells and 197 basis functions
 A cutoff of  1.0D-14 yielded   2418 shell pairs
 There are     19109 function pairs
 Smallest overlap matrix eigenvalue = 2.67E-05
 Guess MOs from SCF MO coefficient file

 -----------------------------------------------------------------------
  General SCF calculation program by
  Eric Jon Sundstrom, Paul Horn, Yuezhi Mao, Dmitri Zuev, Alec White,
  David Stuck, Shaama M.S., Shane Yost, Joonho Lee, David Small,
  Daniel Levine, Susi Lehtola, Hugh Burton, Evgeny Epifanovsky,
  Bang C. Huynh
 -----------------------------------------------------------------------
 Exchange:     0.2000 Hartree-Fock + 0.0800 Slater + 0.7200 B88
 Correlation:  0.1900 VWN1RPA + 0.8100 LYP
 Using Euler-Maclaurin-Lebedev (99,590) quadrature formula
 using 16 threads for integral computing
 -------------------------------------------------------
 OpenMP Integral computing Module                
 Release: version 2.0, May 2017, Q-Chem Inc. Pleasanton 
 -------------------------------------------------------
 A restricted SCF calculation will be
 performed using DIIS
 SCF converges when DIIS error is below 1.0e-09
 ---------------------------------------
  Cycle       Energy         DIIS error
 ---------------------------------------
    1    -404.6023011188      8.40e-05  
    2    -404.6023579975      1.36e-05  
    3    -404.6023586495      9.22e-06  
    4    -404.6023589853      3.39e-06  
    5    -404.6023590305      1.06e-06  
    6    -404.6023590339      4.56e-07  
    7    -404.6023590348      7.29e-08  
    8    -404.6023590348      2.58e-08  
    9    -404.6023590348      5.61e-09  
   10    -404.6023590348      1.76e-09  
   11    -404.6023590348      5.20e-10  Convergence criterion met
 ---------------------------------------
 SCF time:   CPU 547.20s  wall 34.00s 
 SCF   energy in the final basis set =     -404.6023590348
 Total energy in the final basis set =     -404.6023590348
 
 --------------------------------------------------------------
 
                    Orbital Energies (a.u.)
 --------------------------------------------------------------
 
 Alpha MOs
 -- Occupied --
-19.1584 -14.4056 -10.3180 -10.3007 -10.2916 -10.2914 -10.2891 -10.2632
-10.2621  -1.0691  -0.9712  -0.9181  -0.8367  -0.8233  -0.7115  -0.7042
 -0.6568  -0.6372  -0.5882  -0.5620  -0.5361  -0.5352  -0.5216  -0.4867
 -0.4852  -0.4757  -0.4506  -0.4405  -0.4393  -0.4260  -0.4160  -0.4024
 -0.3942  -0.2985  -0.2925
 -- Virtual --
 -0.1465  -0.1153  -0.1048  -0.0795  -0.0541  -0.0474  -0.0457  -0.0350
 -0.0242  -0.0162  -0.0117  -0.0031   0.0088   0.0200   0.0220   0.0241
  0.0260   0.0476   0.0621   0.0624   0.0699   0.0727   0.0841   0.0888
  0.0930   0.0989   0.1128   0.1160   0.1180   0.1199   0.1344   0.1401
  0.1418   0.1554   0.1606   0.1773   0.1861   0.1935   0.1988   0.2059
  0.2088   0.2246   0.2291   0.2385   0.2447   0.2492   0.2633   0.2682
  0.2706   0.2719   0.2827   0.2929   0.3086   0.3276   0.3323   0.3533
  0.3804   0.3902   0.4571   0.5233   0.5382   0.5571   0.5625   0.5848
  0.5919   0.6171   0.6264   0.6512   0.6719   0.6917   0.7083   0.7159
  0.7249   0.7366   0.7654   0.7708   0.7897   0.8490   0.8696   0.8721
  0.8999   0.9107   0.9377   0.9611   0.9727   0.9844   0.9984   1.0037
  1.0210   1.0279   1.0469   1.0692   1.0843   1.0913   1.1026   1.1208
  1.1590   1.2233   1.2580   1.2766   1.3022   1.3145   1.3378   1.3432
  1.4103   1.4300   1.4420   1.4606   1.5207   1.5378   1.6390   1.6535
  1.6579   1.6948   1.7232   1.7332   1.7958   1.8015   1.8207   1.8259
  1.8390   1.8814   1.9140   1.9204   1.9278   1.9636   1.9909   1.9927
  2.0371   2.0775   2.1278   2.1609   2.2064   2.2448   2.2580   2.2661
  2.2952   2.3204   2.3255   2.3550   2.3800   2.4992   2.5256   2.5469
  2.5709   2.6176   2.6320   2.6615   2.7139   2.7616   2.8251   2.9827
  3.1369   4.0354   4.1215   4.1943   4.1959   4.2534   4.3810   4.5017
  4.5189   4.6054
 --------------------------------------------------------------
 
          Ground-State Mulliken Net Atomic Charges

     Atom                 Charge (a.u.)
  ----------------------------------------
      1 C                    -0.223829
      2 C                    -0.551216
      3 C                    -0.263898
      4 C                    -0.425360
      5 C                    -0.379541
      6 C                    -0.426186
      7 H                     0.231410
      8 H                     0.230248
      9 H                     0.222734
     10 H                     0.230678
     11 H                     0.178223
     12 H                     0.174618
     13 H                     0.128302
     14 H                     0.207670
     15 H                     0.178601
     16 H                     0.173173
     17 H                     0.222958
     18 N                    -0.397475
     19 H                     0.433597
     20 C                     0.338038
     21 H                     0.224692
     22 O                    -0.507438
  ----------------------------------------
  Sum of atomic charges =     0.000000

 -----------------------------------------------------------------
                    Cartesian Multipole Moments
 -----------------------------------------------------------------
    Charge (ESU x 10^10)
                 0.0000
    Dipole Moment (Debye)
         X      -3.3042      Y      -0.5034      Z       4.7708
       Tot       5.8251
    Quadrupole Moments (Debye-Ang)
        XX     -57.3098     XY       0.0157     YY     -57.4845
        XZ      -4.3513     YZ      -0.3440     ZZ     -71.8435
    Octopole Moments (Debye-Ang^2)
       XXX     299.9817    XXY      10.2856    XYY     104.0536
       YYY      36.3888    XXZ     158.4788    XYZ       2.6464
       YYZ     137.2563    XZZ     144.0356    YZZ      16.1693
       ZZZ     483.4546
    Hexadecapole Moments (Debye-Ang^3)
      XXXX   -1806.4988   XXXY     -88.9887   XXYY    -374.2243
      XYYY     -92.6334   YYYY    -409.6531   XXXZ   -1067.9228
      XXYZ     -43.9903   XYYZ    -342.5109   YYYZ    -116.7607
      XXZZ    -902.9772   XYZZ     -44.2399   YYZZ    -551.8869
      XZZZ   -1248.9720   YZZZ    -139.6183   ZZZZ   -3167.6776
 -----------------------------------------------------------------
 Calculating analytic gradient of the SCF energy
 Gradient of SCF Energy
            1           2           3           4           5           6
    1   0.0001864  -0.0000987   0.0002136   0.0002682   0.0001095   0.0002588
    2   0.0001182  -0.0000208  -0.0001132   0.0000028   0.0000178   0.0000519
    3  -0.0000244   0.0001654  -0.0000961  -0.0002375  -0.0001622  -0.0002153
            7           8           9          10          11          12
    1  -0.0000711  -0.0001763  -0.0001136  -0.0001053   0.0000445   0.0001730
    2  -0.0001874   0.0000057  -0.0000575   0.0001582  -0.0000063   0.0001075
    3   0.0000254  -0.0000965  -0.0001848   0.0000542   0.0001529  -0.0002032
           13          14          15          16          17          18
    1   0.0003561   0.0000553   0.0000394   0.0001878  -0.0000975  -0.0000353
    2   0.0000464   0.0000101   0.0000525  -0.0000702   0.0000397  -0.0001224
    3  -0.0000036  -0.0002733   0.0001769  -0.0001498  -0.0002060   0.0000309
           19          20          21          22
    1   0.0000921  -0.0004400  -0.0002890  -0.0005580
    2  -0.0000255   0.0006638  -0.0002842  -0.0003870
    3   0.0000598   0.0005989   0.0002812   0.0003068
 Max gradient component =       6.638E-04
 RMS gradient           =       2.095E-04
 Gradient time:  CPU 124.06 s  wall 7.85 s
 Geometry Optimization Parameters
   NAtoms,    NIC,     NZ,  NCons,   NDum,   NFix, NCnnct, MaxDiis
       22     172       0       0       0       0       0       0

 Cartesian Hessian Update
 Hessian updated using BFGS update


** GEOMETRY OPTIMIZATION IN DELOCALIZED INTERNAL COORDINATES **
   Searching for a Minimum

   Optimization Cycle:   5

                       Coordinates (Angstroms)
     ATOM                X               Y               Z
      1  C        -2.4960862443    0.9842817546   -2.3058933334
      2  C        -1.6432533064   -0.2251174654   -1.8764059289
      3  C        -2.3328648081   -1.5434249270   -2.2715895932
      4  C        -2.5600709768   -1.5857852299   -3.7949098493
      5  C        -3.3557577951   -0.3649771138   -4.2926881371
      6  C        -2.7234755168    0.9601255331   -3.8289896290
      7  H        -1.7170978782   -2.3921132233   -1.9526824718
      8  H        -0.6896323170   -0.1679152028   -2.4151506801
      9  H        -3.4640179943    0.9657139874   -1.7843503235
     10  H        -1.9934383150    1.9112323075   -2.0076561548
     11  H        -1.5775366759   -1.6047107595   -4.2959121484
     12  H        -3.0767550059   -2.5152094894   -4.0768865254
     13  H        -3.4317103029   -0.3850448548   -5.3957538085
     14  H        -4.3840080505   -0.4257071673   -3.9063803675
     15  H        -1.7503426799    1.0919061060   -4.3314211828
     16  H        -3.3543469824    1.8085005671   -4.1338291770
     17  H        -3.2965862622   -1.6370650382   -1.7501575134
     18  N        -1.2515765555   -0.1804391058   -0.4786708752
     19  H        -1.9401606457   -0.2758110247    0.2605570987
     20  C         0.0563285123    0.0150823529   -0.1230149962
     21  H         0.2204349933    0.0293029482    0.9650541102
     22  O         0.9632901049    0.1532076636   -0.9399030334
   Point Group: c1    Number of degrees of freedom:    60


   Energy is   -404.602359035

 Hessian updated using BFGS update

 60 Hessian modes will be used to form the next step
  Hessian Eigenvalues:
     0.004712    0.005974    0.006875    0.007056    0.012547    0.019192
     0.019502    0.020848    0.036457    0.038197    0.039416    0.042177
     0.048223    0.048450    0.048897    0.055277    0.055694    0.055804
     0.059793    0.066859    0.079936    0.081521    0.081591    0.082050
     0.082124    0.083859    0.086177    0.088454    0.119032    0.120971
     0.143149    0.154189    0.159857    0.160342    0.175250    0.207120
     0.212235    0.265060    0.272616    0.275555    0.277877    0.286728
     0.287190    0.290845    0.328693    0.333834    0.334555    0.334955
     0.335961    0.336548    0.338488    0.339443    0.339455    0.340169
     0.340421    0.342596    0.361508    0.454105    0.532610    0.947765

 Minimum search - taking simple RFO step
 Searching for Lamda that Minimizes Along All modes
 Value Taken    Lamda =  -0.00001224
 Step Taken.  Stepsize is  0.023151

                             Maximum     Tolerance    Cnvgd?
         Gradient           0.000705      0.000100      NO
         Displacement       0.010023      0.000100      NO
         Energy change     -0.000010      0.000000      NO


 New Cartesian Coordinates Obtained by Inverse Iteration

 Displacement from previous Coordinates is:  0.034249
 ----------------------------------------------------------------
             Standard Nuclear Orientation (Angstroms)
    I     Atom           X                Y                Z
 ----------------------------------------------------------------
    1      C      -2.4936193233     0.9837409289    -2.3068525366
    2      C      -1.6416857559    -0.2258242160    -1.8777313541
    3      C      -2.3315693642    -1.5435416845    -2.2728832773
    4      C      -2.5611929827    -1.5857997952    -3.7956536191
    5      C      -3.3576550593    -0.3648388833    -4.2919003174
    6      C      -2.7234121949     0.9597669662    -3.8294168595
    7      H      -1.7137266109    -2.3910405424    -1.9555158699
    8      H      -0.6858244216    -0.1687197775    -2.4126085505
    9      H      -3.4602828635     0.9676762564    -1.7829186326
   10      H      -1.9880376235     1.9092949940    -2.0098677931
   11      H      -1.5793654449    -1.6040958308    -4.2988730469
   12      H      -3.0778194435    -2.5157876654    -4.0762143331
   13      H      -3.4373506345    -0.3849277915    -5.3949310525
   14      H      -4.3844466059    -0.4249987149    -3.9020494787
   15      H      -1.7507686337     1.0899786666    -4.3340051703
   16      H      -3.3535260447     1.8094033378    -4.1327027055
   17      H      -3.2938162867    -1.6389071193    -1.7490332325
   18      N      -1.2530867470    -0.1816520647    -0.4794759125
   19      H      -1.9447117218    -0.2780418183     0.2571471713
   20      C       0.0544279327     0.0152759603    -0.1218280944
   21      H       0.2155051280     0.0311371448     0.9666320875
   22      O       0.9632999994     0.1579342674    -0.9359519423
 ----------------------------------------------------------------
 Nuclear Repulsion Energy =         468.70768749 hartrees
 There are       35 alpha and       35 beta electrons
 Applying Cartesian multipole field
    Component          Value
    ---------          -----
     (0,0,1)       -1.55580E-02
 Nucleus-field energy     =     4.6054628705 hartrees
 Requested basis set is 6-31+G(d)
 There are 71 shells and 197 basis functions
 A cutoff of  1.0D-14 yielded   2418 shell pairs
 There are     19109 function pairs
 Smallest overlap matrix eigenvalue = 2.66E-05
 Guess MOs from SCF MO coefficient file

 -----------------------------------------------------------------------
  General SCF calculation program by
  Eric Jon Sundstrom, Paul Horn, Yuezhi Mao, Dmitri Zuev, Alec White,
  David Stuck, Shaama M.S., Shane Yost, Joonho Lee, David Small,
  Daniel Levine, Susi Lehtola, Hugh Burton, Evgeny Epifanovsky,
  Bang C. Huynh
 -----------------------------------------------------------------------
 Exchange:     0.2000 Hartree-Fock + 0.0800 Slater + 0.7200 B88
 Correlation:  0.1900 VWN1RPA + 0.8100 LYP
 Using Euler-Maclaurin-Lebedev (99,590) quadrature formula
 using 16 threads for integral computing
 -------------------------------------------------------
 OpenMP Integral computing Module                
 Release: version 2.0, May 2017, Q-Chem Inc. Pleasanton 
 -------------------------------------------------------
 A restricted SCF calculation will be
 performed using DIIS
 SCF converges when DIIS error is below 1.0e-09
 ---------------------------------------
  Cycle       Energy         DIIS error
 ---------------------------------------
    1    -404.6023380976      5.57e-05  
    2    -404.6023639806      9.22e-06  
    3    -404.6023640614      9.43e-06  
    4    -404.6023644356      3.18e-06  
    5    -404.6023644691      1.48e-06  
    6    -404.6023644775      1.82e-07  
    7    -404.6023644776      1.00e-07  
    8    -404.6023644777      1.76e-08  
    9    -404.6023644777      5.06e-09  
   10    -404.6023644777      1.75e-09  
   11    -404.6023644777      4.81e-10  Convergence criterion met
 ---------------------------------------
 SCF time:   CPU 548.18s  wall 34.00s 
 SCF   energy in the final basis set =     -404.6023644777
 Total energy in the final basis set =     -404.6023644777
 
 --------------------------------------------------------------
 
                    Orbital Energies (a.u.)
 --------------------------------------------------------------
 
 Alpha MOs
 -- Occupied --
-19.1585 -14.4056 -10.3181 -10.3007 -10.2917 -10.2915 -10.2889 -10.2632
-10.2621  -1.0690  -0.9713  -0.9181  -0.8368  -0.8233  -0.7115  -0.7043
 -0.6568  -0.6374  -0.5882  -0.5620  -0.5361  -0.5351  -0.5216  -0.4867
 -0.4852  -0.4757  -0.4507  -0.4406  -0.4393  -0.4260  -0.4161  -0.4025
 -0.3942  -0.2986  -0.2926
 -- Virtual --
 -0.1465  -0.1153  -0.1048  -0.0795  -0.0541  -0.0474  -0.0458  -0.0351
 -0.0242  -0.0162  -0.0117  -0.0031   0.0088   0.0199   0.0220   0.0242
  0.0260   0.0475   0.0621   0.0624   0.0700   0.0726   0.0841   0.0889
  0.0929   0.0988   0.1128   0.1160   0.1181   0.1198   0.1344   0.1402
  0.1420   0.1554   0.1604   0.1773   0.1864   0.1934   0.1988   0.2059
  0.2088   0.2245   0.2292   0.2385   0.2448   0.2489   0.2633   0.2682
  0.2706   0.2718   0.2826   0.2931   0.3087   0.3276   0.3324   0.3531
  0.3805   0.3899   0.4571   0.5234   0.5383   0.5570   0.5626   0.5848
  0.5918   0.6169   0.6265   0.6512   0.6718   0.6912   0.7082   0.7159
  0.7249   0.7368   0.7653   0.7708   0.7896   0.8490   0.8696   0.8718
  0.9001   0.9107   0.9377   0.9616   0.9727   0.9846   0.9988   1.0035
  1.0209   1.0278   1.0467   1.0688   1.0844   1.0912   1.1027   1.1208
  1.1590   1.2232   1.2579   1.2762   1.3021   1.3145   1.3372   1.3428
  1.4108   1.4303   1.4414   1.4609   1.5206   1.5386   1.6393   1.6539
  1.6580   1.6946   1.7230   1.7334   1.7958   1.8017   1.8207   1.8261
  1.8388   1.8814   1.9141   1.9204   1.9274   1.9640   1.9916   1.9932
  2.0362   2.0773   2.1278   2.1611   2.2059   2.2450   2.2573   2.2655
  2.2950   2.3206   2.3251   2.3547   2.3800   2.4994   2.5256   2.5471
  2.5710   2.6180   2.6325   2.6615   2.7136   2.7618   2.8254   2.9826
  3.1370   4.0355   4.1215   4.1944   4.1960   4.2535   4.3814   4.5013
  4.5190   4.6055
 --------------------------------------------------------------
 
          Ground-State Mulliken Net Atomic Charges

     Atom                 Charge (a.u.)
  ----------------------------------------
      1 C                    -0.222878
      2 C                    -0.552942
      3 C                    -0.263732
      4 C                    -0.425756
      5 C                    -0.378725
      6 C                    -0.426535
      7 H                     0.231366
      8 H                     0.230350
      9 H                     0.222845
     10 H                     0.230704
     11 H                     0.177988
     12 H                     0.174718
     13 H                     0.128246
     14 H                     0.207816
     15 H                     0.178390
     16 H                     0.173282
     17 H                     0.223047
     18 N                    -0.397543
     19 H                     0.433663
     20 C                     0.337989
     21 H                     0.224600
     22 O                    -0.506893
  ----------------------------------------
  Sum of atomic charges =     0.000000

 -----------------------------------------------------------------
                    Cartesian Multipole Moments
 -----------------------------------------------------------------
    Charge (ESU x 10^10)
                 0.0000
    Dipole Moment (Debye)
         X      -3.3070      Y      -0.5120      Z       4.7638
       Tot       5.8217
    Quadrupole Moments (Debye-Ang)
        XX     -57.2978     XY       0.0068     YY     -57.4938
        XZ      -4.3794     YZ      -0.3362     ZZ     -71.8513
    Octopole Moments (Debye-Ang^2)
       XXX     299.9812    XXY      10.2534    XYY     104.0583
       YYY      36.3633    XXZ     158.5170    XYZ       2.6670
       YYZ     137.2698    XZZ     144.1371    YZZ      16.1656
[...]

 Mode:                40                     41                     42
 Frequency:      1414.84                1501.02                1502.47
 Force Cnst:      1.6734                 1.4486                 1.4479
 Red. Mass:       1.4189                 1.0912                 1.0886
 IR Active:          YES                    YES                    YES
 IR Intens:        5.784                  1.702                  0.541
 Raman Active:       YES                    YES                    YES
               X      Y      Z        X      Y      Z        X      Y      Z
 C          0.029 -0.057  0.092    0.015 -0.022 -0.009   -0.010  0.010  0.024
 C         -0.049  0.038 -0.097   -0.000 -0.004 -0.009   -0.001  0.018 -0.002
 C          0.035  0.032  0.068    0.007  0.014  0.005    0.011  0.015 -0.021
 C          0.001 -0.017  0.002   -0.016  0.019  0.011    0.015 -0.029 -0.032
 C         -0.002 -0.003  0.005   -0.063 -0.001 -0.039   -0.013 -0.011 -0.008
 C         -0.004  0.027  0.003   -0.008 -0.010 -0.001   -0.018 -0.038  0.036
 H         -0.091 -0.176 -0.273   -0.062 -0.026  0.032   -0.189 -0.080  0.138
 H          0.324 -0.257  0.508    0.013  0.016  0.016    0.011 -0.083  0.011
 H         -0.183  0.215 -0.299    0.040  0.211  0.056   -0.080 -0.172 -0.121
 H         -0.102  0.125 -0.253   -0.181  0.053  0.121    0.182 -0.057 -0.133
 H          0.017 -0.015  0.028   -0.049 -0.218 -0.059    0.111  0.323  0.167
 H         -0.037  0.039 -0.113    0.181 -0.061 -0.137   -0.307  0.101  0.197
 H         -0.053 -0.003  0.002    0.601  0.030 -0.059    0.130 -0.003 -0.012
 H         -0.035  0.025 -0.063    0.193  0.005  0.591    0.039  0.047  0.126
 H          0.015 -0.042  0.026   -0.016  0.092  0.003   -0.171  0.392 -0.192
 H         -0.067 -0.065 -0.130    0.059  0.025 -0.059    0.363  0.161 -0.250
 H         -0.098 -0.070 -0.202    0.004 -0.091 -0.012    0.092 -0.184  0.112
 N         -0.014 -0.007 -0.039   -0.004 -0.001 -0.003   -0.001 -0.001 -0.001
 H          0.171  0.022  0.138    0.024  0.005  0.024    0.008 -0.002  0.007
 C          0.015  0.002  0.029    0.003  0.001  0.002    0.000  0.000  0.001
 H          0.012  0.004  0.047    0.001 -0.000  0.005    0.000  0.001  0.002
 O          0.001  0.001 -0.008   -0.001 -0.000 -0.000    0.000 -0.000 -0.000
 TransDip   0.044  0.030  0.055    0.036  0.015  0.015    0.012 -0.020 -0.000

 Mode:                43                     44                     45
 Frequency:      1508.80                1512.71                1525.67
 Force Cnst:      1.4677                 1.4814                 1.5469
 Red. Mass:       1.0943                 1.0988                 1.1280
 IR Active:          YES                    YES                    YES
 IR Intens:        7.081                 14.882                 11.051
 Raman Active:       YES                    YES                    YES
               X      Y      Z        X      Y      Z        X      Y      Z
 C          0.019 -0.039 -0.041   -0.010  0.015  0.012   -0.014  0.031  0.023
 C         -0.002 -0.002 -0.002    0.010  0.001  0.011   -0.018 -0.003  0.002
 C         -0.010 -0.029  0.029   -0.015 -0.034  0.030   -0.012 -0.036  0.026
 C          0.013 -0.035 -0.021   -0.018  0.032  0.020    0.010 -0.028 -0.010
 C          0.003  0.009  0.001    0.009  0.003  0.014   -0.029 -0.002 -0.027
 C         -0.002 -0.021  0.012   -0.015 -0.042  0.025    0.007  0.028 -0.011
 H          0.259  0.084 -0.214    0.305  0.118 -0.218    0.299  0.103 -0.238
 H          0.003  0.013  0.005   -0.017  0.005 -0.028    0.025  0.004  0.082
 H          0.135  0.422  0.211   -0.050 -0.158 -0.073   -0.079 -0.318 -0.116
 H         -0.382  0.092  0.297    0.150 -0.050 -0.089    0.265 -0.061 -0.211
 H          0.079  0.303  0.114   -0.091 -0.316 -0.125    0.046  0.211  0.062
 H         -0.261  0.074  0.171    0.293 -0.106 -0.161   -0.188  0.055  0.103
 H         -0.033 -0.027  0.001   -0.067 -0.008  0.022    0.282  0.015 -0.040
 H         -0.008 -0.029 -0.032   -0.029 -0.011 -0.078    0.097  0.007  0.291
 H         -0.052  0.145 -0.059   -0.144  0.367 -0.151    0.069 -0.202  0.066
 H          0.121  0.037 -0.089    0.331  0.150 -0.199   -0.180 -0.073  0.105
 H         -0.122  0.285 -0.150   -0.143  0.324 -0.169   -0.129  0.349 -0.142
 N          0.005 -0.000  0.004   -0.017 -0.003 -0.014    0.037  0.007  0.025
 H         -0.018  0.003 -0.017    0.063  0.013  0.064   -0.157 -0.028 -0.166
 C         -0.002 -0.001 -0.002    0.009  0.002  0.005   -0.024 -0.005 -0.009
 H         -0.001  0.000 -0.004    0.002  0.000  0.012   -0.002  0.000 -0.026
 O         -0.000  0.000  0.001   -0.002 -0.000 -0.001    0.006  0.001 -0.001
 TransDip  -0.032  0.079  0.007    0.109  0.029 -0.052   -0.071 -0.018 -0.077

 Mode:                46                     47                     48
 Frequency:      1535.91                1711.98                2282.75
 Force Cnst:      2.1995                13.7446                 7.5346
 Red. Mass:       1.5825                 7.9595                 2.4541
 IR Active:          YES                    YES                    YES
 IR Intens:      152.192                358.758                 27.570
 Raman Active:       YES                    YES                    YES
               X      Y      Z        X      Y      Z        X      Y      Z
 C         -0.004  0.006  0.010   -0.002  0.002  0.016   -0.000  0.000  0.000
 C          0.081  0.012  0.043   -0.005  0.000 -0.047    0.002  0.000  0.001
 C         -0.005 -0.012  0.013   -0.003 -0.001  0.017   -0.000 -0.000  0.000
 C          0.003 -0.015 -0.015    0.002  0.004 -0.003    0.000  0.000 -0.000
 C         -0.010 -0.000 -0.008   -0.000  0.000  0.001   -0.000  0.000 -0.000
 C          0.001  0.015 -0.014    0.002 -0.004 -0.003    0.000 -0.000  0.000
 H          0.091  0.033 -0.050    0.003 -0.013 -0.025    0.001  0.000 -0.000
 H         -0.156 -0.002 -0.381    0.116  0.020  0.127    0.007  0.003  0.013
 H         -0.045 -0.036 -0.079   -0.027  0.005 -0.030   -0.001 -0.000 -0.000
 H          0.086 -0.029 -0.034    0.018  0.006 -0.026    0.002 -0.000  0.000
 H          0.054  0.141  0.081    0.007 -0.000 -0.000    0.000  0.000 -0.000
 H         -0.132  0.033  0.092   -0.000 -0.008  0.028   -0.000  0.000  0.001
 H          0.097  0.002 -0.015    0.008 -0.001 -0.003    0.000 -0.000  0.000
 H          0.030  0.002  0.092   -0.001 -0.001  0.001    0.000 -0.000 -0.000
 H          0.065 -0.128  0.080    0.009  0.002  0.004    0.001 -0.000 -0.000
 H         -0.124 -0.047  0.083   -0.003  0.007  0.028   -0.000 -0.000  0.000
 H         -0.059  0.042 -0.091   -0.023 -0.023 -0.022   -0.001 -0.000 -0.000
 N         -0.139 -0.024 -0.093   -0.052 -0.011  0.057    0.008  0.001  0.013
 H          0.528  0.098  0.562   -0.329 -0.074 -0.213   -0.043 -0.009 -0.049
 C          0.078  0.016  0.035    0.515  0.114 -0.317   -0.011  0.002 -0.207
 H          0.010  0.000  0.092   -0.231 -0.037 -0.447    0.161  0.013  0.962
 O         -0.014 -0.003 -0.001   -0.293 -0.067  0.267   -0.018 -0.004  0.024
 TransDip   0.328  0.064  0.211    0.587  0.120 -0.093    0.036  0.011 -0.164

 Mode:                49                     50                     51
 Frequency:      2938.83                2980.19                2987.46
 Force Cnst:      5.4554                 5.5816                 5.6192
 Red. Mass:       1.0721                 1.0666                 1.0686
 IR Active:          YES                    YES                    YES
 IR Intens:      134.730                 36.206                119.963
 Raman Active:       YES                    YES                    YES
               X      Y      Z        X      Y      Z        X      Y      Z
 C          0.001 -0.000  0.000   -0.004 -0.001  0.002    0.004  0.002 -0.001
 C          0.001  0.000 -0.000    0.000 -0.001 -0.000    0.002  0.000 -0.002
 C          0.001  0.000  0.000    0.005 -0.001 -0.002    0.004 -0.002 -0.001
 C         -0.007  0.007  0.007   -0.041  0.016  0.030   -0.039  0.011  0.026
 C         -0.014 -0.002 -0.073    0.001 -0.001  0.000    0.019  0.001  0.012
 C         -0.006 -0.008  0.007    0.036  0.020 -0.029   -0.040 -0.017  0.028
 H         -0.004  0.004 -0.004   -0.009  0.018 -0.004   -0.013  0.022 -0.005
 H         -0.005 -0.000  0.003   -0.001  0.003  0.001   -0.027 -0.002  0.018
 H         -0.008  0.001  0.006    0.052 -0.000 -0.030   -0.045  0.000  0.025
 H         -0.004 -0.005 -0.004    0.007  0.017  0.004   -0.011 -0.023 -0.005
 H          0.147  0.001 -0.073    0.614 -0.007 -0.309    0.557 -0.011 -0.279
 H         -0.057 -0.086 -0.025   -0.120 -0.180 -0.047   -0.078 -0.120 -0.028
 H          0.052  0.013  0.948   -0.001  0.006 -0.007   -0.010 -0.003 -0.227
 H          0.105  0.005 -0.067   -0.008 -0.001  0.003   -0.222 -0.011  0.089
 H          0.145  0.013 -0.072   -0.572 -0.061  0.290    0.588  0.068 -0.297
 H         -0.068  0.082 -0.027    0.139 -0.167  0.051   -0.106  0.130 -0.037
 H         -0.009 -0.002  0.006   -0.057 -0.006  0.033   -0.043 -0.004  0.024
 N         -0.000 -0.000 -0.000   -0.000  0.000 -0.000    0.001  0.000  0.000
 H          0.000  0.000 -0.000    0.000 -0.001 -0.000   -0.000 -0.000 -0.001
 C          0.000  0.000  0.000    0.000  0.000  0.000   -0.001 -0.000  0.000
 H          0.000 -0.000 -0.000    0.000 -0.000  0.000    0.000  0.000 -0.000
 O         -0.000 -0.000 -0.000   -0.000 -0.000  0.000    0.000  0.000 -0.000
 TransDip  -0.175 -0.015 -0.328   -0.018  0.192  0.006   -0.135 -0.012  0.323

 Mode:                52                     53                     54
 Frequency:      3019.48                3021.90                3033.76
 Force Cnst:      5.8372                 5.8456                 5.8347
 Red. Mass:       1.0867                 1.0865                 1.0760
 IR Active:          YES                    YES                    YES
 IR Intens:       62.245                 57.515                  2.592
 Raman Active:       YES                    YES                    YES
               X      Y      Z        X      Y      Z        X      Y      Z
 C         -0.013  0.006  0.012   -0.012  0.005  0.010   -0.027  0.009  0.021
 C          0.003  0.000 -0.002   -0.001  0.000  0.001    0.023  0.001 -0.013
 C         -0.004 -0.004  0.005    0.019  0.011 -0.017   -0.033 -0.015  0.026
 C          0.017  0.027  0.007   -0.043 -0.052 -0.009   -0.001 -0.005 -0.003
 C         -0.026 -0.001  0.022    0.008  0.000 -0.007    0.040  0.002 -0.023
 C          0.046 -0.048  0.012    0.029 -0.024  0.003    0.006 -0.001 -0.003
 H         -0.030  0.040 -0.013    0.086 -0.109  0.034   -0.110  0.139 -0.044
 H         -0.041 -0.002  0.023    0.019  0.002 -0.011   -0.283 -0.013  0.167
 H          0.217  0.005 -0.116    0.192  0.005 -0.102    0.403  0.008 -0.214
 H         -0.053 -0.085 -0.023   -0.040 -0.061 -0.017   -0.072 -0.114 -0.031
 H         -0.018  0.007  0.013    0.149 -0.014 -0.082   -0.028  0.001  0.012
 H         -0.189 -0.324 -0.096    0.365  0.629  0.187    0.037  0.060  0.022
 H         -0.015 -0.003 -0.135    0.005 -0.000  0.042    0.014  0.002  0.085
 H          0.334  0.016 -0.129   -0.105 -0.006  0.040   -0.492 -0.024  0.192
 H         -0.120 -0.026  0.070   -0.119 -0.020  0.065   -0.063 -0.008  0.031
 H         -0.438  0.597 -0.202   -0.226  0.308 -0.105   -0.010  0.017 -0.002
 H          0.087  0.006 -0.047   -0.325 -0.023  0.173    0.503  0.038 -0.268
 N          0.000  0.000  0.000   -0.000 -0.000 -0.000   -0.000 -0.000 -0.001
 H         -0.000 -0.000 -0.000    0.000  0.001  0.001    0.001 -0.000 -0.004
 C         -0.000 -0.000 -0.000    0.000  0.000  0.000    0.001  0.000 -0.000
 H          0.000  0.000  0.000   -0.000  0.000  0.000   -0.000 -0.000 -0.000
 O          0.000  0.000 -0.000   -0.000 -0.000  0.000    0.000 -0.000  0.000
 TransDip   0.097 -0.075  0.221   -0.007 -0.232 -0.070   -0.010 -0.039 -0.032

 Mode:                55                     56                     57
 Frequency:      3039.73                3046.38                3062.78
 Force Cnst:      5.8493                 5.9545                 5.9578
 Red. Mass:       1.0744                 1.0890                 1.0780
 IR Active:          YES                    YES                    YES
 IR Intens:       43.781                105.352                 39.435
 Raman Active:       YES                    YES                    YES
               X      Y      Z        X      Y      Z        X      Y      Z
 C         -0.037  0.016  0.031   -0.015  0.005  0.011   -0.011  0.018  0.016
 C          0.003 -0.001 -0.002    0.029  0.001 -0.016   -0.058 -0.003  0.035
 C          0.029  0.017 -0.026   -0.013 -0.005  0.009   -0.005 -0.019  0.016
 C          0.024  0.021  0.001   -0.025 -0.020  0.001   -0.010 -0.007  0.000
 C          0.005  0.000 -0.003   -0.053 -0.003  0.026   -0.010 -0.000  0.004
 C         -0.021  0.015 -0.001   -0.027  0.017  0.001   -0.011  0.006  0.000
 H          0.128 -0.164  0.054   -0.030  0.041 -0.013   -0.155  0.208 -0.074
 H         -0.034 -0.005  0.020   -0.347 -0.017  0.205    0.707  0.035 -0.412
 H          0.559  0.014 -0.301    0.215  0.005 -0.120    0.246  0.003 -0.128
 H         -0.126 -0.199 -0.058   -0.037 -0.061 -0.017   -0.123 -0.207 -0.065
 H         -0.132  0.006  0.071    0.162 -0.008 -0.082    0.066 -0.004 -0.037
 H         -0.150 -0.260 -0.081    0.139  0.246  0.074    0.054  0.092  0.028
 H          0.001  0.002  0.007   -0.012 -0.001 -0.071   -0.001 -0.000 -0.010
 H         -0.064  0.001  0.025    0.646  0.031 -0.249    0.121  0.006 -0.046
 H          0.108  0.015 -0.059    0.165  0.024 -0.085    0.068  0.010 -0.039
 H          0.146 -0.198  0.071    0.160 -0.223  0.076    0.061 -0.081  0.028
 H         -0.465 -0.033  0.249    0.177  0.013 -0.099    0.215  0.018 -0.110
 N         -0.000  0.000 -0.000   -0.000 -0.000 -0.001    0.001  0.000  0.001
 H         -0.000  0.002  0.000    0.003  0.000 -0.004   -0.009 -0.000  0.001
 C          0.000  0.000 -0.000    0.001  0.000 -0.000   -0.001 -0.000  0.000
 H          0.000 -0.000 -0.000   -0.000 -0.000 -0.001    0.000  0.000  0.001
 O         -0.000  0.000  0.000    0.000 -0.000  0.000   -0.000 -0.000 -0.001
 TransDip   0.000  0.212 -0.001   -0.328 -0.024  0.009   -0.113  0.005  0.167

 Mode:                58                     59                     60
 Frequency:      3095.93                3100.62                3583.39
 Force Cnst:      6.2012                 6.2261                 8.1644
 Red. Mass:       1.0981                 1.0992                 1.0792
 IR Active:          YES                    YES                    YES
 IR Intens:       23.036                 19.452                 48.077
 Raman Active:       YES                    YES                    YES
               X      Y      Z        X      Y      Z        X      Y      Z
 C         -0.021 -0.023 -0.004   -0.059 -0.060 -0.005   -0.000 -0.000  0.000
 C          0.008 -0.000 -0.004   -0.014 -0.001  0.007    0.001 -0.000  0.001
 C          0.065 -0.054  0.007   -0.024  0.019 -0.001   -0.000  0.000  0.000
 C          0.004 -0.001 -0.003   -0.002  0.000  0.001   -0.000 -0.000  0.000
 C          0.001  0.001 -0.001   -0.001  0.000  0.002   -0.000 -0.000  0.000
 C         -0.001 -0.000  0.001   -0.004 -0.001  0.003   -0.000  0.000  0.000
 H         -0.479  0.671 -0.243    0.163 -0.229  0.082    0.000 -0.001 -0.000
 H         -0.092 -0.007  0.053    0.157  0.007 -0.089   -0.006  0.000  0.008
 H          0.085 -0.001 -0.049    0.301 -0.008 -0.168    0.000  0.001 -0.001
 H          0.161  0.282  0.092    0.405  0.714  0.230    0.000  0.001 -0.000
 H         -0.055  0.002  0.031    0.028 -0.001 -0.016    0.000  0.000 -0.000
 H          0.004  0.008  0.003   -0.002 -0.003 -0.002    0.000  0.000  0.000
 H          0.000 -0.000  0.003    0.000 -0.000 -0.006    0.000  0.000  0.000
 H         -0.013  0.001  0.004    0.023  0.002 -0.007    0.000  0.000 -0.000
 H          0.011  0.001 -0.006    0.056  0.007 -0.033    0.000 -0.000  0.000
 H         -0.002  0.003 -0.001   -0.006  0.008 -0.004    0.000 -0.000  0.000
 H         -0.292 -0.035  0.164    0.125  0.016 -0.069    0.001 -0.001 -0.001
 N         -0.000  0.000 -0.000    0.001  0.000  0.000    0.051  0.010 -0.053
 H          0.001 -0.001  0.001   -0.002  0.000 -0.001   -0.677 -0.133  0.720
 C          0.000 -0.000 -0.000   -0.000 -0.000  0.000   -0.001 -0.000 -0.001
 H         -0.000 -0.000 -0.000    0.000  0.000  0.000    0.002  0.000  0.002
 O         -0.000  0.000  0.000    0.000  0.000 -0.000   -0.001 -0.000  0.001
 TransDip   0.072 -0.135 -0.015   -0.124 -0.062  0.025   -0.157 -0.034  0.153

 STANDARD THERMODYNAMIC QUANTITIES AT   298.18 K  AND     1.00 ATM

   This Molecule has  0 Imaginary Frequencies
   Zero point vibrational energy:      121.826 kcal/mol

   Atom    1 Element C  Has Mass   12.00000
   Atom    2 Element C  Has Mass   12.00000
   Atom    3 Element C  Has Mass   12.00000
   Atom    4 Element C  Has Mass   12.00000
   Atom    5 Element C  Has Mass   12.00000
   Atom    6 Element C  Has Mass   12.00000
   Atom    7 Element H  Has Mass    1.00783
   Atom    8 Element H  Has Mass    1.00783
   Atom    9 Element H  Has Mass    1.00783
   Atom   10 Element H  Has Mass    1.00783
   Atom   11 Element H  Has Mass    1.00783
   Atom   12 Element H  Has Mass    1.00783
   Atom   13 Element H  Has Mass    1.00783
   Atom   14 Element H  Has Mass    1.00783
   Atom   15 Element H  Has Mass    1.00783
   Atom   16 Element H  Has Mass    1.00783
   Atom   17 Element H  Has Mass    1.00783
   Atom   18 Element N  Has Mass   14.00307
   Atom   19 Element H  Has Mass    1.00783
   Atom   20 Element C  Has Mass   12.00000
   Atom   21 Element H  Has Mass    2.01410
   Atom   22 Element O  Has Mass   15.99491
   Molecular Mass:   128.106042 amu
   Principal axes and moments of inertia in amu*Bohr^2:
                             1           2           3
    Eigenvalues --      568.34621  1934.03262  2115.66072
          X               0.66662     0.00038     0.74539
          Y               0.10292     0.99037    -0.09255
          Z               0.73825    -0.13842    -0.66017
   Rotational Symmetry Number is   1
   The Molecule is an Asymmetric Top
   Translational Enthalpy:        0.889 kcal/mol
   Rotational Enthalpy:           0.889 kcal/mol
   Vibrational Enthalpy:        125.623 kcal/mol
   gas constant (RT):             0.593 kcal/mol
   Translational Entropy:        40.457  cal/mol.K
   Rotational Entropy:           29.232  cal/mol.K
   Vibrational Entropy:          24.618  cal/mol.K

   Total Enthalpy:              127.993 kcal/mol
   Total Entropy:                94.307  cal/mol.K
Archival summary:
1\1\node028\FREQ\ProcedureUnspecified\6-31+G*\11713\ymao90\SunMar706:00:222021SunMar706:00:222021\0\\#,FREQ,ProcedureUnspecified,6-31+G*,\\0,1\N\H,1,1.01497\C,1,1.36963,2,118.338\H,3,1.10043,1,113.622,2,1.96442,0\O,3,1.22854,1,123.299,2,-178.272,0\C,1,1.45217,2,120.927,3,-177.353,0\H,6,1.09689,1,103.688,2,-173.332,0\C,6,1.53832,1,113.169,2,-56.4388,0\H,8,1.09589,6,109.65,1,-51.6864,0\H,8,1.09975,6,110.18,1,65.5391,0\C,8,1.54081,6,110.072,1,-173.336,0\H,11,1.10021,8,110.188,6,-178.559,0\H,11,1.10341,8,108.568,6,64.9116,0\C,11,1.53998,8,111.997,6,-55.5459,0\H,14,1.09998,11,108.982,8,-67.7834,0\H,14,1.10607,11,110.113,8,175.658,0\C,14,1.53964,11,111.86,8,52.7837,0\H,17,1.10038,14,110.213,11,-175.667,0\H,17,1.10339,14,109.141,11,67.4467,0\C,17,1.53969,14,111.783,11,-52.6891,0\H,20,1.09559,17,110.502,14,176.579,0\H,20,1.09958,17,109.893,14,-65.7956,0\\\@

 Total job time:  5091.38s(wall), 80575.22s(cpu) 
 Sun Mar  7 06:00:22 2021

        *************************************************************
        *                                                           *
        *  Thank you very much for using Q-Chem.  Have a nice day.  *
        *                                                           *
        *************************************************************


