                  Welcome to Q-Chem
     A Quantum Leap Into The Future Of Chemistry


 Q-Chem 5.2 (devel), Q-Chem, Inc., Pleasanton, CA (2019)

 Yihan Shao,  Zhengting Gan,  E. Epifanovsky,  A. T. B. Gilbert,  M. Wormit,  
 J. Kussmann,  A. W. Lange,  A. Behn,  Jia Deng,  Xintian Feng,  D. Ghosh,  
 M. Goldey,  P. R. Horn,  L. D. Jacobson,  I. Kaliman,  T. Kus,  A. Landau,  
 Jie Liu,  E. I. Proynov,  R. M. Richard,  R. P. Steele,  E. J. Sundstrom,  
 H. L. Woodcock III,  P. M. Zimmerman,  D. Zuev,  B. Alam,  B. Albrecht,  
 E. Alguire,  S. A. Baeppler,  D. Barton,  Z. Benda,  Y. A. Bernard,  
 E. J. Berquist,  K. B. Bravaya,  H. Burton,  K. Carter-Fenk,  D. Casanova,  
 Chun-Min Chang,  Yunqing Chen,  A. Chien,  K. D. Closser,  M. P. Coons,  
 S. Coriani,  S. Dasgupta,  A. L. Dempwolff,  M. Diedenhofen,  Hainam Do,  
 R. G. Edgar,  Po-Tung Fang,  S. Faraji,  S. Fatehi,  Qingguo Feng,  
 J. Fosso-Tande,  J. Gayvert,  Qinghui Ge,  A. Ghysels,  G. Gidofalvi,  
 J. Gomes,  J. Gonthier,  A. Gunina,  D. Hait,  M. W. D. Hanson-Heine,  
 P. H. P. Harbach,  A. W. Hauser,  M. F. Herbst,  J. E. Herr,  
 E. G. Hohenstein,  Z. C. Holden,  Kerwin Hui,  B. C. Huynh,  T.-C. Jagau,  
 Hyunjun Ji,  B. Kaduk,  K. Khistyaev,  Jaehoon Kim,  P. Klunzinger,  K. Koh,  
 D. Kosenkov,  L. Koulias,  T. Kowalczyk,  C. M. Krauter,  A. Kunitsa,  
 Ka Un Lao,  A. Laurent,  K. V. Lawler,  Joonho Lee,  D. Lefrancois,  
 S. Lehtola,  D. S. Levine,  Yi-Pei Li,  You-Sheng Lin,  Fenglai Liu,  
 Kuan-Yu Liu,  E. Livshits,  M. Loipersberger,  A. Luenser,  P. Manohar,  
 E. Mansoor,  S. F. Manzer,  Shan-Ping Mao,  Yuezhi Mao,  N. Mardirossian,  
 A. V. Marenich,  T. Markovich,  L. A. Martinez-Martinez,  S. A. Maurer,  
 N. J. Mayhall,  S. C. McKenzie,  J.-M. Mewes,  P. Morgante,  A. F. Morrison,  
 J. W. Mullinax,  K. Nanda,  T. S. Nguyen-Beck,  R. Olivares-Amaya,  
 J. A. Parkhill,  S. K. Paul,  F. Pavosevic,  Zheng Pei,  T. M. Perrine,  
 F. Plasser,  P. Pokhilko,  S. Prager,  A. Prociuk,  E. Ramos,  B. Rana,  
 D. R. Rehn,  F. Rob,  M. Scheurer,  M. Schneider,  N. Sergueev,  
 S. M. Sharada,  S. Sharma,  D. W. Small,  T. Stauch,  C. J. Stein,  
 T. Stein,  Yu-Chuan Su,  S. P. Veccham,  Zhen Tao,  A. J. W. Thom,  
 A. Tkatchenko,  T. Tsuchimochi,  N. M. Tubman,  L. Vogt,  M. L. Vidal,  
 O. Vydrov,  M. A. Watson,  J. Wenzel,  M. de Wergifosse,  T. A. Wesolowski,  
 A. White,  J. Witte,  A. Yamada,  Jun Yang,  K. Yao,  S. Yeganeh,  
 S. R. Yost,  Zhi-Qiang You,  A. Zech,  Igor Ying Zhang,  Xing Zhang,  
 Yan Zhao,  Ying Zhu,  B. R. Brooks,  G. K. L. Chan,  C. J. Cramer,  
 M. S. Gordon,  W. J. Hehre,  A. Klamt,  M. W. Schmidt,  C. D. Sherrill,  
 D. G. Truhlar,  A. Aspuru-Guzik,  R. Baer,  A. T. Bell,  N. A. Besley,  
 Jeng-Da Chai,  A. E. DePrince, III,  R. A. DiStasio Jr.,  A. Dreuw,  
 B. D. Dunietz,  T. R. Furlani,  Chao-Ping Hsu,  Yousung Jung,  Jing Kong,  
 D. S. Lambrecht,  WanZhen Liang,  C. Ochsenfeld,  V. A. Rassolov,  
 L. V. Slipchenko,  J. E. Subotnik,  T. Van Voorhis,  J. M. Herbert,  
 A. I. Krylov,  P. M. W. Gill,  M. Head-Gordon

 Contributors to earlier versions of Q-Chem not listed above: 
 R. D. Adamson,  B. Austin,  J. Baker,  G. J. O. Beran,  K. Brandhorst,  
 S. T. Brown,  E. F. C. Byrd,  A. K. Chakraborty,  C.-L. Cheng,  
 Siu Hung Chien,  D. M. Chipman,  D. L. Crittenden,  H. Dachsel,  
 R. J. Doerksen,  A. D. Dutoi,  L. Fusti-Molnar,  W. A. Goddard III,  
 A. Golubeva-Zadorozhnaya,  S. R. Gwaltney,  G. Hawkins,  A. Heyden,  
 S. Hirata,  G. Kedziora,  F. J. Keil,  C. Kelley,  Jihan Kim,  R. A. King,  
 R. Z. Khaliullin,  P. P. Korambath,  W. Kurlancheek,  A. M. Lee,  M. S. Lee,  
 S. V. Levchenko,  Ching Yeh Lin,  D. Liotard,  R. C. Lochan,  I. Lotan,  
 P. E. Maslen,  N. Nair,  D. P. O'Neill,  D. Neuhauser,  E. Neuscamman,  
 C. M. Oana,  R. Olson,  B. Peters,  R. Peverati,  P. A. Pieniazek,  
 Y. M. Rhee,  J. Ritchie,  M. A. Rohrdanz,  E. Rosta,  N. J. Russ,  
 H. F. Schaefer III,  N. E. Schultz,  N. Shenvi,  A. C. Simmonett,  A. Sodt,  
 D. Stuck,  K. S. Thanthiriwatte,  V. Vanovschi,  Tao Wang,  A. Warshel,  
 C. F. Williams,  Q. Wu,  X. Xu,  W. Zhang

 Please cite Q-Chem as follows:
 Y. Shao et al., Mol. Phys. 113, 184-215 (2015)
 DOI: 10.1080/00268976.2014.952696

 Q-Chem 5.2.2 for Intel X86 EM64T Linux

 Parts of Q-Chem use Armadillo 9.800.1 (Horizon Scraper).
 http://arma.sourceforge.net/

 Q-Chem begins on Sun Aug  8 22:27:38 2021  

Host: node026
0

     Scratch files written to /home/ymao90/scratch/CCX_CD_+20_GLY_6220210808222737//
Symmetry turned off for PCM/SM12/SMD calculation

Checking the input file for inconsistencies... 	...done.

--------------------------------------------------------------
User input:
--------------------------------------------------------------
$molecule
0 1
C     -2.4083508923    0.9984834764   -2.3662547437
C     -1.5543120384   -0.2118403749   -1.9459885704
C     -2.2384976761   -1.5367925874   -2.3261896725
C     -2.5867463449   -1.5816552836   -3.8234193167
C     -3.4377297730   -0.3731774783   -4.2445934317
C     -2.7551397527    0.9499468362   -3.8636626912
H     -1.5849547626   -2.3750094827   -2.0545927530
H     -0.5831065672   -0.1532425547   -2.4485260558
H     -3.3388117820    1.0024650072   -1.7759883684
H     -1.8720534969    1.9234708349   -2.1213670712
H     -1.6555784977   -1.5918293252   -4.4093866053
H     -3.1102152921   -2.5181807775   -4.0551406051
H     -3.6290653549   -0.4033428377   -5.3251377272
H     -4.4201020066   -0.4306546907   -3.7508934023
H     -1.8320207629    1.0648782183   -4.4511997179
H     -3.3973970401    1.8010825553   -4.1242295555
H     -3.1618885583   -1.6469527918   -1.7346449512
N     -1.2474445251   -0.1731895513   -0.5151412109
H     -2.0131265263   -0.2687147311    0.1418849346
C      0.0000000000    0.0000000000    0.0000000000
H      0.0000000000    0.0000000000    1.1070732462
O      1.0278769477    0.1402881570   -0.6492362509
$end

$rem
JOBTYPE  OPT
METHOD  B3LYP
BASIS  6-31+G(D)
SYMMETRY  FALSE
SYM_IGNORE  TRUE
MEM_TOTAL  8000
MEM_STATIC  2000
MAX_SUB_FILE_NUM  16000
BASIS_LIN_DEP_THRESH  6
THRESH  14
SCF_CONVERGENCE  9
GEN_SCFMAN  TRUE
SCF_GUESS  SAD
FD_MAT_VEC_PROD  FALSE
XC_GRID  000099000590
NL_GRID  1
MAX_SCF_CYCLES  200
GEOM_OPT_TOL_GRADIENT  100
GEOM_OPT_TOL_DISPLACEMENT  100
GEOM_OPT_TOL_ENERGY  10
SOLVENT_METHOD       PCM
$end

$PCM
THEORY                     CPCM
METHOD                     SWIG
SOLVER                     INVERSION
HPOINTS                    302
HEAVYPOINTS                302
$END

$SOLVENT
DIELECTRIC                 62.0
$END

$multipole_field
Z   -0.003890
$end


--------------------------------------------------------------
 ----------------------------------------------------------------
             Standard Nuclear Orientation (Angstroms)
    I     Atom           X                Y                Z
 ----------------------------------------------------------------
    1      C      -2.4083508923     0.9984834764    -2.3662547437
    2      C      -1.5543120384    -0.2118403749    -1.9459885704
    3      C      -2.2384976761    -1.5367925874    -2.3261896725
    4      C      -2.5867463449    -1.5816552836    -3.8234193167
    5      C      -3.4377297730    -0.3731774783    -4.2445934317
    6      C      -2.7551397527     0.9499468362    -3.8636626912
    7      H      -1.5849547626    -2.3750094827    -2.0545927530
    8      H      -0.5831065672    -0.1532425547    -2.4485260558
    9      H      -3.3388117820     1.0024650072    -1.7759883684
   10      H      -1.8720534969     1.9234708349    -2.1213670712
   11      H      -1.6555784977    -1.5918293252    -4.4093866053
   12      H      -3.1102152921    -2.5181807775    -4.0551406051
   13      H      -3.6290653549    -0.4033428377    -5.3251377272
   14      H      -4.4201020066    -0.4306546907    -3.7508934023
   15      H      -1.8320207629     1.0648782183    -4.4511997179
   16      H      -3.3973970401     1.8010825553    -4.1242295555
   17      H      -3.1618885583    -1.6469527918    -1.7346449512
   18      N      -1.2474445251    -0.1731895513    -0.5151412109
   19      H      -2.0131265263    -0.2687147311     0.1418849346
   20      C       0.0000000000     0.0000000000     0.0000000000
   21      H       0.0000000000     0.0000000000     1.1070732462
   22      O       1.0278769477     0.1402881570    -0.6492362509
 ----------------------------------------------------------------
 Nuclear Repulsion Energy =         466.63298041 hartrees
 There are       35 alpha and       35 beta electrons
 Requested basis set is 6-31+G(d)
 There are 71 shells and 197 basis functions

 Total QAlloc Memory Limit   8000 MB
 Mega-Array Size      1956 MB
 MEM_STATIC part      2000 MB
 Discretize the solute cavity surface with Lebedev spheres
	Using 302 Lebedev grid points for each H atom
	Using 302 Lebedev grid points for other atoms
	Atomic van der Waals radii will be scaled by 1.20
 Remove points where switching function is < 1.0e-08
 Keep 2742 surface tesserae and discard 3902 interior tesserae
 Molecular Surface Area = 182.898 Angst**2
 Applying Cartesian multipole field
    Component          Value
    ---------          -----
     (0,0,1)       -3.89000E-03
 Nucleus-field energy     =     1.1410472783 hartrees
 A cutoff of  1.0D-14 yielded   2413 shell pairs
 There are     18998 function pairs
 Smallest overlap matrix eigenvalue = 2.48E-05
 Guess from superposition of atomic densities
 Warning:  Energy on first SCF cycle will be non-variational
 SAD guess density has 70.000000 electrons

 -----------------------------------------------------------------------
  General SCF calculation program by
  Eric Jon Sundstrom, Paul Horn, Yuezhi Mao, Dmitri Zuev, Alec White,
  David Stuck, Shaama M.S., Shane Yost, Joonho Lee, David Small,
  Daniel Levine, Susi Lehtola, Hugh Burton, Evgeny Epifanovsky,
  Bang C. Huynh
 -----------------------------------------------------------------------
 Exchange:     0.2000 Hartree-Fock + 0.0800 Slater + 0.7200 B88
 Correlation:  0.1900 VWN1RPA + 0.8100 LYP
 Using Euler-Maclaurin-Lebedev (99,590) quadrature formula
 using 16 threads for integral computing
 -------------------------------------------------------
 OpenMP Integral computing Module                
 Release: version 2.0, May 2017, Q-Chem Inc. Pleasanton 
 -------------------------------------------------------
 A restricted SCF calculation will be
 performed using DIIS
 SCF converges when DIIS error is below 1.0e-09
 ---------------------------------------
  Cycle       Energy         DIIS error
 ---------------------------------------
    1    -406.2319617790      5.08e-02  
    2    -404.4120758181      6.43e-03  
    3    -404.1904647655      9.94e-03  
    4    -404.5882769377      1.95e-03  
    5    -404.6024787878      5.21e-04  
    6    -404.6035423214      1.44e-04  
    7    -404.6036216165      5.30e-05  
    8    -404.6036334050      9.39e-06  
    9    -404.6036337696      2.29e-06  
   10    -404.6036337920      4.98e-07  
   11    -404.6036337930      1.79e-07  
   12    -404.6036337932      2.23e-08  
   13    -404.6036337932      5.93e-09  
   14    -404.6036337932      2.69e-09  
   15    -404.6036337932      4.27e-10  Convergence criterion met
 ---------------------------------------
 SCF time:   CPU 997.83s  wall 66.00s 

************** Final PCM Free Energy Summary **************
 G_electrostatic  =      -0.01994610 hartree =     -12.51636613 kcal/mol
 G_cavitation     =       0.00000000 hartree =       0.00000000 kcal/mol
 G_dispersion     =       0.00000000 hartree =       0.00000000 kcal/mol
 G_repulsion      =       0.00000000 hartree =       0.00000000 kcal/mol
 --------------------------------------------------
 Non-electrostatic Free Energy =       0.00000000 hartree =       0.00000000 kcal/mol
 Total                         =      -0.01994610 hartree =     -12.51636613 kcal/mol
 --------------------------------------------------
 SCF Energy (H0 + V/2)                       =    -404.60363379 
 Solute Internal Energy (H0)                 =    -404.58368769 
 Total Free Energy (H0 + V/2 + non-elec)     =    -404.60363379 hartree
                                             = -253892.61220624 kcal/mol
***********************************************************

 SCF   energy in the final basis set =     -404.6036337932
 Total energy in the final basis set =     -404.6036337932
 
 --------------------------------------------------------------
 
                    Orbital Energies (a.u.)
 --------------------------------------------------------------
 
 Alpha MOs
 -- Occupied --
-19.1420 -14.3734 -10.2972 -10.2385 -10.2072 -10.2065 -10.2064 -10.1990
-10.1988  -1.0520  -0.9366  -0.8443  -0.7623  -0.7597  -0.6503  -0.6324
 -0.5985  -0.5840  -0.5349  -0.4980  -0.4772  -0.4610  -0.4599  -0.4318
 -0.4302  -0.4147  -0.3998  -0.3909  -0.3667  -0.3642  -0.3457  -0.3342
 -0.3303  -0.2772  -0.2677
 -- Virtual --
 -0.0239  -0.0028  -0.0010   0.0072   0.0081   0.0256   0.0299   0.0331
  0.0421   0.0467   0.0591   0.0708   0.0726   0.0741   0.0773   0.0835
  0.0916   0.0961   0.1077   0.1178   0.1262   0.1344   0.1364   0.1449
  0.1531   0.1561   0.1614   0.1689   0.1815   0.1842   0.1986   0.2019
  0.2054   0.2055   0.2154   0.2263   0.2373   0.2442   0.2551   0.2588
  0.2665   0.2680   0.2700   0.2768   0.2811   0.2930   0.2963   0.3105
  0.3129   0.3171   0.3434   0.3501   0.3596   0.3722   0.3953   0.4070
  0.4263   0.4421   0.4843   0.5911   0.6192   0.6333   0.6432   0.6493
  0.6622   0.6779   0.7080   0.7143   0.7330   0.7354   0.7639   0.7681
  0.7825   0.7906   0.8067   0.8314   0.8483   0.9020   0.9484   0.9544
  0.9561   0.9712   1.0000   1.0158   1.0200   1.0426   1.0717   1.0881
  1.1026   1.1050   1.1075   1.1319   1.1422   1.1522   1.1606   1.1702
  1.2232   1.2370   1.2725   1.3190   1.3295   1.3622   1.3729   1.3997
  1.4697   1.4773   1.4801   1.5502   1.5565   1.5995   1.6876   1.7103
  1.7167   1.7406   1.7543   1.7908   1.8384   1.8573   1.8836   1.8871
  1.8928   1.9260   1.9647   1.9928   1.9979   2.0296   2.0381   2.0723
  2.0758   2.1164   2.1842   2.2060   2.2656   2.2973   2.3008   2.3294
  2.3805   2.3954   2.3982   2.4023   2.4340   2.5503   2.5744   2.6100
  2.6499   2.6712   2.6909   2.7383   2.7628   2.8179   2.8594   3.0012
  3.1787   4.0831   4.1790   4.2192   4.2739   4.3161   4.4129   4.5776
  4.5877   4.6589
 --------------------------------------------------------------
 
          Ground-State Mulliken Net Atomic Charges

     Atom                 Charge (a.u.)
  ----------------------------------------
      1 C                    -0.262247
      2 C                    -0.426095
      3 C                    -0.286878
      4 C                    -0.459417
      5 C                    -0.375942
      6 C                    -0.463124
      7 H                     0.216353
      8 H                     0.216174
      9 H                     0.224711
     10 H                     0.214723
     11 H                     0.194606
     12 H                     0.196834
     13 H                     0.176335
     14 H                     0.210487
     15 H                     0.194427
     16 H                     0.196160
     17 H                     0.224933
     18 N                    -0.401703
     19 H                     0.462090
     20 C                     0.350587
     21 H                     0.206482
     22 O                    -0.609497
  ----------------------------------------
  Sum of atomic charges =     0.000000

 -----------------------------------------------------------------
                    Cartesian Multipole Moments
 -----------------------------------------------------------------
    Charge (ESU x 10^10)
                 0.0000
    Dipole Moment (Debye)
         X      -5.5358      Y      -0.7362      Z       1.9589
       Tot       5.9181
    Quadrupole Moments (Debye-Ang)
        XX     -53.8623     XY       0.3846     YY     -57.0488
        XZ       2.2211     YZ       0.3664     ZZ     -58.1376
    Octopole Moments (Debye-Ang^2)
       XXX     278.3166    XXY       8.7703    XYY     100.1474
       YYY      35.3284    XXZ     132.9990    XYZ       0.3259
       YYZ     130.1863    XZZ     105.5759    YZZ      12.0423
       ZZZ     407.3384
    Hexadecapole Moments (Debye-Ang^3)
      XXXX   -1741.5156   XXXY     -83.5948   XXYY    -362.6337
      XYYY     -88.2582   YYYY    -403.8094   XXXZ    -990.5944
      XXYZ     -37.6823   XYYZ    -327.9046   YYYZ    -111.9111
      XXZZ    -772.7507   XYZZ     -32.0042   YYZZ    -521.0965
      XZZZ   -1046.3281   YZZZ    -117.4308   ZZZZ   -2776.9732
 -----------------------------------------------------------------
 Calculating analytic gradient of the SCF energy
 Gradient of SCF Energy
            1           2           3           4           5           6
    1   0.0088659  -0.0005565   0.0086013  -0.0008120   0.0067332  -0.0001840
    2  -0.0036182   0.0000919   0.0054794   0.0039314   0.0004555  -0.0035702
    3  -0.0075217  -0.0056112  -0.0085785   0.0024756  -0.0014935   0.0022061
            7           8           9          10          11          12
    1   0.0007468  -0.0030463  -0.0072100   0.0000715  -0.0001110  -0.0010220
    2  -0.0020976  -0.0003081  -0.0003235   0.0015031  -0.0003315  -0.0017034
    3   0.0013441   0.0014832   0.0046495   0.0010889   0.0003415  -0.0001432
           13          14          15          16          17          18
    1  -0.0002619  -0.0040262  -0.0003686  -0.0011064  -0.0074931   0.0019520
    2  -0.0000395  -0.0002700   0.0002563   0.0012839  -0.0006613  -0.0001448
    3   0.0008025   0.0022140   0.0003701  -0.0001561   0.0049012  -0.0084754
           19          20          21          22
    1  -0.0130845   0.0318901  -0.0037869  -0.0157916
    2  -0.0016146   0.0043719  -0.0005213  -0.0021693
    3   0.0091823  -0.0210737   0.0097208   0.0122735
 Max gradient component =       3.189E-02
 RMS gradient           =       6.718E-03
 Computing fast CPCM-SWIG gradient
 Updating gradient with PCM contributions...
 -- total gradient after adding PCM contribution --
---------------------------------------------------
  Atom         X              Y              Z     
---------------------------------------------------
   1       0.001605      -0.000261      -0.001061
   2      -0.000256       0.000027      -0.001675
   3       0.001616       0.000665      -0.000986
   4      -0.000250      -0.000009      -0.000371
   5       0.000568       0.000075      -0.000795
   6      -0.000183      -0.000136      -0.000387
   7      -0.000001       0.000078       0.000238
   8       0.000308       0.000151       0.001426
   9      -0.001293       0.000352       0.000347
  10       0.000002      -0.000204       0.000234
  11      -0.000789      -0.000413       0.000517
  12       0.000512       0.000360      -0.000296
  13       0.000077       0.000019       0.001474
  14      -0.000652      -0.000050      -0.000323
  15      -0.000860       0.000351       0.000498
  16       0.000578      -0.000337      -0.000258
  17      -0.001322      -0.000545       0.000341
  18      -0.009096      -0.001347       0.000328
  19       0.000698       0.000051      -0.002010
  20       0.026393       0.003641      -0.013560
  21      -0.000173      -0.000042       0.003318
  22      -0.017482      -0.002426       0.013002
---------------------------------------------------
 Number of fixed atoms: 0
 Gradient time:  CPU 128.19 s  wall 12.25 s
 Geometry Optimization Parameters
   NAtoms,    NIC,     NZ,  NCons,   NDum,   NFix, NCnnct, MaxDiis
       22     172       0       0       0       0       0       0


** GEOMETRY OPTIMIZATION IN DELOCALIZED INTERNAL COORDINATES **
   Searching for a Minimum

   Optimization Cycle:   1

                       Coordinates (Angstroms)
     ATOM                X               Y               Z
      1  C        -2.4083508923    0.9984834764   -2.3662547437
      2  C        -1.5543120384   -0.2118403749   -1.9459885704
      3  C        -2.2384976761   -1.5367925874   -2.3261896725
      4  C        -2.5867463449   -1.5816552836   -3.8234193167
      5  C        -3.4377297730   -0.3731774783   -4.2445934317
      6  C        -2.7551397527    0.9499468362   -3.8636626912
      7  H        -1.5849547626   -2.3750094827   -2.0545927530
      8  H        -0.5831065672   -0.1532425547   -2.4485260558
      9  H        -3.3388117820    1.0024650072   -1.7759883684
     10  H        -1.8720534969    1.9234708349   -2.1213670712
     11  H        -1.6555784977   -1.5918293252   -4.4093866053
     12  H        -3.1102152921   -2.5181807775   -4.0551406051
     13  H        -3.6290653549   -0.4033428377   -5.3251377272
     14  H        -4.4201020066   -0.4306546907   -3.7508934023
     15  H        -1.8320207629    1.0648782183   -4.4511997179
     16  H        -3.3973970401    1.8010825553   -4.1242295555
     17  H        -3.1618885583   -1.6469527918   -1.7346449512
     18  N        -1.2474445251   -0.1731895513   -0.5151412109
     19  H        -2.0131265263   -0.2687147311    0.1418849346
     20  C         0.0000000000    0.0000000000    0.0000000000
     21  H         0.0000000000    0.0000000000    1.1070732462
     22  O         1.0278769477    0.1402881570   -0.6492362509
   Point Group: c1    Number of degrees of freedom:    60


   Energy is   -404.603633793


 Attempting to generate delocalized internal coordinates
 Initial Hessian constructed with Jon Baker's OPTIMIZE code

 60 Hessian modes will be used to form the next step
  Hessian Eigenvalues:
     0.005967    0.006024    0.006964    0.007193    0.012605    0.019501
     0.019786    0.020845    0.020845    0.037215    0.038526    0.039417
     0.041724    0.048166    0.048450    0.048891    0.055292    0.055631
     0.055746    0.059934    0.066958    0.081508    0.081536    0.081616
     0.082032    0.082133    0.084029    0.087513    0.120967    0.121178
     0.142989    0.159989    0.160000    0.160554    0.174868    0.210947
     0.220000    0.220003    0.272263    0.272658    0.275535    0.286789
     0.287121    0.287175    0.329119    0.334466    0.334727    0.335769
     0.336541    0.336553    0.339301    0.339441    0.339454    0.340119
     0.340274    0.342312    0.364811    0.454000    0.528079    0.937134

 Minimum search - taking simple RFO step
 Searching for Lamda that Minimizes Along All modes
 Value Taken    Lamda =  -0.00094051
 Step Taken.  Stepsize is  0.112417

                             Maximum     Tolerance    Cnvgd?
         Gradient           0.010960      0.000100      NO
         Displacement       0.039243      0.000100      NO
         Energy change     *********      0.000000      NO


 New Cartesian Coordinates Obtained by Inverse Iteration

 Displacement from previous Coordinates is:  0.224711
 ----------------------------------------------------------------
             Standard Nuclear Orientation (Angstroms)
    I     Atom           X                Y                Z
 ----------------------------------------------------------------
    1      C      -2.4236467746     0.9944573980    -2.3538287327
    2      C      -1.5681872306    -0.2150038984    -1.9375047427
    3      C      -2.2554865058    -1.5378528471    -2.3155017114
    4      C      -2.5811257755    -1.5824007784    -3.8179245739
    5      C      -3.4225048321    -0.3713308548    -4.2534033198
    6      C      -2.7479789941     0.9520181694    -3.8563823211
    7      H      -1.6086076067    -2.3787513292    -2.0363790254
    8      H      -0.6056037499    -0.1582944065    -2.4576846615
    9      H      -3.3570750220     0.9878949066    -1.7720903407
   10      H      -1.8938220435     1.9208658443    -2.0996101105
   11      H      -1.6397756563    -1.5930200363    -4.3904189451
   12      H      -3.1049575788    -2.5181213365    -4.0554010901
   13      H      -3.5944464041    -0.3992234953    -5.3396428559
   14      H      -4.4112207981    -0.4290719630    -3.7744975766
   15      H      -1.8145181016     1.0685263441    -4.4300868150
   16      H      -3.3891363306     1.8036848161    -4.1212568505
   17      H      -3.1827107836    -1.6381613503    -1.7322123859
   18      N      -1.2452221979    -0.1743896116    -0.5115685883
   19      H      -1.9994602676    -0.2687148986     0.1621165164
   20      C       0.0012117837     0.0017458950    -0.0203004785
   21      H       0.0248986873     0.0062809903     1.0813372067
   22      O       1.0207114799     0.1448950606    -0.7043931178
 ----------------------------------------------------------------
 Nuclear Repulsion Energy =         467.14573034 hartrees
 There are       35 alpha and       35 beta electrons
 Discretize the solute cavity surface with Lebedev spheres
	Using 302 Lebedev grid points for each H atom
	Using 302 Lebedev grid points for other atoms
	Atomic van der Waals radii will be scaled by 1.20
 Remove points where switching function is < 1.0e-08
 Keep 2733 surface tesserae and discard 3911 interior tesserae
 Molecular Surface Area = 182.657 Angst**2
 Applying Cartesian multipole field
    Component          Value
    ---------          -----
     (0,0,1)       -3.89000E-03
 Nucleus-field energy     =     1.1431669463 hartrees
 Requested basis set is 6-31+G(d)
 There are 71 shells and 197 basis functions
 A cutoff of  1.0D-14 yielded   2414 shell pairs
 There are     19014 function pairs
 Smallest overlap matrix eigenvalue = 2.48E-05
 Guess MOs from SCF MO coefficient file

 -----------------------------------------------------------------------
  General SCF calculation program by
  Eric Jon Sundstrom, Paul Horn, Yuezhi Mao, Dmitri Zuev, Alec White,
  David Stuck, Shaama M.S., Shane Yost, Joonho Lee, David Small,
  Daniel Levine, Susi Lehtola, Hugh Burton, Evgeny Epifanovsky,
  Bang C. Huynh
 -----------------------------------------------------------------------
 Exchange:     0.2000 Hartree-Fock + 0.0800 Slater + 0.7200 B88
 Correlation:  0.1900 VWN1RPA + 0.8100 LYP
 Using Euler-Maclaurin-Lebedev (99,590) quadrature formula
 using 16 threads for integral computing
 -------------------------------------------------------
 OpenMP Integral computing Module                
 Release: version 2.0, May 2017, Q-Chem Inc. Pleasanton 
 -------------------------------------------------------
 A restricted SCF calculation will be
 performed using Roothaan-Hall, DIIS
 SCF converges when DIIS error is below 1.0e-09
 ---------------------------------------
  Cycle       Energy         DIIS error
 ---------------------------------------
    1    -404.5828254532      7.23e-04  Roothaan Step
 ---------------------------------------
  Cycle       Energy         DIIS error
 ---------------------------------------
    1    -404.5913909361      1.34e-03  
    2    -404.5736362263      2.83e-03  
    3    -404.6039773771      2.12e-04  
    4    -404.6041502129      1.22e-04  
    5    -404.6042059731      4.21e-05  
    6    -404.6042132809      9.54e-06  
    7    -404.6042136250      3.41e-06  
    8    -404.6042136799      5.34e-07  
    9    -404.6042136811      2.41e-07  
   10    -404.6042136813      5.16e-08  
   11    -404.6042136814      1.41e-08  
   12    -404.6042136814      3.37e-09  
   13    -404.6042136814      5.51e-10  Convergence criterion met
 ---------------------------------------
 SCF time:   CPU 938.12s  wall 62.00s 

************** Final PCM Free Energy Summary **************
 G_electrostatic  =      -0.02098599 hartree =     -13.16890862 kcal/mol
 G_cavitation     =       0.00000000 hartree =       0.00000000 kcal/mol
 G_dispersion     =       0.00000000 hartree =       0.00000000 kcal/mol
 G_repulsion      =       0.00000000 hartree =       0.00000000 kcal/mol
 --------------------------------------------------
 Non-electrostatic Free Energy =       0.00000000 hartree =       0.00000000 kcal/mol
 Total                         =      -0.02098599 hartree =     -13.16890862 kcal/mol
 --------------------------------------------------
 SCF Energy (H0 + V/2)                       =    -404.60421368 
 Solute Internal Energy (H0)                 =    -404.58322769 
 Total Free Energy (H0 + V/2 + non-elec)     =    -404.60421368 hartree
                                             = -253892.97609156 kcal/mol
***********************************************************

 SCF   energy in the final basis set =     -404.6042136814
 Total energy in the final basis set =     -404.6042136814
 
 --------------------------------------------------------------
 
                    Orbital Energies (a.u.)
 --------------------------------------------------------------
 
 Alpha MOs
 -- Occupied --
-19.1403 -14.3752 -10.2969 -10.2383 -10.2076 -10.2069 -10.2068 -10.1989
-10.1987  -1.0463  -0.9379  -0.8450  -0.7625  -0.7606  -0.6513  -0.6324
 -0.5993  -0.5845  -0.5360  -0.4982  -0.4771  -0.4615  -0.4601  -0.4312
 -0.4293  -0.4143  -0.4000  -0.3889  -0.3659  -0.3649  -0.3461  -0.3340
 -0.3301  -0.2764  -0.2683
 -- Virtual --
 -0.0239  -0.0028  -0.0009   0.0058   0.0081   0.0256   0.0299   0.0329
  0.0421   0.0466   0.0590   0.0708   0.0727   0.0741   0.0773   0.0833
  0.0917   0.0963   0.1079   0.1180   0.1260   0.1344   0.1366   0.1452
  0.1531   0.1555   0.1622   0.1696   0.1812   0.1840   0.1983   0.2025
  0.2050   0.2059   0.2150   0.2268   0.2374   0.2445   0.2536   0.2576
  0.2659   0.2684   0.2702   0.2773   0.2814   0.2923   0.2968   0.3117
  0.3139   0.3167   0.3428   0.3504   0.3594   0.3742   0.3951   0.4065
  0.4267   0.4447   0.4782   0.5913   0.6187   0.6343   0.6433   0.6494
  0.6620   0.6781   0.7078   0.7149   0.7330   0.7360   0.7638   0.7685
  0.7824   0.7880   0.8061   0.8323   0.8484   0.9005   0.9490   0.9548
  0.9560   0.9714   1.0004   1.0166   1.0189   1.0404   1.0697   1.0873
  1.1023   1.1039   1.1056   1.1334   1.1400   1.1526   1.1621   1.1705
  1.2233   1.2380   1.2739   1.3206   1.3311   1.3676   1.3729   1.4034
  1.4686   1.4763   1.4818   1.5459   1.5561   1.5936   1.6933   1.7128
  1.7165   1.7387   1.7588   1.7920   1.8388   1.8590   1.8860   1.8886
  1.8932   1.9256   1.9688   1.9922   1.9983   2.0314   2.0373   2.0701
  2.0775   2.1188   2.1856   2.2050   2.2689   2.2976   2.3025   2.3279
  2.3784   2.3920   2.3975   2.4009   2.4345   2.5490   2.5747   2.6039
  2.6497   2.6693   2.6894   2.7392   2.7659   2.8181   2.8584   2.9928
  3.1745   4.0850   4.1801   4.2172   4.2733   4.3156   4.4088   4.5793
  4.5905   4.6599
 --------------------------------------------------------------
 
          Ground-State Mulliken Net Atomic Charges

     Atom                 Charge (a.u.)
  ----------------------------------------
      1 C                    -0.261597
      2 C                    -0.442590
      3 C                    -0.286088
      4 C                    -0.454483
      5 C                    -0.376513
      6 C                    -0.457955
      7 H                     0.216867
      8 H                     0.218078
      9 H                     0.225355
     10 H                     0.215243
     11 H                     0.194823
     12 H                     0.196680
     13 H                     0.175835
     14 H                     0.210319
     15 H                     0.194598
     16 H                     0.195990
     17 H                     0.225558
     18 N                    -0.391486
     19 H                     0.463623
     20 C                     0.350775
     21 H                     0.210041
     22 O                    -0.623073
  ----------------------------------------
  Sum of atomic charges =     0.000000

 -----------------------------------------------------------------
                    Cartesian Multipole Moments
 -----------------------------------------------------------------
    Charge (ESU x 10^10)
                -0.0000
    Dipole Moment (Debye)
         X      -5.6543      Y      -0.7651      Z       2.1286
       Tot       6.0899
    Quadrupole Moments (Debye-Ang)
        XX     -53.8227     XY       0.3718     YY     -57.0509
        XZ       2.4162     YZ       0.4129     ZZ     -58.3549
    Octopole Moments (Debye-Ang^2)
       XXX     278.2828    XXY       8.7435    XYY     100.0629
       YYY      35.2496    XXZ     133.5762    XYZ       0.3787
       YYZ     130.4741    XZZ     105.4547    YZZ      11.9714
       ZZZ     408.3859
    Hexadecapole Moments (Debye-Ang^3)
      XXXX   -1740.7046   XXXY     -83.9525   XXYY    -362.4351
      XYYY     -88.5695   YYYY    -403.5967   XXXZ    -988.0370
      XXYZ     -37.6667   XYYZ    -326.8626   YYYZ    -111.7008
      XXZZ    -773.1231   XYZZ     -32.1981   YYZZ    -520.8073
      XZZZ   -1044.3309   YZZZ    -117.2112   ZZZZ   -2775.0595
 -----------------------------------------------------------------
 Calculating analytic gradient of the SCF energy
 Gradient of SCF Energy
            1           2           3           4           5           6
    1   0.0075671  -0.0004634   0.0073227  -0.0005891   0.0066047   0.0000293
    2  -0.0035869   0.0001019   0.0050960   0.0039689   0.0004219  -0.0034876
    3  -0.0069835  -0.0043197  -0.0082243   0.0029830  -0.0007433   0.0027030
            7           8           9          10          11          12
    1   0.0007814  -0.0033912  -0.0060610   0.0000647   0.0006892  -0.0014167
    2  -0.0022176  -0.0004580  -0.0007801   0.0017142   0.0001023  -0.0021441
    3   0.0012394   0.0001409   0.0045024   0.0009712  -0.0003181   0.0001520
           13          14          15          16          17          18
    1  -0.0003213  -0.0033307   0.0004770  -0.0015763  -0.0063148   0.0078874
    2  -0.0000382  -0.0002171  -0.0001117   0.0017220  -0.0000025   0.0008342
    3  -0.0007166   0.0024156  -0.0002478   0.0001188   0.0047715  -0.0093627
           19          20          21          22
    1  -0.0137477   0.0146868  -0.0048552  -0.0040426
    2  -0.0016216   0.0017212  -0.0005635  -0.0004539
    3   0.0118462  -0.0109169   0.0075270   0.0024621
 Max gradient component =       1.469E-02
 RMS gradient           =       4.721E-03
 Computing fast CPCM-SWIG gradient
 Updating gradient with PCM contributions...
 -- total gradient after adding PCM contribution --
---------------------------------------------------
  Atom         X              Y              Z     
---------------------------------------------------
   1       0.000178      -0.000282      -0.000369
   2      -0.000387      -0.000006      -0.000092
   3       0.000221       0.000279      -0.000446
   4      -0.000113       0.000026       0.000152
   5       0.000508       0.000052      -0.000060
   6      -0.000078      -0.000091       0.000159
   7       0.000016       0.000037       0.000059
   8       0.000218       0.000035      -0.000032
   9      -0.000035      -0.000006       0.000120
  10       0.000029      -0.000030       0.000053
  11       0.000054       0.000006      -0.000181
  12       0.000135      -0.000079      -0.000012
  13      -0.000011       0.000018      -0.000071
  14       0.000045       0.000004      -0.000099
  15       0.000054       0.000012      -0.000161
  16       0.000120       0.000111       0.000000
  17      -0.000036       0.000027       0.000131
  18      -0.003024      -0.000324      -0.000123
  19       0.000081       0.000036       0.000028
  20       0.009276       0.001005      -0.003066
  21      -0.001213      -0.000080       0.000810
  22      -0.006039      -0.000750       0.003201
---------------------------------------------------
 Number of fixed atoms: 0
 Gradient time:  CPU 127.11 s  wall 11.65 s
 Geometry Optimization Parameters
   NAtoms,    NIC,     NZ,  NCons,   NDum,   NFix, NCnnct, MaxDiis
       22     172       0       0       0       0       0       0

 Cartesian Hessian Update
 Hessian updated using BFGS update


** GEOMETRY OPTIMIZATION IN DELOCALIZED INTERNAL COORDINATES **
   Searching for a Minimum

   Optimization Cycle:   2

                       Coordinates (Angstroms)
     ATOM                X               Y               Z
      1  C        -2.4236467746    0.9944573980   -2.3538287327
      2  C        -1.5681872306   -0.2150038984   -1.9375047427
      3  C        -2.2554865058   -1.5378528471   -2.3155017114
      4  C        -2.5811257755   -1.5824007784   -3.8179245739
      5  C        -3.4225048321   -0.3713308548   -4.2534033198
      6  C        -2.7479789941    0.9520181694   -3.8563823211
      7  H        -1.6086076067   -2.3787513292   -2.0363790254
      8  H        -0.6056037499   -0.1582944065   -2.4576846615
      9  H        -3.3570750220    0.9878949066   -1.7720903407
     10  H        -1.8938220435    1.9208658443   -2.0996101105
     11  H        -1.6397756563   -1.5930200363   -4.3904189451
     12  H        -3.1049575788   -2.5181213365   -4.0554010901
     13  H        -3.5944464041   -0.3992234953   -5.3396428559
     14  H        -4.4112207981   -0.4290719630   -3.7744975766
     15  H        -1.8145181016    1.0685263441   -4.4300868150
     16  H        -3.3891363306    1.8036848161   -4.1212568505
     17  H        -3.1827107836   -1.6381613503   -1.7322123859
     18  N        -1.2452221979   -0.1743896116   -0.5115685883
     19  H        -1.9994602676   -0.2687148986    0.1621165164
     20  C         0.0012117837    0.0017458950   -0.0203004785
     21  H         0.0248986873    0.0062809903    1.0813372067
     22  O         1.0207114799    0.1448950606   -0.7043931178
   Point Group: c1    Number of degrees of freedom:    60


   Energy is   -404.604213681

 Hessian updated using BFGS update

 60 Hessian modes will be used to form the next step
  Hessian Eigenvalues:
     0.005900    0.005978    0.006917    0.007192    0.012604    0.019498
     0.019748    0.020845    0.020894    0.037032    0.038536    0.039415
     0.041639    0.048301    0.048450    0.048886    0.055293    0.055582
     0.055737    0.060195    0.066959    0.081531    0.081598    0.081845
     0.082080    0.082143    0.084684    0.087510    0.120626    0.120969
     0.142954    0.156593    0.160294    0.164619    0.174896    0.210292
     0.219956    0.230579    0.272228    0.272624    0.275534    0.286775
     0.287110    0.287178    0.325508    0.334525    0.334815    0.335793
     0.336547    0.337419    0.339401    0.339449    0.340119    0.340261
     0.340687    0.343712    0.363988    0.454178    0.484656    0.768074

 Minimum search - taking simple RFO step
 Searching for Lamda that Minimizes Along All modes
 Value Taken    Lamda =  -0.00014155
 Step Taken.  Stepsize is  0.058308

                             Maximum     Tolerance    Cnvgd?
         Gradient           0.003881      0.000100      NO
         Displacement       0.020227      0.000100      NO
         Energy change     -0.000580      0.000000      NO


 New Cartesian Coordinates Obtained by Inverse Iteration

 Displacement from previous Coordinates is:  0.103981
 ----------------------------------------------------------------
             Standard Nuclear Orientation (Angstroms)
    I     Atom           X                Y                Z
 ----------------------------------------------------------------
    1      C      -2.4316376746     0.9933442178    -2.3486237901
    2      C      -1.5737062188    -0.2158749712    -1.9347991296
    3      C      -2.2644342979    -1.5382468612    -2.3102680621
    4      C      -2.5796188555    -1.5827208721    -3.8150123948
    5      C      -3.4169125143    -0.3708235448    -4.2574899320
    6      C      -2.7462609465     0.9529046775    -3.8534227151
    7      H      -1.6219548336    -2.3811035880    -2.0269561210
    8      H      -0.6145550423    -0.1599136613    -2.4604274882
    9      H      -3.3681964095     0.9818638054    -1.7726677785
   10      H      -1.9060907439     1.9209086658    -2.0897839926
   11      H      -1.6330240063    -1.5941791697    -4.3787189802
   12      H      -3.1030760746    -2.5174731190    -4.0570104587
   13      H      -3.5768537871    -0.3980157941    -5.3457092142
   14      H      -4.4102716658    -0.4289136177    -3.7885510165
   15      H      -1.8079632161     1.0711440544    -4.4187871680
   16      H      -3.3868700103     1.8037143477    -4.1222627909
   17      H      -3.1955416925    -1.6342464919    -1.7331666835
   18      N      -1.2413322918    -0.1743376863    -0.5119014597
   19      H      -1.9920486440    -0.2706690342     0.1659913781
   20      C       0.0034486828     0.0054111979    -0.0285710123
   21      H       0.0424067412     0.0061695424     1.0707950822
   22      O       1.0258287990     0.1470905209    -0.7192907922
 ----------------------------------------------------------------
 Nuclear Repulsion Energy =         467.14189444 hartrees
 There are       35 alpha and       35 beta electrons
 Discretize the solute cavity surface with Lebedev spheres
	Using 302 Lebedev grid points for each H atom
	Using 302 Lebedev grid points for other atoms
	Atomic van der Waals radii will be scaled by 1.20
 Remove points where switching function is < 1.0e-08
 Keep 2737 surface tesserae and discard 3907 interior tesserae
 Molecular Surface Area = 182.618 Angst**2
 Applying Cartesian multipole field
    Component          Value
    ---------          -----
     (0,0,1)       -3.89000E-03
 Nucleus-field energy     =     1.1437034742 hartrees
 Requested basis set is 6-31+G(d)
 There are 71 shells and 197 basis functions
 A cutoff of  1.0D-14 yielded   2414 shell pairs
 There are     19014 function pairs
 Smallest overlap matrix eigenvalue = 2.50E-05
 Guess MOs from SCF MO coefficient file

 -----------------------------------------------------------------------
  General SCF calculation program by
  Eric Jon Sundstrom, Paul Horn, Yuezhi Mao, Dmitri Zuev, Alec White,
  David Stuck, Shaama M.S., Shane Yost, Joonho Lee, David Small,
  Daniel Levine, Susi Lehtola, Hugh Burton, Evgeny Epifanovsky,
  Bang C. Huynh
 -----------------------------------------------------------------------
 Exchange:     0.2000 Hartree-Fock + 0.0800 Slater + 0.7200 B88
 Correlation:  0.1900 VWN1RPA + 0.8100 LYP
 Using Euler-Maclaurin-Lebedev (99,590) quadrature formula
 using 16 threads for integral computing
 -------------------------------------------------------
 OpenMP Integral computing Module                
 Release: version 2.0, May 2017, Q-Chem Inc. Pleasanton 
 -------------------------------------------------------
 A restricted SCF calculation will be
 performed using Roothaan-Hall, DIIS
 SCF converges when DIIS error is below 1.0e-09
 ---------------------------------------
  Cycle       Energy         DIIS error
 ---------------------------------------
    1    -404.5829554021      6.67e-04  Roothaan Step
 ---------------------------------------
  Cycle       Energy         DIIS error
 ---------------------------------------
    1    -404.5908278409      1.37e-03  
    2    -404.5718452972      2.91e-03  
    3    -404.6040289731      2.20e-04  
    4    -404.6042185525      1.22e-04  
    5    -404.6042741153      4.33e-05  
    6    -404.6042817824      9.69e-06  
    7    -404.6042821371      3.48e-06  
    8    -404.6042821945      5.64e-07  
    9    -404.6042821958      2.51e-07  
   10    -404.6042821961      5.23e-08  
   11    -404.6042821961      1.42e-08  
   12    -404.6042821961      3.53e-09  
   13    -404.6042821961      5.39e-10  Convergence criterion met
 ---------------------------------------
 SCF time:   CPU 916.84s  wall 61.00s 

************** Final PCM Free Energy Summary **************
 G_electrostatic  =      -0.02144329 hartree =     -13.45587030 kcal/mol
 G_cavitation     =       0.00000000 hartree =       0.00000000 kcal/mol
 G_dispersion     =       0.00000000 hartree =       0.00000000 kcal/mol
 G_repulsion      =       0.00000000 hartree =       0.00000000 kcal/mol
 --------------------------------------------------
 Non-electrostatic Free Energy =       0.00000000 hartree =       0.00000000 kcal/mol
 Total                         =      -0.02144329 hartree =     -13.45587030 kcal/mol
 --------------------------------------------------
 SCF Energy (H0 + V/2)                       =    -404.60428220 
 Solute Internal Energy (H0)                 =    -404.58283890 
 Total Free Energy (H0 + V/2 + non-elec)     =    -404.60428220 hartree
                                             = -253893.01908523 kcal/mol
***********************************************************

 SCF   energy in the final basis set =     -404.6042821961
 Total energy in the final basis set =     -404.6042821961
 
 --------------------------------------------------------------
 
                    Orbital Energies (a.u.)
 --------------------------------------------------------------
 
 Alpha MOs
 -- Occupied --
-19.1397 -14.3763 -10.2969 -10.2386 -10.2077 -10.2069 -10.2069 -10.1991
-10.1988  -1.0435  -0.9388  -0.8453  -0.7626  -0.7610  -0.6520  -0.6323
 -0.6000  -0.5847  -0.5365  -0.4986  -0.4769  -0.4618  -0.4601  -0.4309
 -0.4287  -0.4141  -0.4002  -0.3879  -0.3661  -0.3650  -0.3462  -0.3344
 -0.3299  -0.2758  -0.2687
 -- Virtual --
 -0.0238  -0.0029  -0.0009   0.0051   0.0080   0.0255   0.0299   0.0328
  0.0421   0.0466   0.0589   0.0708   0.0726   0.0741   0.0772   0.0832
  0.0917   0.0963   0.1079   0.1180   0.1260   0.1343   0.1367   0.1454
  0.1529   0.1552   0.1625   0.1696   0.1811   0.1840   0.1978   0.2029
  0.2047   0.2061   0.2150   0.2267   0.2372   0.2446   0.2530   0.2569
  0.2654   0.2682   0.2706   0.2771   0.2815   0.2916   0.2969   0.3122
  0.3148   0.3164   0.3423   0.3505   0.3594   0.3747   0.3948   0.4065
  0.4262   0.4456   0.4758   0.5910   0.6186   0.6346   0.6432   0.6496
  0.6619   0.6783   0.7076   0.7148   0.7332   0.7362   0.7639   0.7681
  0.7823   0.7870   0.8056   0.8330   0.8489   0.9016   0.9485   0.9551
  0.9562   0.9714   1.0005   1.0163   1.0182   1.0395   1.0693   1.0872
  1.1015   1.1036   1.1055   1.1344   1.1390   1.1525   1.1628   1.1710
  1.2233   1.2379   1.2739   1.3221   1.3322   1.3669   1.3731   1.4037
  1.4665   1.4764   1.4827   1.5441   1.5559   1.5940   1.6945   1.7130
  1.7157   1.7380   1.7592   1.7920   1.8387   1.8580   1.8852   1.8893
  1.8936   1.9260   1.9698   1.9921   1.9991   2.0316   2.0377   2.0682
  2.0771   2.1193   2.1858   2.2044   2.2696   2.2969   2.3027   2.3271
  2.3776   2.3894   2.3967   2.4008   2.4346   2.5483   2.5745   2.6019
  2.6493   2.6683   2.6883   2.7396   2.7673   2.8179   2.8569   2.9870
  3.1743   4.0858   4.1803   4.2157   4.2730   4.3150   4.4075   4.5803
  4.5912   4.6600
 --------------------------------------------------------------
 
          Ground-State Mulliken Net Atomic Charges

     Atom                 Charge (a.u.)
  ----------------------------------------
      1 C                    -0.260803
      2 C                    -0.449987
      3 C                    -0.286627
      4 C                    -0.452141
      5 C                    -0.377240
      6 C                    -0.455786
      7 H                     0.217212
      8 H                     0.218377
      9 H                     0.225606
     10 H                     0.215529
     11 H                     0.195152
     12 H                     0.196602
     13 H                     0.175832
     14 H                     0.210291
     15 H                     0.194886
     16 H                     0.195909
     17 H                     0.225888
     18 N                    -0.385574
     19 H                     0.464472
     20 C                     0.350682
     21 H                     0.211072
     22 O                    -0.629352
  ----------------------------------------
  Sum of atomic charges =     0.000000

 -----------------------------------------------------------------
                    Cartesian Multipole Moments
 -----------------------------------------------------------------
    Charge (ESU x 10^10)
                 0.0000
    Dipole Moment (Debye)
         X      -5.7329      Y      -0.7828      Z       2.1630
       Tot       6.1772
    Quadrupole Moments (Debye-Ang)
        XX     -53.7933     XY       0.3800     YY     -57.0336
        XZ       2.5644     YZ       0.4352     ZZ     -58.3968
    Octopole Moments (Debye-Ang^2)
       XXX     277.7945    XXY       8.6436    XYY      99.9295
       YYY      35.1237    XXZ     133.5303    XYZ       0.3734
       YYZ     130.5026    XZZ     105.1990    YZZ      11.8886
       ZZZ     408.5291
    Hexadecapole Moments (Debye-Ang^3)
      XXXX   -1740.7779   XXXY     -83.9487   XXYY    -362.5039
      XYYY     -88.6683   YYYY    -403.4371   XXXZ    -986.2219
      XXYZ     -37.5101   XYYZ    -326.4445   YYYZ    -111.4999
      XXZZ    -772.6256   XYZZ     -32.1921   YYZZ    -520.4131
      XZZZ   -1043.1406   YZZZ    -116.9647   ZZZZ   -2773.2033
 -----------------------------------------------------------------
 Calculating analytic gradient of the SCF energy
 Gradient of SCF Energy
            1           2           3           4           5           6
    1   0.0073648  -0.0000138   0.0070035  -0.0004123   0.0061639   0.0001642
    2  -0.0034480   0.0000779   0.0049267   0.0039649   0.0003777  -0.0033903
    3  -0.0066828  -0.0041698  -0.0080091   0.0029922  -0.0006299   0.0026840
            7           8           9          10          11          12
    1   0.0007932  -0.0036513  -0.0060879   0.0000395   0.0008243  -0.0015141
    2  -0.0023409  -0.0004776  -0.0007824   0.0018295   0.0001256  -0.0021105
    3   0.0012280   0.0003244   0.0042852   0.0009730  -0.0001424   0.0001134
           13          14          15          16          17          18
    1  -0.0001876  -0.0033548   0.0006009  -0.0016629  -0.0063506   0.0103502
    2  -0.0000415  -0.0002172  -0.0001225   0.0016678  -0.0000477   0.0009312
    3  -0.0008260   0.0024089  -0.0000775   0.0000780   0.0045442  -0.0096125
           19          20          21          22
    1  -0.0140422   0.0057540  -0.0038782   0.0020973
    2  -0.0017791   0.0018716  -0.0009258  -0.0000894
    3   0.0121002  -0.0076522   0.0066943  -0.0006235
 Max gradient component =       1.404E-02
 RMS gradient           =       4.316E-03
 Computing fast CPCM-SWIG gradient
 Updating gradient with PCM contributions...
 -- total gradient after adding PCM contribution --
---------------------------------------------------
  Atom         X              Y              Z     
---------------------------------------------------
   1      -0.000133      -0.000097      -0.000031
   2       0.000073      -0.000051       0.000184
   3      -0.000176       0.000039      -0.000133
   4       0.000063      -0.000024       0.000119
   5       0.000032       0.000006      -0.000002
   6       0.000045       0.000032       0.000115
   7      -0.000002      -0.000017       0.000001
   8      -0.000001       0.000019       0.000125
   9       0.000025       0.000024      -0.000100
  10      -0.000009       0.000034       0.000015
  11       0.000180       0.000029      -0.000021
  12       0.000058      -0.000027      -0.000038
  13       0.000112       0.000016      -0.000175
  14       0.000065       0.000008      -0.000089
  15       0.000182       0.000004      -0.000006
  16       0.000052       0.000049      -0.000030
  17       0.000029      -0.000031      -0.000103
  18      -0.000569      -0.000258      -0.000260
  19      -0.000151      -0.000066       0.000116
  20       0.000338       0.001119       0.000195
  21      -0.000277      -0.000406      -0.000072
  22       0.000062      -0.000402       0.000191
---------------------------------------------------
 Number of fixed atoms: 0
 Gradient time:  CPU 128.86 s  wall 11.75 s
 Geometry Optimization Parameters
   NAtoms,    NIC,     NZ,  NCons,   NDum,   NFix, NCnnct, MaxDiis
       22     172       0       0       0       0       0       0

 Cartesian Hessian Update
 Hessian updated using BFGS update


** GEOMETRY OPTIMIZATION IN DELOCALIZED INTERNAL COORDINATES **
   Searching for a Minimum

   Optimization Cycle:   3

                       Coordinates (Angstroms)
     ATOM                X               Y               Z
      1  C        -2.4316376746    0.9933442178   -2.3486237901
      2  C        -1.5737062188   -0.2158749712   -1.9347991296
      3  C        -2.2644342979   -1.5382468612   -2.3102680621
      4  C        -2.5796188555   -1.5827208721   -3.8150123948
      5  C        -3.4169125143   -0.3708235448   -4.2574899320
      6  C        -2.7462609465    0.9529046775   -3.8534227151
      7  H        -1.6219548336   -2.3811035880   -2.0269561210
      8  H        -0.6145550423   -0.1599136613   -2.4604274882
      9  H        -3.3681964095    0.9818638054   -1.7726677785
     10  H        -1.9060907439    1.9209086658   -2.0897839926
     11  H        -1.6330240063   -1.5941791697   -4.3787189802
     12  H        -3.1030760746   -2.5174731190   -4.0570104587
     13  H        -3.5768537871   -0.3980157941   -5.3457092142
     14  H        -4.4102716658   -0.4289136177   -3.7885510165
     15  H        -1.8079632161    1.0711440544   -4.4187871680
     16  H        -3.3868700103    1.8037143477   -4.1222627909
     17  H        -3.1955416925   -1.6342464919   -1.7331666835
     18  N        -1.2413322918   -0.1743376863   -0.5119014597
     19  H        -1.9920486440   -0.2706690342    0.1659913781
     20  C         0.0034486828    0.0054111979   -0.0285710123
     21  H         0.0424067412    0.0061695424    1.0707950822
     22  O         1.0258287990    0.1470905209   -0.7192907922
   Point Group: c1    Number of degrees of freedom:    60


   Energy is   -404.604282196

 Hessian updated using BFGS update

 60 Hessian modes will be used to form the next step
  Hessian Eigenvalues:
     0.005762    0.005975    0.006893    0.007181    0.012594    0.019490
     0.019688    0.020845    0.023620    0.037268    0.038538    0.039421
     0.041700    0.048374    0.048449    0.048880    0.055295    0.055723
     0.055807    0.060207    0.066958    0.081533    0.081603    0.081912
     0.082122    0.082264    0.084592    0.087516    0.120213    0.120968
     0.143015    0.149775    0.160246    0.162804    0.174907    0.210289
     0.219687    0.234110    0.271858    0.272723    0.275534    0.286389
     0.286976    0.288275    0.327591    0.334543    0.334900    0.335781
     0.336547    0.337457    0.339409    0.339449    0.340118    0.340260
     0.341046    0.343285    0.365723    0.454474    0.459926    0.776839

 Minimum search - taking simple RFO step
 Searching for Lamda that Minimizes Along All modes
 Value Taken    Lamda =  -0.00002722
 Step Taken.  Stepsize is  0.035125

                             Maximum     Tolerance    Cnvgd?
         Gradient           0.000594      0.000100      NO
         Displacement       0.023988      0.000100      NO
         Energy change     -0.000069      0.000000      NO


 New Cartesian Coordinates Obtained by Inverse Iteration

 Displacement from previous Coordinates is:  0.049525
 ----------------------------------------------------------------
             Standard Nuclear Orientation (Angstroms)
    I     Atom           X                Y                Z
 ----------------------------------------------------------------
    1      C      -2.4306908209     0.9916252018    -2.3468336136
    2      C      -1.5738647353    -0.2190669015    -1.9345207518
    3      C      -2.2670997720    -1.5401341057    -2.3101584750
    4      C      -2.5811586372    -1.5831122422    -3.8154426125
    5      C      -3.4159743590    -0.3696283469    -4.2581664340
    6      C      -2.7443264726     0.9529720516    -3.8521215440
    7      H      -1.6267328867    -2.3844944989    -2.0266640606
    8      H      -0.6154232415    -0.1642423830    -2.4614506707
    9      H      -3.3677112313     0.9798146863    -1.7715153905
   10      H      -1.9046794824     1.9184485601    -2.0865124149
   11      H      -1.6340592644    -1.5959747972    -4.3779468363
   12      H      -3.1061160116    -2.5165849784    -4.0588637414
   13      H      -3.5737761448    -0.3957546354    -5.3465675185
   14      H      -4.4102872595    -0.4267676676    -3.7911702194
   15      H      -1.8055166225     1.0710031133    -4.4163669397
   16      H      -3.3840206897     1.8043878297    -4.1209424040
   17      H      -3.1990074724    -1.6340383543    -1.7339005294
   18      N      -1.2398275295    -0.1792912352    -0.5118179156
   19      H      -1.9902932352    -0.2762383411     0.1661795663
   20      C       0.0038418351     0.0020456244    -0.0295084874
   21      H       0.0446091408     0.0178755224     1.0696202075
   22      O       1.0234501902     0.1631885161    -0.7219637345
 ----------------------------------------------------------------
 Nuclear Repulsion Energy =         467.15627512 hartrees
 There are       35 alpha and       35 beta electrons
 Discretize the solute cavity surface with Lebedev spheres
	Using 302 Lebedev grid points for each H atom
	Using 302 Lebedev grid points for other atoms
	Atomic van der Waals radii will be scaled by 1.20
 Remove points where switching function is < 1.0e-08
 Keep 2738 surface tesserae and discard 3906 interior tesserae
 Molecular Surface Area = 182.604 Angst**2
 Applying Cartesian multipole field
    Component          Value
    ---------          -----
     (0,0,1)       -3.89000E-03
 Nucleus-field energy     =     1.1437845837 hartrees
 Requested basis set is 6-31+G(d)
 There are 71 shells and 197 basis functions
 A cutoff of  1.0D-14 yielded   2413 shell pairs
 There are     19013 function pairs
 Smallest overlap matrix eigenvalue = 2.50E-05
 Guess MOs from SCF MO coefficient file

 -----------------------------------------------------------------------
  General SCF calculation program by
  Eric Jon Sundstrom, Paul Horn, Yuezhi Mao, Dmitri Zuev, Alec White,
  David Stuck, Shaama M.S., Shane Yost, Joonho Lee, David Small,
  Daniel Levine, Susi Lehtola, Hugh Burton, Evgeny Epifanovsky,
  Bang C. Huynh
 -----------------------------------------------------------------------
 Exchange:     0.2000 Hartree-Fock + 0.0800 Slater + 0.7200 B88
 Correlation:  0.1900 VWN1RPA + 0.8100 LYP
 Using Euler-Maclaurin-Lebedev (99,590) quadrature formula
 using 16 threads for integral computing
 -------------------------------------------------------
 OpenMP Integral computing Module                
 Release: version 2.0, May 2017, Q-Chem Inc. Pleasanton 
 -------------------------------------------------------
 A restricted SCF calculation will be
 performed using Roothaan-Hall, DIIS
 SCF converges when DIIS error is below 1.0e-09
 ---------------------------------------
  Cycle       Energy         DIIS error
 ---------------------------------------
    1    -404.5826065514      6.80e-04  Roothaan Step
 ---------------------------------------
  Cycle       Energy         DIIS error
 ---------------------------------------
    1    -404.5907956167      1.37e-03  
    2    -404.5722015065      2.90e-03  
    3    -404.6040073865      2.20e-04  
    4    -404.6041976125      1.21e-04  
    5    -404.6042521013      4.37e-05  
    6    -404.6042599208      9.71e-06  
    7    -404.6042602764      3.49e-06  
    8    -404.6042603341      5.69e-07  
    9    -404.6042603355      2.52e-07  
   10    -404.6042603358      5.29e-08  
   11    -404.6042603358      1.41e-08  
   12    -404.6042603358      3.59e-09  
   13    -404.6042603358      5.33e-10  Convergence criterion met
 ---------------------------------------
 SCF time:   CPU 926.53s  wall 62.00s 

************** Final PCM Free Energy Summary **************
 G_electrostatic  =      -0.02153623 hartree =     -13.51418874 kcal/mol
 G_cavitation     =       0.00000000 hartree =       0.00000000 kcal/mol
 G_dispersion     =       0.00000000 hartree =       0.00000000 kcal/mol
 G_repulsion      =       0.00000000 hartree =       0.00000000 kcal/mol
 --------------------------------------------------
 Non-electrostatic Free Energy =       0.00000000 hartree =       0.00000000 kcal/mol
 Total                         =      -0.02153623 hartree =     -13.51418874 kcal/mol
 --------------------------------------------------
 SCF Energy (H0 + V/2)                       =    -404.60426034 
 Solute Internal Energy (H0)                 =    -404.58272411 
 Total Free Energy (H0 + V/2 + non-elec)     =    -404.60426034 hartree
                                             = -253893.00536767 kcal/mol
***********************************************************

 SCF   energy in the final basis set =     -404.6042603358
 Total energy in the final basis set =     -404.6042603358
 
 --------------------------------------------------------------
 
                    Orbital Energies (a.u.)
 --------------------------------------------------------------
 
 Alpha MOs
 -- Occupied --
-19.1395 -14.3765 -10.2969 -10.2387 -10.2077 -10.2069 -10.2068 -10.1991
-10.1989  -1.0430  -0.9389  -0.8454  -0.7625  -0.7611  -0.6520  -0.6323
 -0.6001  -0.5848  -0.5367  -0.4987  -0.4769  -0.4619  -0.4601  -0.4310
 -0.4285  -0.4141  -0.4002  -0.3877  -0.3661  -0.3650  -0.3462  -0.3345
 -0.3299  -0.2756  -0.2687
 -- Virtual --
 -0.0238  -0.0029  -0.0009   0.0050   0.0081   0.0255   0.0299   0.0328
  0.0421   0.0466   0.0589   0.0708   0.0726   0.0741   0.0772   0.0832
  0.0917   0.0963   0.1079   0.1180   0.1260   0.1343   0.1368   0.1454
  0.1529   0.1552   0.1626   0.1696   0.1809   0.1841   0.1977   0.2029
  0.2047   0.2061   0.2151   0.2267   0.2370   0.2446   0.2528   0.2569
  0.2654   0.2680   0.2707   0.2769   0.2816   0.2916   0.2969   0.3122
  0.3150   0.3164   0.3422   0.3504   0.3594   0.3753   0.3947   0.4065
  0.4262   0.4457   0.4754   0.5909   0.6186   0.6345   0.6432   0.6496
  0.6619   0.6783   0.7076   0.7148   0.7323   0.7371   0.7638   0.7681
  0.7823   0.7869   0.8052   0.8334   0.8489   0.9016   0.9483   0.9552
  0.9563   0.9714   1.0005   1.0163   1.0182   1.0393   1.0691   1.0873
  1.1014   1.1036   1.1055   1.1346   1.1388   1.1524   1.1628   1.1711
  1.2235   1.2373   1.2740   1.3218   1.3329   1.3673   1.3727   1.4036
  1.4679   1.4741   1.4829   1.5443   1.5559   1.5935   1.6948   1.7129
  1.7156   1.7381   1.7592   1.7923   1.8381   1.8588   1.8849   1.8897
  1.8935   1.9257   1.9699   1.9920   1.9992   2.0316   2.0376   2.0678
  2.0771   2.1195   2.1859   2.2040   2.2703   2.2968   2.3027   2.3270
  2.3776   2.3890   2.3965   2.4009   2.4346   2.5481   2.5745   2.6016
  2.6493   2.6679   2.6883   2.7398   2.7675   2.8177   2.8565   2.9861
  3.1744   4.0859   4.1803   4.2156   4.2729   4.3150   4.4070   4.5804
  4.5913   4.6597
 --------------------------------------------------------------
 
          Ground-State Mulliken Net Atomic Charges

     Atom                 Charge (a.u.)
  ----------------------------------------
      1 C                    -0.261321
      2 C                    -0.450583
      3 C                    -0.286021
      4 C                    -0.451939
      5 C                    -0.377503
      6 C                    -0.455566
      7 H                     0.217267
      8 H                     0.218484
      9 H                     0.225661
     10 H                     0.215637
     11 H                     0.195227
     12 H                     0.196564
     13 H                     0.175883
     14 H                     0.210289
     15 H                     0.194982
     16 H                     0.195955
     17 H                     0.225871
     18 N                    -0.384618
     19 H                     0.464641
     20 C                     0.350260
     21 H                     0.211373
     22 O                    -0.630541
  ----------------------------------------
  Sum of atomic charges =     0.000000

 -----------------------------------------------------------------
                    Cartesian Multipole Moments
 -----------------------------------------------------------------
    Charge (ESU x 10^10)
                -0.0000
    Dipole Moment (Debye)
         X      -5.7416      Y      -0.8261      Z       2.1678
       Tot       6.1926
    Quadrupole Moments (Debye-Ang)
        XX     -53.7677     XY       0.3286     YY     -57.0459
        XZ       2.5931     YZ       0.4836     ZZ     -58.3871
    Octopole Moments (Debye-Ang^2)
       XXX     277.7458    XXY       8.5623    XYY      99.8954
       YYY      35.0620    XXZ     133.4824    XYZ       0.4204
       YYZ     130.5157    XZZ     105.1156    YZZ      11.8567
       ZZZ     408.4496
    Hexadecapole Moments (Debye-Ang^3)
      XXXX   -1740.1434   XXXY     -84.7566   XXYY    -362.4959
      XYYY     -89.5187   YYYY    -403.8282   XXXZ    -985.7900
      XXYZ     -37.5456   XYYZ    -326.3621   YYYZ    -111.6279
      XXZZ    -772.2788   XYZZ     -32.5044   YYZZ    -520.4006
      XZZZ   -1042.6230   YZZZ    -117.0593   ZZZZ   -2772.3548
 -----------------------------------------------------------------
 Calculating analytic gradient of the SCF energy
 Gradient of SCF Energy
            1           2           3           4           5           6
    1   0.0073840  -0.0000036   0.0071564  -0.0003811   0.0061095   0.0002121
    2  -0.0033306   0.0002783   0.0048891   0.0040185   0.0003616  -0.0033558
    3  -0.0066688  -0.0041764  -0.0078666   0.0028834  -0.0006964   0.0025369
            7           8           9          10          11          12
    1   0.0008068  -0.0036906  -0.0061504  -0.0000039   0.0007640  -0.0015186
    2  -0.0023868  -0.0005373  -0.0008100   0.0017788   0.0001102  -0.0020655
    3   0.0012484   0.0002918   0.0042946   0.0009759  -0.0000796   0.0000783
           13          14          15          16          17          18
    1  -0.0001465  -0.0033658   0.0005135  -0.0016551  -0.0064123   0.0110760
    2  -0.0000431  -0.0002187  -0.0001247   0.0016055  -0.0000245   0.0017862
    3  -0.0007360   0.0023896  -0.0000194   0.0000385   0.0045537  -0.0095004
           19          20          21          22
    1  -0.0140589   0.0043858  -0.0037481   0.0027268
    2  -0.0015278  -0.0024901   0.0005436   0.0015432
    3   0.0120464  -0.0071517   0.0067182  -0.0011606
 Max gradient component =       1.406E-02
 RMS gradient           =       4.315E-03
 Computing fast CPCM-SWIG gradient
 Updating gradient with PCM contributions...
 -- total gradient after adding PCM contribution --
---------------------------------------------------
  Atom         X              Y              Z     
---------------------------------------------------
   1      -0.000092      -0.000013      -0.000013
   2       0.000076       0.000131       0.000184
   3      -0.000071      -0.000054       0.000043
   4       0.000108       0.000003      -0.000024
   5      -0.000029       0.000001      -0.000080
   6       0.000076       0.000054      -0.000019
   7      -0.000020      -0.000023       0.000003
   8      -0.000039      -0.000010       0.000089
   9      -0.000024       0.000006      -0.000090
  10      -0.000019       0.000015       0.000022
  11       0.000105       0.000019       0.000043
  12       0.000062       0.000026      -0.000067
  13       0.000151       0.000015      -0.000081
  14       0.000063       0.000006      -0.000103
  15       0.000109       0.000007       0.000050
  16       0.000060      -0.000008      -0.000066
  17      -0.000017      -0.000018      -0.000101
  18       0.000158       0.000630      -0.000133
  19      -0.000146       0.000165       0.000045
  20      -0.001029      -0.003199       0.000688
  21      -0.000155       0.000996      -0.000059
  22       0.000673       0.001253      -0.000330
---------------------------------------------------
 Number of fixed atoms: 0
 Gradient time:  CPU 129.58 s  wall 11.84 s
 Geometry Optimization Parameters
   NAtoms,    NIC,     NZ,  NCons,   NDum,   NFix, NCnnct, MaxDiis
       22     172       0       0       0       0       0       0

 Cartesian Hessian Update
 Hessian updated using BFGS update


** GEOMETRY OPTIMIZATION IN DELOCALIZED INTERNAL COORDINATES **
   Searching for a Minimum

   Optimization Cycle:   4

                       Coordinates (Angstroms)
     ATOM                X               Y               Z
      1  C        -2.4306908209    0.9916252018   -2.3468336136
      2  C        -1.5738647353   -0.2190669015   -1.9345207518
      3  C        -2.2670997720   -1.5401341057   -2.3101584750
      4  C        -2.5811586372   -1.5831122422   -3.8154426125
      5  C        -3.4159743590   -0.3696283469   -4.2581664340
      6  C        -2.7443264726    0.9529720516   -3.8521215440
      7  H        -1.6267328867   -2.3844944989   -2.0266640606
      8  H        -0.6154232415   -0.1642423830   -2.4614506707
      9  H        -3.3677112313    0.9798146863   -1.7715153905
     10  H        -1.9046794824    1.9184485601   -2.0865124149
     11  H        -1.6340592644   -1.5959747972   -4.3779468363
     12  H        -3.1061160116   -2.5165849784   -4.0588637414
     13  H        -3.5737761448   -0.3957546354   -5.3465675185
     14  H        -4.4102872595   -0.4267676676   -3.7911702194
     15  H        -1.8055166225    1.0710031133   -4.4163669397
     16  H        -3.3840206897    1.8043878297   -4.1209424040
     17  H        -3.1990074724   -1.6340383543   -1.7339005294
     18  N        -1.2398275295   -0.1792912352   -0.5118179156
     19  H        -1.9902932352   -0.2762383411    0.1661795663
     20  C         0.0038418351    0.0020456244   -0.0295084874
     21  H         0.0446091408    0.0178755224    1.0696202075
     22  O         1.0234501902    0.1631885161   -0.7219637345
   Point Group: c1    Number of degrees of freedom:    60


   Energy is   -404.604260336

 Hessian updated using BFGS update

 60 Hessian modes will be used to form the next step
  Hessian Eigenvalues:
     0.005894    0.005976    0.006936    0.007125    0.012611    0.019499
     0.019786    0.020845    0.037110    0.038536    0.039416    0.041658
     0.048318    0.048449    0.048877    0.055289    0.055603    0.055728
     0.060167    0.066917    0.081524    0.081598    0.081896    0.082014
     0.082148    0.084328    0.085567    0.087792    0.120278    0.120968
     0.143085    0.149479    0.160129    0.162861    0.175161    0.210325
     0.219279    0.232143    0.272028    0.272706    0.275536    0.286124
     0.286910    0.287539    0.326819    0.334535    0.334842    0.335740
     0.336547    0.337045    0.339401    0.339448    0.340009    0.340198
     0.340275    0.343219    0.364244    0.454454    0.461484    0.779263

 Minimum search - taking simple RFO step
 Searching for Lamda that Minimizes Along All modes
 Value Taken    Lamda =  -0.00005259
 Step Taken.  Stepsize is  0.025694

                             Maximum     Tolerance    Cnvgd?
         Gradient           0.001678      0.000100      NO
         Displacement       0.019415      0.000100      NO
         Energy change      0.000022      0.000000      NO


 New Cartesian Coordinates Obtained by Inverse Iteration

 Displacement from previous Coordinates is:  0.031956
 ----------------------------------------------------------------
             Standard Nuclear Orientation (Angstroms)
    I     Atom           X                Y                Z
 ----------------------------------------------------------------
    1      C      -2.4303771923     0.9927642982    -2.3482700658
    2      C      -1.5731500707    -0.2171698661    -1.9349773309
    3      C      -2.2648134300    -1.5389851937    -2.3104450080
    4      C      -2.5805199733    -1.5829078328    -3.8153686506
    5      C      -3.4167794418    -0.3703240508    -4.2575440809
    6      C      -2.7454939891     0.9528773466    -3.8532070613
    7      H      -1.6231284779    -2.3824215810    -2.0272051550
    8      H      -0.6141559817    -0.1617335762    -2.4610171477
    9      H      -3.3668882708     0.9812747717    -1.7720061594
   10      H      -1.9043532705     1.9198867229    -2.0890775755
   11      H      -1.6342738089    -1.5952817131    -4.3793251070
   12      H      -3.1049339525    -2.5170015940    -4.0576031948
   13      H      -3.5764747028    -0.3971589736    -5.3456312712
   14      H      -4.4103239356    -0.4278903398    -3.7889448048
   15      H      -1.8075683701     1.0710998397    -4.4188811838
   16      H      -3.3859239656     1.8038408882    -4.1217253141
   17      H      -3.1960304742    -1.6339361607    -1.7331227974
   18      N      -1.2409209809    -0.1764711891    -0.5116851281
   19      H      -1.9918878918    -0.2743708092     0.1655320735
   20      C       0.0027464815     0.0055452094    -0.0280654913
   21      H       0.0428497258     0.0100678004     1.0715061431
   22      O       1.0237372706     0.1543286216    -0.7195702092
 ----------------------------------------------------------------
 Nuclear Repulsion Energy =         467.15808969 hartrees
 There are       35 alpha and       35 beta electrons
 Discretize the solute cavity surface with Lebedev spheres
	Using 302 Lebedev grid points for each H atom
	Using 302 Lebedev grid points for other atoms
	Atomic van der Waals radii will be scaled by 1.20
 Remove points where switching function is < 1.0e-08
 Keep 2736 surface tesserae and discard 3908 interior tesserae
 Molecular Surface Area = 182.611 Angst**2
 Applying Cartesian multipole field
    Component          Value
    ---------          -----
     (0,0,1)       -3.89000E-03
 Nucleus-field energy     =     1.1436969406 hartrees
 Requested basis set is 6-31+G(d)
 There are 71 shells and 197 basis functions
 A cutoff of  1.0D-14 yielded   2414 shell pairs
 There are     19014 function pairs
 Smallest overlap matrix eigenvalue = 2.49E-05
 Guess MOs from SCF MO coefficient file

 -----------------------------------------------------------------------
  General SCF calculation program by
  Eric Jon Sundstrom, Paul Horn, Yuezhi Mao, Dmitri Zuev, Alec White,
  David Stuck, Shaama M.S., Shane Yost, Joonho Lee, David Small,
  Daniel Levine, Susi Lehtola, Hugh Burton, Evgeny Epifanovsky,
  Bang C. Huynh
 -----------------------------------------------------------------------
 Exchange:     0.2000 Hartree-Fock + 0.0800 Slater + 0.7200 B88
 Correlation:  0.1900 VWN1RPA + 0.8100 LYP
 Using Euler-Maclaurin-Lebedev (99,590) quadrature formula
 using 16 threads for integral computing
 -------------------------------------------------------
 OpenMP Integral computing Module                
 Release: version 2.0, May 2017, Q-Chem Inc. Pleasanton 
 -------------------------------------------------------
 A restricted SCF calculation will be
 performed using Roothaan-Hall, DIIS
 SCF converges when DIIS error is below 1.0e-09
 ---------------------------------------
  Cycle       Energy         DIIS error
 ---------------------------------------
    1    -404.5827060848      6.75e-04  Roothaan Step
 ---------------------------------------
  Cycle       Energy         DIIS error
 ---------------------------------------
    1    -404.5909807772      1.35e-03  
    2    -404.5729699638      2.86e-03  
    3    -404.6040377338      2.18e-04  
    4    -404.6042248323      1.20e-04  
    5    -404.6042784986      4.37e-05  
    6    -404.6042863067      9.71e-06  
    7    -404.6042866627      3.49e-06  
    8    -404.6042867204      5.70e-07  
    9    -404.6042867217      2.52e-07  
   10    -404.6042867220      5.27e-08  
   11    -404.6042867220      1.42e-08  
   12    -404.6042867220      3.59e-09  
   13    -404.6042867220      5.34e-10  Convergence criterion met
 ---------------------------------------
 SCF time:   CPU 924.14s  wall 62.00s 

************** Final PCM Free Energy Summary **************
 G_electrostatic  =      -0.02146586 hartree =     -13.47003290 kcal/mol
 G_cavitation     =       0.00000000 hartree =       0.00000000 kcal/mol
 G_dispersion     =       0.00000000 hartree =       0.00000000 kcal/mol
 G_repulsion      =       0.00000000 hartree =       0.00000000 kcal/mol
 --------------------------------------------------
 Non-electrostatic Free Energy =       0.00000000 hartree =       0.00000000 kcal/mol
 Total                         =      -0.02146586 hartree =     -13.47003290 kcal/mol
 --------------------------------------------------
 SCF Energy (H0 + V/2)                       =    -404.60428672 
 Solute Internal Energy (H0)                 =    -404.58282086 
 Total Free Energy (H0 + V/2 + non-elec)     =    -404.60428672 hartree
                                             = -253893.02192527 kcal/mol
***********************************************************

 SCF   energy in the final basis set =     -404.6042867220
 Total energy in the final basis set =     -404.6042867220
 
 --------------------------------------------------------------
 
                    Orbital Energies (a.u.)
 --------------------------------------------------------------
 
 Alpha MOs
 -- Occupied --
-19.1396 -14.3763 -10.2969 -10.2387 -10.2077 -10.2069 -10.2068 -10.1991
-10.1989  -1.0434  -0.9388  -0.8453  -0.7625  -0.7610  -0.6519  -0.6323
 -0.6000  -0.5847  -0.5366  -0.4986  -0.4769  -0.4618  -0.4601  -0.4310
 -0.4286  -0.4141  -0.4001  -0.3879  -0.3661  -0.3650  -0.3462  -0.3344
 -0.3300  -0.2757  -0.2687
 -- Virtual --
 -0.0238  -0.0029  -0.0009   0.0052   0.0080   0.0255   0.0299   0.0328
  0.0421   0.0466   0.0589   0.0708   0.0726   0.0741   0.0772   0.0832
  0.0917   0.0963   0.1079   0.1180   0.1260   0.1343   0.1368   0.1454
  0.1529   0.1552   0.1625   0.1696   0.1810   0.1841   0.1978   0.2029
  0.2047   0.2061   0.2151   0.2267   0.2371   0.2445   0.2530   0.2569
  0.2654   0.2682   0.2706   0.2770   0.2815   0.2916   0.2969   0.3121
  0.3149   0.3164   0.3423   0.3504   0.3594   0.3751   0.3948   0.4065
  0.4264   0.4456   0.4758   0.5910   0.6186   0.6345   0.6433   0.6496
  0.6619   0.6782   0.7076   0.7147   0.7330   0.7365   0.7638   0.7682
  0.7823   0.7871   0.8054   0.8330   0.8489   0.9015   0.9484   0.9551
  0.9562   0.9714   1.0005   1.0164   1.0183   1.0395   1.0692   1.0873
  1.1016   1.1036   1.1055   1.1345   1.1389   1.1524   1.1627   1.1710
  1.2233   1.2378   1.2740   1.3220   1.3323   1.3670   1.3731   1.4036
  1.4669   1.4760   1.4826   1.5443   1.5558   1.5934   1.6945   1.7130
  1.7157   1.7381   1.7593   1.7922   1.8387   1.8585   1.8853   1.8894
  1.8934   1.9258   1.9696   1.9920   1.9990   2.0315   2.0376   2.0681
  2.0773   2.1195   2.1858   2.2042   2.2701   2.2974   2.3026   2.3271
  2.3777   2.3893   2.3966   2.4009   2.4345   2.5481   2.5745   2.6018
  2.6494   2.6683   2.6884   2.7396   2.7674   2.8177   2.8568   2.9870
  3.1744   4.0858   4.1803   4.2158   4.2730   4.3151   4.4073   4.5803
  4.5912   4.6598
 --------------------------------------------------------------
 
          Ground-State Mulliken Net Atomic Charges

     Atom                 Charge (a.u.)
  ----------------------------------------
      1 C                    -0.260516
      2 C                    -0.449662
      3 C                    -0.286720
      4 C                    -0.452222
      5 C                    -0.377385
      6 C                    -0.455973
      7 H                     0.217254
      8 H                     0.218488
      9 H                     0.225586
     10 H                     0.215562
     11 H                     0.195183
     12 H                     0.196609
     13 H                     0.175884
     14 H                     0.210293
     15 H                     0.194925
     16 H                     0.195945
     17 H                     0.225847
     18 N                    -0.385580
     19 H                     0.464499
     20 C                     0.350456
     21 H                     0.211221
     22 O                    -0.629693
  ----------------------------------------
  Sum of atomic charges =     0.000000

 -----------------------------------------------------------------
[...]

 Mode:                40                     41                     42
 Frequency:      1406.45                1493.81                1494.55
 Force Cnst:      1.7184                 1.4312                 1.4303
 Red. Mass:       1.4744                 1.0886                 1.0868
 IR Active:          YES                    YES                    YES
 IR Intens:        0.758                  0.347                  4.369
 Raman Active:       YES                    YES                    YES
               X      Y      Z        X      Y      Z        X      Y      Z
 C          0.042 -0.052  0.091    0.017 -0.026 -0.032    0.005 -0.006  0.010
 C         -0.053  0.004 -0.095    0.001 -0.018 -0.001   -0.001  0.003 -0.007
 C          0.040  0.055  0.088   -0.010 -0.018  0.030    0.007  0.012  0.002
 C          0.009 -0.034  0.014   -0.015  0.025  0.032   -0.014  0.018  0.007
 C         -0.008  0.001 -0.002   -0.012  0.013 -0.005   -0.063 -0.006 -0.029
 C          0.005  0.036  0.013    0.009  0.021 -0.031   -0.016 -0.028  0.019
 H         -0.112 -0.190 -0.338    0.226  0.099 -0.189   -0.060 -0.028  0.038
 H          0.255 -0.040  0.452   -0.004  0.082 -0.002    0.014 -0.012  0.021
 H         -0.176  0.130 -0.271    0.121  0.323  0.158   -0.029  0.015 -0.043
 H         -0.126  0.156 -0.324   -0.298  0.098  0.230    0.004 -0.002 -0.013
 H         -0.004  0.024 -0.013   -0.121 -0.310 -0.153   -0.037 -0.200 -0.032
 H         -0.094  0.081 -0.201    0.281 -0.094 -0.222    0.147 -0.048 -0.131
 H         -0.066 -0.008  0.000    0.095  0.013 -0.018    0.573  0.028 -0.102
 H         -0.042 -0.004 -0.060    0.041 -0.065  0.091    0.220  0.030  0.541
 H         -0.000 -0.033 -0.012    0.142 -0.243  0.155   -0.110  0.290 -0.092
 H         -0.092 -0.101 -0.197   -0.238 -0.107  0.189    0.231  0.100 -0.205
 H         -0.153 -0.124 -0.261   -0.133  0.230 -0.146    0.010 -0.084 -0.003
 N         -0.006 -0.003 -0.034   -0.001  0.000 -0.000   -0.001 -0.000 -0.001
 H          0.112  0.016  0.099    0.003  0.001  0.004    0.007  0.001  0.007
 C          0.010  0.002  0.026    0.001  0.000  0.000    0.001  0.000  0.001
 H          0.007  0.002  0.040    0.000 -0.001  0.001    0.000  0.000  0.002
 O          0.002  0.000 -0.006   -0.000 -0.000 -0.000    0.000  0.000 -0.000
 TransDip   0.015  0.012  0.020    0.008  0.016  0.006    0.065  0.004 -0.013

 Mode:                43                     44                     45
 Frequency:      1498.80                1500.13                1511.95
 Force Cnst:      1.4532                 1.4519                 1.4834
 Red. Mass:       1.0980                 1.0950                 1.1014
 IR Active:          YES                    YES                    YES
 IR Intens:        8.102                 10.021                  0.670
 Raman Active:       YES                    YES                    YES
               X      Y      Z        X      Y      Z        X      Y      Z
 C          0.018 -0.043 -0.035   -0.012  0.018  0.008   -0.011  0.031  0.019
 C         -0.002  0.002 -0.005    0.004  0.000  0.013   -0.001 -0.001  0.013
 C         -0.002 -0.016  0.017   -0.018 -0.047  0.034   -0.009 -0.034  0.022
 C          0.016 -0.042 -0.035   -0.007  0.014  0.011    0.011 -0.033 -0.019
 C         -0.007  0.004 -0.005    0.024  0.004  0.016   -0.034 -0.002 -0.026
 C         -0.004 -0.022  0.020   -0.010 -0.037  0.029    0.007  0.033 -0.020
 H          0.120  0.034 -0.119    0.371  0.157 -0.285    0.252  0.094 -0.208
 H          0.006  0.003  0.005   -0.015  0.006 -0.015   -0.015  0.002 -0.009
 H          0.124  0.417  0.165   -0.045 -0.173 -0.054   -0.075 -0.291 -0.099
 H         -0.350  0.097  0.279    0.153 -0.059 -0.090    0.237 -0.063 -0.189
 H          0.130  0.399  0.165   -0.059 -0.141 -0.077    0.078  0.277  0.097
 H         -0.340  0.099  0.262    0.142 -0.057 -0.074   -0.237  0.067  0.169
 H          0.055 -0.027 -0.013   -0.190 -0.021  0.045    0.296  0.015 -0.069
 H          0.022  0.004  0.052   -0.078 -0.011 -0.186    0.124  0.010  0.293
 H         -0.082  0.195 -0.081   -0.152  0.320 -0.156    0.108 -0.262  0.104
 H          0.157  0.051 -0.148    0.289  0.125 -0.207   -0.228 -0.088  0.169
 H         -0.064  0.148 -0.070   -0.180  0.430 -0.178   -0.118  0.305 -0.115
 N          0.000 -0.001  0.001   -0.001 -0.000 -0.002    0.008  0.002  0.006
 H          0.002  0.001  0.003   -0.006 -0.001 -0.007   -0.039 -0.007 -0.049
 C          0.001  0.000 -0.000   -0.001 -0.000 -0.000   -0.008 -0.002 -0.003
 H         -0.001  0.001  0.000    0.000  0.000 -0.000    0.001  0.000 -0.007
 O         -0.000 -0.000  0.000    0.001  0.000 -0.000    0.002  0.000 -0.001
 TransDip  -0.023  0.081  0.034    0.040  0.033 -0.087   -0.015 -0.007 -0.020

 Mode:                46                     47                     48
 Frequency:      1553.15                1655.47                2267.92
 Force Cnst:      2.5244                13.0947                 7.2961
 Red. Mass:       1.7762                 8.1097                 2.4076
 IR Active:          YES                    YES                    YES
 IR Intens:      295.301                856.989                 66.965
 Raman Active:       YES                    YES                    YES
               X      Y      Z        X      Y      Z        X      Y      Z
 C         -0.003  0.001  0.009   -0.002  0.004  0.019   -0.000  0.000 -0.000
 C          0.078  0.013  0.039    0.001 -0.000 -0.041    0.002  0.000  0.002
 C         -0.002 -0.005  0.010   -0.002 -0.004  0.020   -0.000 -0.000 -0.000
 C         -0.003 -0.000 -0.008    0.002  0.006 -0.006    0.000 -0.000  0.000
 C         -0.002  0.000  0.000   -0.000  0.000  0.001    0.000  0.000 -0.000
 C         -0.003  0.000 -0.007    0.002 -0.006 -0.006    0.000  0.000  0.000
 H          0.026  0.008 -0.005    0.008 -0.013 -0.023    0.001  0.000  0.000
 H         -0.119 -0.013 -0.335    0.080  0.011  0.059    0.003  0.002  0.007
 H         -0.031  0.014 -0.043   -0.029  0.008 -0.019   -0.000 -0.000  0.000
 H          0.035 -0.014 -0.002    0.010  0.012 -0.022    0.001 -0.000  0.000
 H          0.019  0.021  0.025    0.006  0.002 -0.002   -0.000  0.000 -0.000
 H         -0.018 -0.003  0.033    0.003 -0.011  0.042    0.000  0.000 -0.000
 H          0.025 -0.000 -0.004    0.013  0.001 -0.003   -0.000  0.000  0.000
 H          0.007  0.001  0.018    0.001  0.000  0.006    0.000  0.000 -0.000
 H          0.019 -0.017  0.025    0.008 -0.002  0.001   -0.000 -0.000 -0.000
 H         -0.018 -0.000  0.027    0.000  0.012  0.044    0.000 -0.000 -0.000
 H         -0.029 -0.019 -0.042   -0.027 -0.014 -0.015   -0.001 -0.000  0.000
 N         -0.157 -0.027 -0.127   -0.103 -0.019  0.037    0.009  0.002  0.013
 H          0.546  0.101  0.687   -0.390 -0.086 -0.295   -0.031 -0.006 -0.047
 C          0.081  0.016  0.066    0.590  0.123 -0.238   -0.003  0.003 -0.197
 H          0.008 -0.000  0.130   -0.214 -0.036 -0.333    0.058 -0.005  0.977
 O         -0.003 -0.000 -0.011   -0.306 -0.066  0.211   -0.012 -0.003  0.015
 TransDip   0.472  0.089  0.268    0.915  0.182 -0.089    0.064  0.017 -0.254

 Mode:                49                     50                     51
 Frequency:      3000.63                3001.53                3011.08
 Force Cnst:      5.6599                 5.6635                 5.6810
 Red. Mass:       1.0669                 1.0670                 1.0635
 IR Active:          YES                    YES                    YES
 IR Intens:       80.424                 46.008                 91.155
 Raman Active:       YES                    YES                    YES
               X      Y      Z        X      Y      Z        X      Y      Z
 C          0.006  0.003 -0.002   -0.004 -0.001  0.002   -0.001 -0.003 -0.000
 C          0.001  0.000 -0.001    0.000 -0.001 -0.000   -0.001 -0.000  0.001
 C          0.002 -0.002  0.000    0.008 -0.002 -0.003   -0.001  0.003 -0.001
 C         -0.015  0.008  0.013   -0.046  0.022  0.040    0.022  0.003 -0.011
 C         -0.008 -0.000 -0.031   -0.004 -0.001 -0.014   -0.055 -0.003 -0.029
 C         -0.041 -0.025  0.039    0.020  0.011 -0.019    0.022 -0.001 -0.010
 H         -0.015  0.020 -0.006   -0.022  0.035 -0.009    0.020 -0.028  0.006
 H         -0.008 -0.001  0.006   -0.003  0.002  0.002    0.012  0.001 -0.007
 H         -0.057  0.001  0.036    0.043 -0.000 -0.027   -0.005 -0.000  0.002
 H         -0.023 -0.044 -0.011    0.004  0.011  0.002    0.016  0.030  0.005
 H          0.241 -0.002 -0.140    0.720 -0.005 -0.425   -0.245  0.006  0.146
 H         -0.061 -0.097 -0.022   -0.162 -0.249 -0.056   -0.023 -0.040 -0.015
 H          0.054  0.006  0.398    0.024  0.009  0.180    0.076  0.012  0.633
 H          0.032  0.001 -0.026    0.019  0.001 -0.014    0.581  0.028 -0.292
 H          0.686  0.071 -0.407   -0.323 -0.033  0.194   -0.233 -0.028  0.140
 H         -0.188  0.230 -0.062    0.079 -0.093  0.025   -0.032  0.044 -0.018
 H         -0.010 -0.002  0.006   -0.076 -0.008  0.048   -0.005 -0.000  0.001
 N          0.000 -0.000  0.000    0.000  0.000  0.000   -0.000 -0.000 -0.000
 H          0.000  0.000 -0.000    0.000 -0.000 -0.000   -0.000  0.000  0.000
 C         -0.000 -0.000  0.000   -0.000  0.000  0.000    0.000  0.000 -0.000
 H          0.000  0.000  0.000    0.000 -0.000  0.000   -0.000 -0.000 -0.000
 O          0.000  0.000 -0.000    0.000  0.000 -0.000   -0.000 -0.000  0.000
 TransDip  -0.248 -0.092  0.111   -0.119  0.178  0.039   -0.098 -0.013 -0.289

 Mode:                52                     53                     54
 Frequency:      3028.57                3031.08                3044.00
 Force Cnst:      5.7510                 5.7695                 5.9912
 Red. Mass:       1.0642                 1.0658                 1.0974
 IR Active:          YES                    YES                    YES
 IR Intens:        7.689                 58.210                117.410
 Raman Active:       YES                    YES                    YES
               X      Y      Z        X      Y      Z        X      Y      Z
 C          0.023 -0.018 -0.026   -0.034  0.024  0.036   -0.009  0.001  0.006
 C          0.002  0.000 -0.001    0.009  0.000 -0.004    0.003  0.000 -0.001
 C         -0.031 -0.027  0.037   -0.023 -0.018  0.025   -0.008 -0.001  0.005
 C          0.009  0.015  0.003    0.009  0.012  0.001   -0.003 -0.020 -0.010
 C          0.000  0.000 -0.000    0.000 -0.000  0.004    0.040  0.001 -0.073
 C         -0.008  0.010 -0.003    0.015 -0.016  0.003   -0.007  0.020 -0.011
 H         -0.218  0.272 -0.080   -0.140  0.177 -0.051   -0.000 -0.003  0.001
 H         -0.021 -0.000  0.011   -0.117 -0.006  0.064   -0.033 -0.002  0.018
 H         -0.415 -0.009  0.251    0.586  0.010 -0.353    0.109  0.001 -0.065
 H          0.137  0.217  0.055   -0.180 -0.289 -0.072   -0.009 -0.010 -0.003
 H         -0.009  0.004  0.007   -0.027  0.003  0.017   -0.092 -0.001  0.051
 H         -0.106 -0.182 -0.044   -0.083 -0.144 -0.035    0.135  0.230  0.059
 H          0.000 -0.001  0.002   -0.005 -0.001 -0.042    0.094  0.013  0.607
 H         -0.000 -0.002  0.000    0.009  0.001 -0.003   -0.575 -0.028  0.267
 H          0.003  0.003 -0.003   -0.040 -0.009  0.026   -0.081 -0.006  0.045
 H          0.091 -0.123  0.036   -0.146  0.199 -0.057    0.173 -0.230  0.071
 H          0.598  0.047 -0.363    0.414  0.034 -0.250    0.091  0.008 -0.054
 N         -0.000 -0.000 -0.000   -0.000 -0.000 -0.000   -0.000 -0.000 -0.000
 H         -0.000 -0.001 -0.001   -0.001 -0.000 -0.003    0.000  0.000 -0.001
 C          0.000  0.000 -0.000    0.001  0.000 -0.000    0.000  0.000 -0.000
 H         -0.000  0.000 -0.000   -0.000 -0.000 -0.000   -0.000 -0.000 -0.000
 O         -0.000 -0.000  0.000   -0.000 -0.000  0.000   -0.000 -0.000  0.000
 TransDip  -0.015 -0.078  0.039   -0.074  0.005  0.233    0.029  0.006 -0.346

 Mode:                55                     56                     57
 Frequency:      3053.04                3058.29                3071.47
 Force Cnst:      6.0097                 6.0377                 6.0540
 Red. Mass:       1.0943                 1.0956                 1.0892
 IR Active:          YES                    YES                    YES
 IR Intens:      136.927                168.046                 19.354
 Raman Active:       YES                    YES                    YES
               X      Y      Z        X      Y      Z        X      Y      Z
 C          0.007 -0.010 -0.010   -0.008  0.006  0.008    0.031  0.035  0.003
 C         -0.001  0.001  0.000    0.007  0.000 -0.003   -0.045 -0.002  0.027
 C         -0.004 -0.008  0.008   -0.008 -0.007  0.009    0.035 -0.032  0.004
 C         -0.038 -0.041 -0.003   -0.043 -0.044 -0.000    0.001 -0.004 -0.003
 C          0.004  0.000 -0.004   -0.030 -0.001  0.021    0.000 -0.000 -0.003
 C          0.050 -0.042  0.003   -0.038  0.031 -0.001    0.001  0.003 -0.003
 H         -0.062  0.080 -0.025   -0.053  0.069 -0.021   -0.300  0.399 -0.130
 H          0.006  0.002 -0.003   -0.079 -0.004  0.045    0.563  0.028 -0.315
 H         -0.145 -0.003  0.089    0.131  0.002 -0.081   -0.131  0.004  0.086
 H          0.069  0.114  0.031   -0.038 -0.064 -0.017   -0.248 -0.422 -0.119
 H          0.168 -0.010 -0.105    0.217 -0.012 -0.133   -0.030  0.000  0.017
 H          0.290  0.497  0.130    0.306  0.529  0.136    0.024  0.042  0.011
 H          0.003 -0.001  0.020   -0.014 -0.002 -0.083    0.004  0.001  0.028
 H         -0.051 -0.004  0.024    0.364  0.018 -0.171   -0.011 -0.001  0.004
 H         -0.208 -0.031  0.131    0.177  0.027 -0.110   -0.031 -0.003  0.018
 H         -0.395  0.531 -0.164    0.286 -0.387  0.118    0.025 -0.033  0.010
 H          0.107  0.008 -0.066    0.147  0.013 -0.092   -0.126 -0.016  0.084
 N          0.000 -0.000  0.000   -0.000 -0.000 -0.000    0.001  0.000  0.000
 H          0.000 -0.000  0.000    0.000 -0.000 -0.002   -0.006 -0.001  0.004
 C         -0.000 -0.000  0.000    0.001  0.000 -0.000   -0.001 -0.000  0.000
 H         -0.000  0.000  0.000   -0.000 -0.000 -0.000    0.000  0.000  0.001
 O          0.000 -0.000 -0.000   -0.000 -0.000  0.000    0.000 -0.000 -0.001
 TransDip   0.064 -0.369 -0.013   -0.405 -0.058  0.069    0.106  0.011  0.092

 Mode:                58                     59                     60
 Frequency:      3078.53                3090.43                3576.41
 Force Cnst:      6.1505                 6.1565                 8.1313
 Red. Mass:       1.1015                 1.0941                 1.0790
 IR Active:          YES                    YES                    YES
 IR Intens:       56.757                 98.886                 89.635
 Raman Active:       YES                    YES                    YES
               X      Y      Z        X      Y      Z        X      Y      Z
 C         -0.049 -0.043  0.002   -0.035 -0.026  0.005    0.000  0.000 -0.000
 C          0.000 -0.001 -0.000   -0.055 -0.003  0.030   -0.001  0.000 -0.001
 C          0.052 -0.038 -0.001   -0.037  0.023  0.004    0.000  0.000 -0.000
 C          0.006  0.001 -0.003   -0.005  0.000  0.003    0.000  0.000 -0.000
 C         -0.000  0.001  0.000   -0.001 -0.000  0.002    0.000  0.000  0.000
 C         -0.006  0.000  0.003   -0.004 -0.001  0.003    0.000 -0.000 -0.000
 H         -0.360  0.482 -0.157    0.218 -0.295  0.094   -0.000  0.000  0.000
 H         -0.005 -0.002  0.003    0.652  0.032 -0.359    0.007  0.000 -0.009
 H          0.278 -0.005 -0.176    0.233 -0.006 -0.143    0.000 -0.001  0.001
 H          0.305  0.522  0.147    0.183  0.316  0.087   -0.000 -0.000 -0.000
 H         -0.060  0.001  0.038    0.051 -0.002 -0.034   -0.000 -0.000 -0.000
 H         -0.007 -0.011 -0.003    0.002  0.002 -0.000   -0.000 -0.000 -0.000
 H          0.000 -0.001 -0.000   -0.002 -0.000 -0.017   -0.000 -0.000 -0.000
 H          0.000  0.001 -0.000    0.017  0.001 -0.007   -0.000 -0.000  0.000
 H          0.060  0.007 -0.038    0.050  0.006 -0.034   -0.000  0.000 -0.000
 H          0.009 -0.012  0.004    0.002 -0.001 -0.001   -0.000  0.000 -0.000
 H         -0.264 -0.031  0.168    0.225  0.028 -0.139    0.000  0.001  0.001
 N          0.000  0.000 -0.000    0.001  0.000  0.001   -0.055 -0.011  0.048
 H          0.000  0.000  0.000   -0.008 -0.001  0.001    0.732  0.141 -0.662
 C         -0.000 -0.000  0.000   -0.002 -0.000  0.000    0.001  0.000  0.002
 H         -0.000  0.000 -0.000    0.001  0.000  0.001   -0.001 -0.000 -0.002
 O          0.000  0.000 -0.000    0.000  0.000 -0.001    0.001  0.000 -0.001
 TransDip   0.011 -0.241  0.004   -0.285 -0.004  0.141    0.260  0.053 -0.147

 STANDARD THERMODYNAMIC QUANTITIES AT   298.18 K  AND     1.00 ATM

   This Molecule has  0 Imaginary Frequencies
   Zero point vibrational energy:      121.839 kcal/mol

   Atom    1 Element C  Has Mass   12.00000
   Atom    2 Element C  Has Mass   12.00000
   Atom    3 Element C  Has Mass   12.00000
   Atom    4 Element C  Has Mass   12.00000
   Atom    5 Element C  Has Mass   12.00000
   Atom    6 Element C  Has Mass   12.00000
   Atom    7 Element H  Has Mass    1.00783
   Atom    8 Element H  Has Mass    1.00783
   Atom    9 Element H  Has Mass    1.00783
   Atom   10 Element H  Has Mass    1.00783
   Atom   11 Element H  Has Mass    1.00783
   Atom   12 Element H  Has Mass    1.00783
   Atom   13 Element H  Has Mass    1.00783
   Atom   14 Element H  Has Mass    1.00783
   Atom   15 Element H  Has Mass    1.00783
   Atom   16 Element H  Has Mass    1.00783
   Atom   17 Element H  Has Mass    1.00783
   Atom   18 Element N  Has Mass   14.00307
   Atom   19 Element H  Has Mass    1.00783
   Atom   20 Element C  Has Mass   12.00000
   Atom   21 Element H  Has Mass    2.01410
   Atom   22 Element O  Has Mass   15.99491
   Molecular Mass:   128.106042 amu
   Principal axes and moments of inertia in amu*Bohr^2:
                             1           2           3
    Eigenvalues --      547.28043  1995.09646  2193.62775
          X               0.66128    -0.01802     0.74992
          Y               0.09887     0.99308    -0.06332
          Z               0.74359    -0.11602    -0.65849
   Rotational Symmetry Number is   1
   The Molecule is an Asymmetric Top
   Translational Enthalpy:        0.889 kcal/mol
   Rotational Enthalpy:           0.889 kcal/mol
   Vibrational Enthalpy:        125.660 kcal/mol
   gas constant (RT):             0.593 kcal/mol
   Translational Entropy:        40.457  cal/mol.K
   Rotational Entropy:           29.262  cal/mol.K
   Vibrational Entropy:          24.702  cal/mol.K

   Total Enthalpy:              128.030 kcal/mol
   Total Entropy:                94.420  cal/mol.K
Archival summary:
1\1\node026\FREQ\ProcedureUnspecified\6-31+G*\11713\ymao90\MonAug901:22:212021MonAug901:22:212021\0\\#,FREQ,ProcedureUnspecified,6-31+G*,\\0,1\N\H,1,1.01593\C,1,1.34668,2,117.193\H,3,1.1003,1,113.162,2,1.46979,0\O,3,1.24205,1,125.096,2,-178.756,0\C,1,1.46232,2,118.563,3,-178.056,0\H,6,1.0953,1,105.519,2,-173.035,0\C,6,1.53785,1,111.23,2,-55.3402,0\H,8,1.09698,6,109.571,1,-56.5725,0\H,8,1.09981,6,109.106,1,60.3423,0\C,8,1.53836,6,110.815,1,-178.782,0\H,11,1.09827,8,109.739,6,-177.998,0\H,11,1.10162,8,108.954,6,65.489,0\C,11,1.53794,8,111.763,6,-55.2626,0\H,14,1.10002,11,109.111,8,-66.3926,0\H,14,1.10008,11,110.119,8,176.7,0\C,14,1.5378,11,111.438,8,54.1461,0\H,17,1.09837,14,110.361,11,-176.503,0\H,17,1.10168,14,109.218,11,66.47,0\C,17,1.53795,14,111.616,11,-54.1196,0\H,20,1.09699,17,110.586,14,176.978,0\H,20,1.09962,17,109.765,14,-65.1187,0\\\@

 Total job time:  9575.37s(wall), 137216.51s(cpu) 
 Mon Aug  9 01:22:21 2021

        *************************************************************
        *                                                           *
        *  Thank you very much for using Q-Chem.  Have a nice day.  *
        *                                                           *
        *************************************************************


