                  Welcome to Q-Chem
     A Quantum Leap Into The Future Of Chemistry


 Q-Chem 5.2 (devel), Q-Chem, Inc., Pleasanton, CA (2019)

 Yihan Shao,  Zhengting Gan,  E. Epifanovsky,  A. T. B. Gilbert,  M. Wormit,  
 J. Kussmann,  A. W. Lange,  A. Behn,  Jia Deng,  Xintian Feng,  D. Ghosh,  
 M. Goldey,  P. R. Horn,  L. D. Jacobson,  I. Kaliman,  T. Kus,  A. Landau,  
 Jie Liu,  E. I. Proynov,  R. M. Richard,  R. P. Steele,  E. J. Sundstrom,  
 H. L. Woodcock III,  P. M. Zimmerman,  D. Zuev,  B. Alam,  B. Albrecht,  
 E. Alguire,  S. A. Baeppler,  D. Barton,  Z. Benda,  Y. A. Bernard,  
 E. J. Berquist,  K. B. Bravaya,  H. Burton,  K. Carter-Fenk,  D. Casanova,  
 Chun-Min Chang,  Yunqing Chen,  A. Chien,  K. D. Closser,  M. P. Coons,  
 S. Coriani,  S. Dasgupta,  A. L. Dempwolff,  M. Diedenhofen,  Hainam Do,  
 R. G. Edgar,  Po-Tung Fang,  S. Faraji,  S. Fatehi,  Qingguo Feng,  
 J. Fosso-Tande,  J. Gayvert,  Qinghui Ge,  A. Ghysels,  G. Gidofalvi,  
 J. Gomes,  J. Gonthier,  A. Gunina,  D. Hait,  M. W. D. Hanson-Heine,  
 P. H. P. Harbach,  A. W. Hauser,  M. F. Herbst,  J. E. Herr,  
 E. G. Hohenstein,  Z. C. Holden,  Kerwin Hui,  B. C. Huynh,  T.-C. Jagau,  
 Hyunjun Ji,  B. Kaduk,  K. Khistyaev,  Jaehoon Kim,  P. Klunzinger,  K. Koh,  
 D. Kosenkov,  L. Koulias,  T. Kowalczyk,  C. M. Krauter,  A. Kunitsa,  
 Ka Un Lao,  A. Laurent,  K. V. Lawler,  Joonho Lee,  D. Lefrancois,  
 S. Lehtola,  D. S. Levine,  Yi-Pei Li,  You-Sheng Lin,  Fenglai Liu,  
 Kuan-Yu Liu,  E. Livshits,  M. Loipersberger,  A. Luenser,  P. Manohar,  
 E. Mansoor,  S. F. Manzer,  Shan-Ping Mao,  Yuezhi Mao,  N. Mardirossian,  
 A. V. Marenich,  T. Markovich,  L. A. Martinez-Martinez,  S. A. Maurer,  
 N. J. Mayhall,  S. C. McKenzie,  J.-M. Mewes,  P. Morgante,  A. F. Morrison,  
 J. W. Mullinax,  K. Nanda,  T. S. Nguyen-Beck,  R. Olivares-Amaya,  
 J. A. Parkhill,  S. K. Paul,  F. Pavosevic,  Zheng Pei,  T. M. Perrine,  
 F. Plasser,  P. Pokhilko,  S. Prager,  A. Prociuk,  E. Ramos,  B. Rana,  
 D. R. Rehn,  F. Rob,  M. Scheurer,  M. Schneider,  N. Sergueev,  
 S. M. Sharada,  S. Sharma,  D. W. Small,  T. Stauch,  C. J. Stein,  
 T. Stein,  Yu-Chuan Su,  S. P. Veccham,  Zhen Tao,  A. J. W. Thom,  
 A. Tkatchenko,  T. Tsuchimochi,  N. M. Tubman,  L. Vogt,  M. L. Vidal,  
 O. Vydrov,  M. A. Watson,  J. Wenzel,  M. de Wergifosse,  T. A. Wesolowski,  
 A. White,  J. Witte,  A. Yamada,  Jun Yang,  K. Yao,  S. Yeganeh,  
 S. R. Yost,  Zhi-Qiang You,  A. Zech,  Igor Ying Zhang,  Xing Zhang,  
 Yan Zhao,  Ying Zhu,  B. R. Brooks,  G. K. L. Chan,  C. J. Cramer,  
 M. S. Gordon,  W. J. Hehre,  A. Klamt,  M. W. Schmidt,  C. D. Sherrill,  
 D. G. Truhlar,  A. Aspuru-Guzik,  R. Baer,  A. T. Bell,  N. A. Besley,  
 Jeng-Da Chai,  A. E. DePrince, III,  R. A. DiStasio Jr.,  A. Dreuw,  
 B. D. Dunietz,  T. R. Furlani,  Chao-Ping Hsu,  Yousung Jung,  Jing Kong,  
 D. S. Lambrecht,  WanZhen Liang,  C. Ochsenfeld,  V. A. Rassolov,  
 L. V. Slipchenko,  J. E. Subotnik,  T. Van Voorhis,  J. M. Herbert,  
 A. I. Krylov,  P. M. W. Gill,  M. Head-Gordon

 Contributors to earlier versions of Q-Chem not listed above: 
 R. D. Adamson,  B. Austin,  J. Baker,  G. J. O. Beran,  K. Brandhorst,  
 S. T. Brown,  E. F. C. Byrd,  A. K. Chakraborty,  C.-L. Cheng,  
 Siu Hung Chien,  D. M. Chipman,  D. L. Crittenden,  H. Dachsel,  
 R. J. Doerksen,  A. D. Dutoi,  L. Fusti-Molnar,  W. A. Goddard III,  
 A. Golubeva-Zadorozhnaya,  S. R. Gwaltney,  G. Hawkins,  A. Heyden,  
 S. Hirata,  G. Kedziora,  F. J. Keil,  C. Kelley,  Jihan Kim,  R. A. King,  
 R. Z. Khaliullin,  P. P. Korambath,  W. Kurlancheek,  A. M. Lee,  M. S. Lee,  
 S. V. Levchenko,  Ching Yeh Lin,  D. Liotard,  R. C. Lochan,  I. Lotan,  
 P. E. Maslen,  N. Nair,  D. P. O'Neill,  D. Neuhauser,  E. Neuscamman,  
 C. M. Oana,  R. Olson,  B. Peters,  R. Peverati,  P. A. Pieniazek,  
 Y. M. Rhee,  J. Ritchie,  M. A. Rohrdanz,  E. Rosta,  N. J. Russ,  
 H. F. Schaefer III,  N. E. Schultz,  N. Shenvi,  A. C. Simmonett,  A. Sodt,  
 D. Stuck,  K. S. Thanthiriwatte,  V. Vanovschi,  Tao Wang,  A. Warshel,  
 C. F. Williams,  Q. Wu,  X. Xu,  W. Zhang

 Please cite Q-Chem as follows:
 Y. Shao et al., Mol. Phys. 113, 184-215 (2015)
 DOI: 10.1080/00268976.2014.952696

 Q-Chem 5.2.2 for Intel X86 EM64T Linux

 Parts of Q-Chem use Armadillo 9.800.1 (Horizon Scraper).
 http://arma.sourceforge.net/

 Q-Chem begins on Tue Jul 27 17:47:55 2021  

Host: node028
0

     Scratch files written to /home/ymao90/scratch/CCX_CD_+20_MeTHF20210727174753//
Symmetry turned off for PCM/SM12/SMD calculation

Checking the input file for inconsistencies... 	...done.

--------------------------------------------------------------
User input:
--------------------------------------------------------------
$molecule
0 1
C     -2.4083508923    0.9984834764   -2.3662547437
C     -1.5543120384   -0.2118403749   -1.9459885704
C     -2.2384976761   -1.5367925874   -2.3261896725
C     -2.5867463449   -1.5816552836   -3.8234193167
C     -3.4377297730   -0.3731774783   -4.2445934317
C     -2.7551397527    0.9499468362   -3.8636626912
H     -1.5849547626   -2.3750094827   -2.0545927530
H     -0.5831065672   -0.1532425547   -2.4485260558
H     -3.3388117820    1.0024650072   -1.7759883684
H     -1.8720534969    1.9234708349   -2.1213670712
H     -1.6555784977   -1.5918293252   -4.4093866053
H     -3.1102152921   -2.5181807775   -4.0551406051
H     -3.6290653549   -0.4033428377   -5.3251377272
H     -4.4201020066   -0.4306546907   -3.7508934023
H     -1.8320207629    1.0648782183   -4.4511997179
H     -3.3973970401    1.8010825553   -4.1242295555
H     -3.1618885583   -1.6469527918   -1.7346449512
N     -1.2474445251   -0.1731895513   -0.5151412109
H     -2.0131265263   -0.2687147311    0.1418849346
C      0.0000000000    0.0000000000    0.0000000000
H      0.0000000000    0.0000000000    1.1070732462
O      1.0278769477    0.1402881570   -0.6492362509
$end

$rem
JOBTYPE  OPT
METHOD  B3LYP
BASIS  6-31+G(D)
SYMMETRY  FALSE
SYM_IGNORE  TRUE
MEM_TOTAL  8000
MEM_STATIC  2000
MAX_SUB_FILE_NUM  16000
BASIS_LIN_DEP_THRESH  6
THRESH  14
SCF_CONVERGENCE  9
GEN_SCFMAN  TRUE
SCF_GUESS  SAD
FD_MAT_VEC_PROD  FALSE
XC_GRID  000099000590
NL_GRID  1
MAX_SCF_CYCLES  200
GEOM_OPT_TOL_GRADIENT  100
GEOM_OPT_TOL_DISPLACEMENT  100
GEOM_OPT_TOL_ENERGY  10
SOLVENT_METHOD       PCM
$end

$PCM
THEORY                     CPCM
METHOD                     SWIG
SOLVER                     INVERSION
HPOINTS                    302
HEAVYPOINTS                302
$END

$SOLVENT
DIELECTRIC                 6.97
$END

$multipole_field
Z   -0.003890
$end


--------------------------------------------------------------
 ----------------------------------------------------------------
             Standard Nuclear Orientation (Angstroms)
    I     Atom           X                Y                Z
 ----------------------------------------------------------------
    1      C      -2.4083508923     0.9984834764    -2.3662547437
    2      C      -1.5543120384    -0.2118403749    -1.9459885704
    3      C      -2.2384976761    -1.5367925874    -2.3261896725
    4      C      -2.5867463449    -1.5816552836    -3.8234193167
    5      C      -3.4377297730    -0.3731774783    -4.2445934317
    6      C      -2.7551397527     0.9499468362    -3.8636626912
    7      H      -1.5849547626    -2.3750094827    -2.0545927530
    8      H      -0.5831065672    -0.1532425547    -2.4485260558
    9      H      -3.3388117820     1.0024650072    -1.7759883684
   10      H      -1.8720534969     1.9234708349    -2.1213670712
   11      H      -1.6555784977    -1.5918293252    -4.4093866053
   12      H      -3.1102152921    -2.5181807775    -4.0551406051
   13      H      -3.6290653549    -0.4033428377    -5.3251377272
   14      H      -4.4201020066    -0.4306546907    -3.7508934023
   15      H      -1.8320207629     1.0648782183    -4.4511997179
   16      H      -3.3973970401     1.8010825553    -4.1242295555
   17      H      -3.1618885583    -1.6469527918    -1.7346449512
   18      N      -1.2474445251    -0.1731895513    -0.5151412109
   19      H      -2.0131265263    -0.2687147311     0.1418849346
   20      C       0.0000000000     0.0000000000     0.0000000000
   21      H       0.0000000000     0.0000000000     1.1070732462
   22      O       1.0278769477     0.1402881570    -0.6492362509
 ----------------------------------------------------------------
 Nuclear Repulsion Energy =         466.63298041 hartrees
 There are       35 alpha and       35 beta electrons
 Requested basis set is 6-31+G(d)
 There are 71 shells and 197 basis functions

 Total QAlloc Memory Limit   8000 MB
 Mega-Array Size      1956 MB
 MEM_STATIC part      2000 MB
 Discretize the solute cavity surface with Lebedev spheres
	Using 302 Lebedev grid points for each H atom
	Using 302 Lebedev grid points for other atoms
	Atomic van der Waals radii will be scaled by 1.20
 Remove points where switching function is < 1.0e-08
 Keep 2742 surface tesserae and discard 3902 interior tesserae
 Molecular Surface Area = 182.898 Angst**2
 Applying Cartesian multipole field
    Component          Value
    ---------          -----
     (0,0,1)       -3.89000E-03
 Nucleus-field energy     =     1.1410472783 hartrees
 A cutoff of  1.0D-14 yielded   2413 shell pairs
 There are     18998 function pairs
 Smallest overlap matrix eigenvalue = 2.48E-05
 Guess from superposition of atomic densities
 Warning:  Energy on first SCF cycle will be non-variational
 SAD guess density has 70.000000 electrons

 -----------------------------------------------------------------------
  General SCF calculation program by
  Eric Jon Sundstrom, Paul Horn, Yuezhi Mao, Dmitri Zuev, Alec White,
  David Stuck, Shaama M.S., Shane Yost, Joonho Lee, David Small,
  Daniel Levine, Susi Lehtola, Hugh Burton, Evgeny Epifanovsky,
  Bang C. Huynh
 -----------------------------------------------------------------------
 Exchange:     0.2000 Hartree-Fock + 0.0800 Slater + 0.7200 B88
 Correlation:  0.1900 VWN1RPA + 0.8100 LYP
 Using Euler-Maclaurin-Lebedev (99,590) quadrature formula
 using 16 threads for integral computing
 -------------------------------------------------------
 OpenMP Integral computing Module                
 Release: version 2.0, May 2017, Q-Chem Inc. Pleasanton 
 -------------------------------------------------------
 A restricted SCF calculation will be
 performed using DIIS
 SCF converges when DIIS error is below 1.0e-09
 ---------------------------------------
  Cycle       Energy         DIIS error
 ---------------------------------------
    1    -406.2319617790      5.08e-02  
    2    -404.4079093782      6.45e-03  
    3    -404.1730045582      1.01e-02  
    4    -404.5844563463      2.02e-03  
    5    -404.5999345366      5.33e-04  
    6    -404.6010508169      1.48e-04  
    7    -404.6011348961      5.45e-05  
    8    -404.6011473439      9.69e-06  
    9    -404.6011477308      2.46e-06  
   10    -404.6011477564      5.28e-07  
   11    -404.6011477575      1.90e-07  
   12    -404.6011477577      2.50e-08  
   13    -404.6011477577      6.51e-09  
   14    -404.6011477577      3.10e-09  
   15    -404.6011477577      5.37e-10  Convergence criterion met
 ---------------------------------------
 SCF time:   CPU 1072.81s  wall 71.00s 

************** Final PCM Free Energy Summary **************
 G_electrostatic  =      -0.01610770 hartree =     -10.10773299 kcal/mol
 G_cavitation     =       0.00000000 hartree =       0.00000000 kcal/mol
 G_dispersion     =       0.00000000 hartree =       0.00000000 kcal/mol
 G_repulsion      =       0.00000000 hartree =       0.00000000 kcal/mol
 --------------------------------------------------
 Non-electrostatic Free Energy =       0.00000000 hartree =       0.00000000 kcal/mol
 Total                         =      -0.01610770 hartree =     -10.10773299 kcal/mol
 --------------------------------------------------
 SCF Energy (H0 + V/2)                       =    -404.60114776 
 Solute Internal Energy (H0)                 =    -404.58504006 
 Total Free Energy (H0 + V/2 + non-elec)     =    -404.60114776 hartree
                                             = -253891.05219542 kcal/mol
***********************************************************

 SCF   energy in the final basis set =     -404.6011477577
 Total energy in the final basis set =     -404.6011477577
 
 --------------------------------------------------------------
 
                    Orbital Energies (a.u.)
 --------------------------------------------------------------
 
 Alpha MOs
 -- Occupied --
-19.1403 -14.3746 -10.2971 -10.2397 -10.2088 -10.2079 -10.2079 -10.2011
-10.2007  -1.0505  -0.9377  -0.8459  -0.7640  -0.7612  -0.6517  -0.6341
 -0.6001  -0.5854  -0.5362  -0.4988  -0.4779  -0.4626  -0.4611  -0.4321
 -0.4302  -0.4156  -0.4014  -0.3910  -0.3682  -0.3661  -0.3473  -0.3358
 -0.3316  -0.2755  -0.2681
 -- Virtual --
 -0.0246  -0.0036  -0.0015   0.0064   0.0075   0.0261   0.0289   0.0308
  0.0407   0.0456   0.0585   0.0698   0.0718   0.0726   0.0765   0.0824
  0.0901   0.0953   0.1066   0.1171   0.1248   0.1331   0.1352   0.1436
  0.1524   0.1550   0.1605   0.1680   0.1805   0.1831   0.1979   0.2006
  0.2040   0.2043   0.2158   0.2250   0.2372   0.2428   0.2541   0.2572
  0.2654   0.2684   0.2693   0.2753   0.2797   0.2922   0.2978   0.3092
  0.3116   0.3165   0.3428   0.3484   0.3584   0.3724   0.3938   0.4052
  0.4255   0.4406   0.4846   0.5896   0.6178   0.6318   0.6417   0.6480
  0.6608   0.6769   0.7066   0.7131   0.7321   0.7344   0.7630   0.7672
  0.7810   0.7900   0.8057   0.8299   0.8463   0.9007   0.9467   0.9529
  0.9546   0.9694   0.9984   1.0153   1.0184   1.0408   1.0701   1.0863
  1.1005   1.1033   1.1041   1.1307   1.1419   1.1502   1.1588   1.1691
  1.2223   1.2393   1.2746   1.3217   1.3285   1.3616   1.3714   1.3983
  1.4688   1.4767   1.4793   1.5486   1.5564   1.5995   1.6873   1.7090
  1.7152   1.7398   1.7543   1.7907   1.8388   1.8571   1.8822   1.8857
  1.8915   1.9261   1.9632   1.9915   1.9962   2.0281   2.0368   2.0709
  2.0747   2.1154   2.1827   2.2049   2.2648   2.2964   2.2996   2.3280
  2.3791   2.3941   2.3965   2.4011   2.4329   2.5497   2.5731   2.6097
  2.6485   2.6703   2.6896   2.7369   2.7616   2.8165   2.8584   3.0025
  3.1793   4.0817   4.1785   4.2205   4.2722   4.3149   4.4129   4.5761
  4.5860   4.6574
 --------------------------------------------------------------
 
          Ground-State Mulliken Net Atomic Charges

     Atom                 Charge (a.u.)
  ----------------------------------------
      1 C                    -0.258912
      2 C                    -0.439028
      3 C                    -0.283500
      4 C                    -0.455043
      5 C                    -0.377164
      6 C                    -0.458495
      7 H                     0.216704
      8 H                     0.220761
      9 H                     0.220335
     10 H                     0.215444
     11 H                     0.195558
     12 H                     0.196269
     13 H                     0.177260
     14 H                     0.208386
     15 H                     0.195433
     16 H                     0.195661
     17 H                     0.220423
     18 N                    -0.400661
     19 H                     0.452923
     20 C                     0.348580
     21 H                     0.199540
     22 O                    -0.590473
  ----------------------------------------
  Sum of atomic charges =     0.000000

 -----------------------------------------------------------------
                    Cartesian Multipole Moments
 -----------------------------------------------------------------
    Charge (ESU x 10^10)
                -0.0000
    Dipole Moment (Debye)
         X      -5.2686      Y      -0.7012      Z       1.8150
       Tot       5.6164
    Quadrupole Moments (Debye-Ang)
        XX     -54.2807     XY       0.3347     YY     -57.0418
        XZ       2.1104     YZ       0.3513     ZZ     -57.7389
    Octopole Moments (Debye-Ang^2)
       XXX     280.6837    XXY       8.9989    XYY     100.4056
       YYY      35.4278    XXZ     133.3285    XYZ       0.3775
       YYZ     130.0091    XZZ     105.3098    YZZ      12.0178
       ZZZ     405.0206
    Hexadecapole Moments (Debye-Ang^3)
      XXXX   -1748.7067   XXXY     -84.2247   XXYY    -363.3290
      XYYY     -88.5020   YYYY    -403.7388   XXXZ    -993.2042
      XXYZ     -37.9491   XYYZ    -327.9980   YYYZ    -111.9564
      XXZZ    -772.2801   XYZZ     -32.0177   YYZZ    -520.2969
      XZZZ   -1042.6810   YZZZ    -117.0311   ZZZZ   -2765.5210
 -----------------------------------------------------------------
 Calculating analytic gradient of the SCF energy
 Gradient of SCF Energy
            1           2           3           4           5           6
    1   0.0072102  -0.0005776   0.0069778  -0.0008916   0.0056269  -0.0003595
    2  -0.0031801   0.0000381   0.0047152   0.0033740   0.0003830  -0.0031221
    3  -0.0062336  -0.0049263  -0.0071002   0.0021651  -0.0012275   0.0019498
            7           8           9          10          11          12
    1   0.0007227  -0.0023909  -0.0059493   0.0001560   0.0000020  -0.0007994
    2  -0.0018221  -0.0002501  -0.0002771   0.0013570  -0.0002987  -0.0013996
    3   0.0011170   0.0011098   0.0038290   0.0009076   0.0002152  -0.0001373
           13          14          15          16          17          18
    1  -0.0001727  -0.0033369  -0.0002149  -0.0008691  -0.0061857   0.0019111
    2  -0.0000264  -0.0002224   0.0002505   0.0010622  -0.0005321  -0.0000722
    3   0.0007230   0.0017970   0.0002365  -0.0001450   0.0040358  -0.0065447
           19          20          21          22
    1  -0.0108795   0.0263223  -0.0031412  -0.0131609
    2  -0.0013448   0.0036170  -0.0004362  -0.0018129
    3   0.0075497  -0.0182626   0.0083207   0.0106211
 Max gradient component =       2.632E-02
 RMS gradient           =       5.617E-03
 Computing fast CPCM-SWIG gradient
 Updating gradient with PCM contributions...
 -- total gradient after adding PCM contribution --
---------------------------------------------------
  Atom         X              Y              Z     
---------------------------------------------------
   1       0.001370      -0.000205      -0.000924
   2      -0.000362       0.000005      -0.001675
   3       0.001388       0.000558      -0.000858
   4      -0.000200       0.000010      -0.000360
   5       0.000463       0.000063      -0.000735
   6      -0.000143      -0.000144      -0.000377
   7       0.000025       0.000036       0.000212
   8       0.000256       0.000124       0.001194
   9      -0.001116       0.000265       0.000329
  10       0.000022      -0.000136       0.000209
  11      -0.000710      -0.000379       0.000440
  12       0.000479       0.000352      -0.000241
  13       0.000099       0.000022       0.001374
  14      -0.000561      -0.000042      -0.000281
  15      -0.000776       0.000323       0.000422
  16       0.000542      -0.000326      -0.000206
  17      -0.001146      -0.000429       0.000325
  18      -0.007194      -0.001071       0.000618
  19       0.000510       0.000031      -0.001717
  20       0.021712       0.003001      -0.011906
  21      -0.000194      -0.000045       0.003000
  22      -0.014463      -0.002011       0.011155
---------------------------------------------------
 Number of fixed atoms: 0
 Gradient time:  CPU 137.11 s  wall 12.23 s
 Geometry Optimization Parameters
   NAtoms,    NIC,     NZ,  NCons,   NDum,   NFix, NCnnct, MaxDiis
       22     172       0       0       0       0       0       0


** GEOMETRY OPTIMIZATION IN DELOCALIZED INTERNAL COORDINATES **
   Searching for a Minimum

   Optimization Cycle:   1

                       Coordinates (Angstroms)
     ATOM                X               Y               Z
      1  C        -2.4083508923    0.9984834764   -2.3662547437
      2  C        -1.5543120384   -0.2118403749   -1.9459885704
      3  C        -2.2384976761   -1.5367925874   -2.3261896725
      4  C        -2.5867463449   -1.5816552836   -3.8234193167
      5  C        -3.4377297730   -0.3731774783   -4.2445934317
      6  C        -2.7551397527    0.9499468362   -3.8636626912
      7  H        -1.5849547626   -2.3750094827   -2.0545927530
      8  H        -0.5831065672   -0.1532425547   -2.4485260558
      9  H        -3.3388117820    1.0024650072   -1.7759883684
     10  H        -1.8720534969    1.9234708349   -2.1213670712
     11  H        -1.6555784977   -1.5918293252   -4.4093866053
     12  H        -3.1102152921   -2.5181807775   -4.0551406051
     13  H        -3.6290653549   -0.4033428377   -5.3251377272
     14  H        -4.4201020066   -0.4306546907   -3.7508934023
     15  H        -1.8320207629    1.0648782183   -4.4511997179
     16  H        -3.3973970401    1.8010825553   -4.1242295555
     17  H        -3.1618885583   -1.6469527918   -1.7346449512
     18  N        -1.2474445251   -0.1731895513   -0.5151412109
     19  H        -2.0131265263   -0.2687147311    0.1418849346
     20  C         0.0000000000    0.0000000000    0.0000000000
     21  H         0.0000000000    0.0000000000    1.1070732462
     22  O         1.0278769477    0.1402881570   -0.6492362509
   Point Group: c1    Number of degrees of freedom:    60


   Energy is   -404.601147758


 Attempting to generate delocalized internal coordinates
 Initial Hessian constructed with Jon Baker's OPTIMIZE code

 60 Hessian modes will be used to form the next step
  Hessian Eigenvalues:
     0.005967    0.006024    0.006964    0.007193    0.012605    0.019501
     0.019786    0.020845    0.020845    0.037215    0.038526    0.039417
     0.041724    0.048166    0.048450    0.048891    0.055292    0.055631
     0.055746    0.059934    0.066958    0.081508    0.081536    0.081616
     0.082032    0.082133    0.084029    0.087513    0.120967    0.121178
     0.142989    0.159989    0.160000    0.160554    0.174868    0.210947
     0.220000    0.220003    0.272263    0.272658    0.275535    0.286789
     0.287121    0.287175    0.329119    0.334466    0.334727    0.335769
     0.336541    0.336553    0.339301    0.339441    0.339454    0.340119
     0.340274    0.342312    0.364811    0.454000    0.528079    0.937134

 Minimum search - taking simple RFO step
 Searching for Lamda that Minimizes Along All modes
 Value Taken    Lamda =  -0.00071201
 Step Taken.  Stepsize is  0.109796

                             Maximum     Tolerance    Cnvgd?
         Gradient           0.009183      0.000100      NO
         Displacement       0.041959      0.000100      NO
         Energy change     *********      0.000000      NO


 New Cartesian Coordinates Obtained by Inverse Iteration

 Displacement from previous Coordinates is:  0.235677
 ----------------------------------------------------------------
             Standard Nuclear Orientation (Angstroms)
    I     Atom           X                Y                Z
 ----------------------------------------------------------------
    1      C      -2.4244802811     0.9945089829    -2.3535513466
    2      C      -1.5694018462    -0.2149896880    -1.9362733342
    3      C      -2.2562306520    -1.5379219320    -2.3152401768
    4      C      -2.5810447420    -1.5824467679    -3.8178523053
    5      C      -3.4220454526    -0.3713244047    -4.2539916963
    6      C      -2.7479672043     0.9520847387    -3.8563002687
    7      H      -1.6093667120    -2.3785746053    -2.0355938628
    8      H      -0.6059489056    -0.1580058089    -2.4546254697
    9      H      -3.3589071063     0.9888470507    -1.7729351505
   10      H      -1.8946200955     1.9206409792    -2.0988084630
   11      H      -1.6392952967    -1.5930528145    -4.3893586127
   12      H      -3.1043984729    -2.5181966162    -4.0562009593
   13      H      -3.5929298744    -0.3991847748    -5.3402473129
   14      H      -4.4115898185    -0.4291805943    -3.7765703776
   15      H      -1.8141242845     1.0687344116    -4.4290195311
   16      H      -3.3887123766     1.8037557558    -4.1220593187
   17      H      -3.1843808796    -1.6393666562    -1.7331258664
   18      N      -1.2459491930    -0.1744401604    -0.5105807413
   19      H      -1.9994410963    -0.2686941754     0.1633559353
   20      C       0.0031880851     0.0018314261    -0.0213532338
   21      H       0.0296961393     0.0066594383     1.0807183404
   22      O       1.0192853634     0.1443488336    -0.7070207681
 ----------------------------------------------------------------
 Nuclear Repulsion Energy =         467.15710142 hartrees
 There are       35 alpha and       35 beta electrons
 Discretize the solute cavity surface with Lebedev spheres
	Using 302 Lebedev grid points for each H atom
	Using 302 Lebedev grid points for other atoms
	Atomic van der Waals radii will be scaled by 1.20
 Remove points where switching function is < 1.0e-08
 Keep 2733 surface tesserae and discard 3911 interior tesserae
 Molecular Surface Area = 182.637 Angst**2
 Applying Cartesian multipole field
    Component          Value
    ---------          -----
     (0,0,1)       -3.89000E-03
 Nucleus-field energy     =     1.1432481669 hartrees
 Requested basis set is 6-31+G(d)
 There are 71 shells and 197 basis functions
 A cutoff of  1.0D-14 yielded   2414 shell pairs
 There are     19014 function pairs
 Smallest overlap matrix eigenvalue = 2.48E-05
 Guess MOs from SCF MO coefficient file

 -----------------------------------------------------------------------
  General SCF calculation program by
  Eric Jon Sundstrom, Paul Horn, Yuezhi Mao, Dmitri Zuev, Alec White,
  David Stuck, Shaama M.S., Shane Yost, Joonho Lee, David Small,
  Daniel Levine, Susi Lehtola, Hugh Burton, Evgeny Epifanovsky,
  Bang C. Huynh
 -----------------------------------------------------------------------
 Exchange:     0.2000 Hartree-Fock + 0.0800 Slater + 0.7200 B88
 Correlation:  0.1900 VWN1RPA + 0.8100 LYP
 Using Euler-Maclaurin-Lebedev (99,590) quadrature formula
 using 16 threads for integral computing
 -------------------------------------------------------
 OpenMP Integral computing Module                
 Release: version 2.0, May 2017, Q-Chem Inc. Pleasanton 
 -------------------------------------------------------
 A restricted SCF calculation will be
 performed using Roothaan-Hall, DIIS
 SCF converges when DIIS error is below 1.0e-09
 ---------------------------------------
  Cycle       Energy         DIIS error
 ---------------------------------------
    1    -404.5840969411      6.41e-04  Roothaan Step
 ---------------------------------------
  Cycle       Energy         DIIS error
 ---------------------------------------
    1    -404.5925256933      1.13e-03  
    2    -404.5791539665      2.42e-03  
    3    -404.6014137880      1.78e-04  
    4    -404.6015419775      9.56e-05  
    5    -404.6015758866      3.42e-05  
    6    -404.6015805907      7.83e-06  
    7    -404.6015808207      2.75e-06  
    8    -404.6015808563      4.50e-07  
    9    -404.6015808571      2.01e-07  
   10    -404.6015808573      4.40e-08  
   11    -404.6015808573      1.18e-08  
   12    -404.6015808573      2.82e-09  
   13    -404.6015808573      4.70e-10  Convergence criterion met
 ---------------------------------------
 SCF time:   CPU 988.71s  wall 65.00s 

************** Final PCM Free Energy Summary **************
 G_electrostatic  =      -0.01677736 hartree =     -10.52795183 kcal/mol
 G_cavitation     =       0.00000000 hartree =       0.00000000 kcal/mol
 G_dispersion     =       0.00000000 hartree =       0.00000000 kcal/mol
 G_repulsion      =       0.00000000 hartree =       0.00000000 kcal/mol
 --------------------------------------------------
 Non-electrostatic Free Energy =       0.00000000 hartree =       0.00000000 kcal/mol
 Total                         =      -0.01677736 hartree =     -10.52795183 kcal/mol
 --------------------------------------------------
 SCF Energy (H0 + V/2)                       =    -404.60158086 
 Solute Internal Energy (H0)                 =    -404.58480350 
 Total Free Energy (H0 + V/2 + non-elec)     =    -404.60158086 hartree
                                             = -253891.32396952 kcal/mol
***********************************************************

 SCF   energy in the final basis set =     -404.6015808573
 Total energy in the final basis set =     -404.6015808573
 
 --------------------------------------------------------------
 
                    Orbital Energies (a.u.)
 --------------------------------------------------------------
 
 Alpha MOs
 -- Occupied --
-19.1388 -14.3760 -10.2968 -10.2394 -10.2091 -10.2082 -10.2082 -10.2009
-10.2005  -1.0458  -0.9386  -0.8464  -0.7641  -0.7618  -0.6525  -0.6340
 -0.6007  -0.5859  -0.5371  -0.4991  -0.4778  -0.4630  -0.4612  -0.4317
 -0.4293  -0.4152  -0.4016  -0.3892  -0.3673  -0.3666  -0.3476  -0.3356
 -0.3313  -0.2748  -0.2684
 -- Virtual --
 -0.0245  -0.0036  -0.0014   0.0060   0.0064   0.0260   0.0289   0.0308
  0.0407   0.0455   0.0583   0.0697   0.0719   0.0726   0.0766   0.0822
  0.0902   0.0954   0.1068   0.1172   0.1246   0.1331   0.1356   0.1441
  0.1524   0.1543   0.1613   0.1689   0.1802   0.1829   0.1976   0.2012
  0.2037   0.2048   0.2156   0.2255   0.2375   0.2430   0.2524   0.2560
  0.2648   0.2687   0.2698   0.2758   0.2800   0.2916   0.2982   0.3106
  0.3126   0.3164   0.3423   0.3488   0.3583   0.3738   0.3936   0.4047
  0.4258   0.4430   0.4794   0.5899   0.6173   0.6330   0.6418   0.6483
  0.6608   0.6772   0.7064   0.7137   0.7321   0.7352   0.7629   0.7679
  0.7810   0.7878   0.8050   0.8309   0.8462   0.8989   0.9472   0.9534
  0.9545   0.9696   0.9988   1.0161   1.0174   1.0385   1.0682   1.0856
  1.0996   1.1023   1.1030   1.1323   1.1397   1.1504   1.1603   1.1694
  1.2220   1.2404   1.2760   1.3233   1.3301   1.3662   1.3715   1.4018
  1.4677   1.4755   1.4809   1.5443   1.5561   1.5936   1.6938   1.7112
  1.7152   1.7379   1.7587   1.7916   1.8390   1.8585   1.8846   1.8873
  1.8920   1.9253   1.9675   1.9911   1.9966   2.0301   2.0362   2.0688
  2.0768   2.1181   2.1843   2.2046   2.2679   2.2968   2.3009   2.3268
  2.3774   2.3914   2.3958   2.3995   2.4339   2.5484   2.5737   2.6042
  2.6484   2.6684   2.6883   2.7378   2.7645   2.8168   2.8580   2.9957
  3.1751   4.0833   4.1796   4.2188   4.2716   4.3145   4.4090   4.5778
  4.5885   4.6584
 --------------------------------------------------------------
 
          Ground-State Mulliken Net Atomic Charges

     Atom                 Charge (a.u.)
  ----------------------------------------
      1 C                    -0.258984
      2 C                    -0.453013
      3 C                    -0.283632
      4 C                    -0.449922
      5 C                    -0.377831
      6 C                    -0.453138
      7 H                     0.217073
      8 H                     0.222629
      9 H                     0.220763
     10 H                     0.215859
     11 H                     0.195798
     12 H                     0.196042
     13 H                     0.176792
     14 H                     0.208155
     15 H                     0.195651
     16 H                     0.195420
     17 H                     0.220868
     18 N                    -0.392781
     19 H                     0.454033
     20 C                     0.348260
     21 H                     0.202796
     22 O                    -0.600841
  ----------------------------------------
  Sum of atomic charges =     0.000000

 -----------------------------------------------------------------
                    Cartesian Multipole Moments
 -----------------------------------------------------------------
    Charge (ESU x 10^10)
                -0.0000
    Dipole Moment (Debye)
         X      -5.3428      Y      -0.7227      Z       1.9859
       Tot       5.7456
    Quadrupole Moments (Debye-Ang)
        XX     -54.2616     XY       0.3218     YY     -57.0492
        XZ       2.2811     YZ       0.3920     ZZ     -57.9737
    Octopole Moments (Debye-Ang^2)
       XXX     280.8857    XXY       8.9896    XYY     100.3836
       YYY      35.3784    XXZ     133.9501    XYZ       0.4335
       YYZ     130.3108    XZZ     105.2642    YZZ      11.9636
       ZZZ     406.1499
    Hexadecapole Moments (Debye-Ang^3)
      XXXX   -1748.4815   XXXY     -84.5875   XXYY    -363.2422
      XYYY     -88.8219   YYYY    -403.6395   XXXZ    -990.8534
      XXYZ     -37.9416   XYYZ    -327.0173   YYYZ    -111.7638
      XXZZ    -772.7632   XYZZ     -32.2178   YYZZ    -520.0301
      XZZZ   -1040.8645   YZZZ    -116.8493   ZZZZ   -2763.9043
 -----------------------------------------------------------------
 Calculating analytic gradient of the SCF energy
 Gradient of SCF Energy
            1           2           3           4           5           6
    1   0.0060478  -0.0004394   0.0058351  -0.0007288   0.0055303  -0.0002093
    2  -0.0031387   0.0000552   0.0043481   0.0033439   0.0003559  -0.0029910
    3  -0.0057261  -0.0036043  -0.0067599   0.0026384  -0.0005535   0.0024172
            7           8           9          10          11          12
    1   0.0007152  -0.0026503  -0.0049165   0.0001260   0.0007195  -0.0011496
    2  -0.0018614  -0.0003723  -0.0006280   0.0014754   0.0001025  -0.0018210
    3   0.0010209   0.0000160   0.0036348   0.0008046  -0.0003508   0.0001050
           13          14          15          16          17          18
    1  -0.0002479  -0.0027055   0.0005499  -0.0012917  -0.0051256   0.0068113
    2  -0.0000285  -0.0001758  -0.0000898   0.0014825  -0.0000048   0.0007624
    3  -0.0006855   0.0019497  -0.0002931   0.0000789   0.0038534  -0.0075709
           19          20          21          22
    1  -0.0113452   0.0119790  -0.0039739  -0.0035304
    2  -0.0013384   0.0013568  -0.0004452  -0.0003879
    3   0.0097641  -0.0091619   0.0063353   0.0020877
 Max gradient component =       1.198E-02
 RMS gradient           =       3.899E-03
 Computing fast CPCM-SWIG gradient
 Updating gradient with PCM contributions...
 -- total gradient after adding PCM contribution --
---------------------------------------------------
  Atom         X              Y              Z     
---------------------------------------------------
   1       0.000146      -0.000230      -0.000338
   2      -0.000455      -0.000013      -0.000135
   3       0.000187       0.000217      -0.000417
   4      -0.000109       0.000007       0.000150
   5       0.000461       0.000046      -0.000079
   6      -0.000079      -0.000068       0.000154
   7       0.000013       0.000044       0.000061
   8       0.000208       0.000030      -0.000002
   9      -0.000023      -0.000018       0.000106
  10       0.000023      -0.000034       0.000056
  11       0.000050       0.000010      -0.000165
  12       0.000133      -0.000081      -0.000006
  13      -0.000004       0.000018      -0.000067
  14       0.000056       0.000004      -0.000090
  15       0.000052       0.000006      -0.000149
  16       0.000118       0.000113       0.000007
  17      -0.000028       0.000037       0.000117
  18      -0.002160      -0.000201      -0.000066
  19       0.000021       0.000024       0.000017
  20       0.007498       0.000760      -0.002533
  21      -0.001047      -0.000057       0.000759
  22      -0.005062      -0.000615       0.002621
---------------------------------------------------
 Number of fixed atoms: 0
 Gradient time:  CPU 144.08 s  wall 12.76 s
 Geometry Optimization Parameters
   NAtoms,    NIC,     NZ,  NCons,   NDum,   NFix, NCnnct, MaxDiis
       22     172       0       0       0       0       0       0

 Cartesian Hessian Update
 Hessian updated using BFGS update


** GEOMETRY OPTIMIZATION IN DELOCALIZED INTERNAL COORDINATES **
   Searching for a Minimum

   Optimization Cycle:   2

                       Coordinates (Angstroms)
     ATOM                X               Y               Z
      1  C        -2.4244802811    0.9945089829   -2.3535513466
      2  C        -1.5694018462   -0.2149896880   -1.9362733342
      3  C        -2.2562306520   -1.5379219320   -2.3152401768
      4  C        -2.5810447420   -1.5824467679   -3.8178523053
      5  C        -3.4220454526   -0.3713244047   -4.2539916963
      6  C        -2.7479672043    0.9520847387   -3.8563002687
      7  H        -1.6093667120   -2.3785746053   -2.0355938628
      8  H        -0.6059489056   -0.1580058089   -2.4546254697
      9  H        -3.3589071063    0.9888470507   -1.7729351505
     10  H        -1.8946200955    1.9206409792   -2.0988084630
     11  H        -1.6392952967   -1.5930528145   -4.3893586127
     12  H        -3.1043984729   -2.5181966162   -4.0562009593
     13  H        -3.5929298744   -0.3991847748   -5.3402473129
     14  H        -4.4115898185   -0.4291805943   -3.7765703776
     15  H        -1.8141242845    1.0687344116   -4.4290195311
     16  H        -3.3887123766    1.8037557558   -4.1220593187
     17  H        -3.1843808796   -1.6393666562   -1.7331258664
     18  N        -1.2459491930   -0.1744401604   -0.5105807413
     19  H        -1.9994410963   -0.2686941754    0.1633559353
     20  C         0.0031880851    0.0018314261   -0.0213532338
     21  H         0.0296961393    0.0066594383    1.0807183404
     22  O         1.0192853634    0.1443488336   -0.7070207681
   Point Group: c1    Number of degrees of freedom:    60


   Energy is   -404.601580857

 Hessian updated using BFGS update

 60 Hessian modes will be used to form the next step
  Hessian Eigenvalues:
     0.005865    0.005977    0.006905    0.007192    0.012603    0.019497
     0.019711    0.020845    0.020912    0.036961    0.038528    0.039415
     0.041624    0.048259    0.048450    0.048887    0.055292    0.055561
     0.055738    0.060149    0.066959    0.081531    0.081597    0.081819
     0.082074    0.082141    0.084724    0.087508    0.120562    0.120969
     0.142953    0.156673    0.160332    0.163932    0.174896    0.210199
     0.219937    0.234108    0.272254    0.272626    0.275535    0.286786
     0.287107    0.287183    0.324832    0.334522    0.334817    0.335798
     0.336547    0.337381    0.339396    0.339449    0.340117    0.340272
     0.340739    0.343789    0.363752    0.454330    0.494545    0.773465

 Minimum search - taking simple RFO step
 Searching for Lamda that Minimizes Along All modes
 Value Taken    Lamda =  -0.00009864
 Step Taken.  Stepsize is  0.052752

                             Maximum     Tolerance    Cnvgd?
         Gradient           0.003077      0.000100      NO
         Displacement       0.018814      0.000100      NO
         Energy change     -0.000433      0.000000      NO


 New Cartesian Coordinates Obtained by Inverse Iteration

 Displacement from previous Coordinates is:  0.098363
 ----------------------------------------------------------------
             Standard Nuclear Orientation (Angstroms)
    I     Atom           X                Y                Z
 ----------------------------------------------------------------
    1      C      -2.4319811674     0.9934393274    -2.3486388003
    2      C      -1.5748506186    -0.2158551169    -1.9333167694
    3      C      -2.2646340146    -1.5383086631    -2.3103263616
    4      C      -2.5795159637    -1.5826490214    -3.8151641767
    5      C      -3.4167174957    -0.3708317430    -4.2577877167
    6      C      -2.7462065144     0.9528290219    -3.8535332150
    7      H      -1.6217958989    -2.3807782477    -2.0268854139
    8      H      -0.6145433656    -0.1595184668    -2.4567214641
    9      H      -3.3694627550     0.9836053664    -1.7735661124
   10      H      -1.9059568241     1.9205993735    -2.0897021072
   11      H      -1.6328532066    -1.5939952376    -4.3784341598
   12      H      -3.1025218720    -2.5174468172    -4.0579055598
   13      H      -3.5764103829    -0.3980297573    -5.3458876310
   14      H      -4.4106525565    -0.4290128030    -3.7897642491
   15      H      -1.8078114136     1.0710484196    -4.4184047776
   16      H      -3.3864096194     1.8036660613    -4.1231638400
   17      H      -3.1964899269    -1.6361174211    -1.7341283971
   18      N      -1.2429440512    -0.1745056970    -0.5104320342
   19      H      -1.9926338168    -0.2705356770     0.1679027284
   20      C       0.0057708765     0.0054349690    -0.0295051286
   21      H       0.0464855473     0.0065495954     1.0704577393
   22      O       1.0234703376     0.1464451531    -0.7217270732
 ----------------------------------------------------------------
 Nuclear Repulsion Energy =         467.16403635 hartrees
 There are       35 alpha and       35 beta electrons
 Discretize the solute cavity surface with Lebedev spheres
	Using 302 Lebedev grid points for each H atom
	Using 302 Lebedev grid points for other atoms
	Atomic van der Waals radii will be scaled by 1.20
 Remove points where switching function is < 1.0e-08
 Keep 2738 surface tesserae and discard 3906 interior tesserae
 Molecular Surface Area = 182.593 Angst**2
 Applying Cartesian multipole field
    Component          Value
    ---------          -----
     (0,0,1)       -3.89000E-03
 Nucleus-field energy     =     1.1437671568 hartrees
 Requested basis set is 6-31+G(d)
 There are 71 shells and 197 basis functions
 A cutoff of  1.0D-14 yielded   2414 shell pairs
 There are     19014 function pairs
 Smallest overlap matrix eigenvalue = 2.50E-05
 Guess MOs from SCF MO coefficient file

 -----------------------------------------------------------------------
  General SCF calculation program by
  Eric Jon Sundstrom, Paul Horn, Yuezhi Mao, Dmitri Zuev, Alec White,
  David Stuck, Shaama M.S., Shane Yost, Joonho Lee, David Small,
  Daniel Levine, Susi Lehtola, Hugh Burton, Evgeny Epifanovsky,
  Bang C. Huynh
 -----------------------------------------------------------------------
 Exchange:     0.2000 Hartree-Fock + 0.0800 Slater + 0.7200 B88
 Correlation:  0.1900 VWN1RPA + 0.8100 LYP
 Using Euler-Maclaurin-Lebedev (99,590) quadrature formula
 using 16 threads for integral computing
 -------------------------------------------------------
 OpenMP Integral computing Module                
 Release: version 2.0, May 2017, Q-Chem Inc. Pleasanton 
 -------------------------------------------------------
 A restricted SCF calculation will be
 performed using Roothaan-Hall, DIIS
 SCF converges when DIIS error is below 1.0e-09
 ---------------------------------------
  Cycle       Energy         DIIS error
 ---------------------------------------
    1    -404.5846001951      5.54e-04  Roothaan Step
 ---------------------------------------
  Cycle       Energy         DIIS error
 ---------------------------------------
    1    -404.5921829093      1.16e-03  
    2    -404.5779893444      2.48e-03  
    3    -404.6014493201      1.83e-04  
    4    -404.6015883578      9.58e-05  
    5    -404.6016221745      3.48e-05  
    6    -404.6016270354      7.94e-06  
    7    -404.6016272719      2.80e-06  
    8    -404.6016273088      4.76e-07  
    9    -404.6016273097      2.10e-07  
   10    -404.6016273099      4.40e-08  
   11    -404.6016273100      1.18e-08  
   12    -404.6016273100      2.94e-09  
   13    -404.6016273100      4.55e-10  Convergence criterion met
 ---------------------------------------
 SCF time:   CPU 997.07s  wall 65.00s 

************** Final PCM Free Energy Summary **************
 G_electrostatic  =      -0.01706333 hartree =     -10.70740222 kcal/mol
 G_cavitation     =       0.00000000 hartree =       0.00000000 kcal/mol
 G_dispersion     =       0.00000000 hartree =       0.00000000 kcal/mol
 G_repulsion      =       0.00000000 hartree =       0.00000000 kcal/mol
 --------------------------------------------------
 Non-electrostatic Free Energy =       0.00000000 hartree =       0.00000000 kcal/mol
 Total                         =      -0.01706333 hartree =     -10.70740222 kcal/mol
 --------------------------------------------------
 SCF Energy (H0 + V/2)                       =    -404.60162731 
 Solute Internal Energy (H0)                 =    -404.58456398 
 Total Free Energy (H0 + V/2 + non-elec)     =    -404.60162731 hartree
                                             = -253891.35311901 kcal/mol
***********************************************************

 SCF   energy in the final basis set =     -404.6016273100
 Total energy in the final basis set =     -404.6016273100
 
 --------------------------------------------------------------
 
                    Orbital Energies (a.u.)
 --------------------------------------------------------------
 
 Alpha MOs
 -- Occupied --
-19.1384 -14.3770 -10.2969 -10.2396 -10.2092 -10.2083 -10.2082 -10.2011
-10.2006  -1.0435  -0.9393  -0.8467  -0.7642  -0.7621  -0.6530  -0.6339
 -0.6013  -0.5861  -0.5376  -0.4993  -0.4777  -0.4634  -0.4612  -0.4315
 -0.4289  -0.4150  -0.4017  -0.3884  -0.3674  -0.3667  -0.3477  -0.3360
 -0.3312  -0.2743  -0.2687
 -- Virtual --
 -0.0245  -0.0036  -0.0013   0.0055   0.0063   0.0259   0.0289   0.0308
  0.0408   0.0455   0.0583   0.0697   0.0718   0.0726   0.0765   0.0821
  0.0902   0.0955   0.1069   0.1173   0.1245   0.1331   0.1357   0.1443
  0.1522   0.1541   0.1616   0.1689   0.1800   0.1829   0.1972   0.2016
  0.2035   0.2050   0.2155   0.2255   0.2373   0.2430   0.2518   0.2553
  0.2644   0.2690   0.2696   0.2757   0.2801   0.2910   0.2980   0.3112
  0.3134   0.3162   0.3419   0.3488   0.3584   0.3742   0.3933   0.4046
  0.4252   0.4438   0.4773   0.5897   0.6172   0.6333   0.6417   0.6485
  0.6607   0.6774   0.7062   0.7136   0.7322   0.7355   0.7629   0.7677
  0.7809   0.7869   0.8046   0.8314   0.8465   0.8998   0.9468   0.9537
  0.9547   0.9696   0.9989   1.0158   1.0168   1.0377   1.0677   1.0855
  1.0987   1.1020   1.1031   1.1332   1.1389   1.1504   1.1610   1.1698
  1.2220   1.2403   1.2760   1.3247   1.3310   1.3656   1.3717   1.4021
  1.4658   1.4755   1.4818   1.5427   1.5559   1.5937   1.6952   1.7115
  1.7145   1.7372   1.7590   1.7916   1.8389   1.8576   1.8839   1.8882
  1.8922   1.9257   1.9686   1.9910   1.9973   2.0302   2.0366   2.0671
  2.0766   2.1184   2.1846   2.2042   2.2685   2.2960   2.3013   2.3261
  2.3769   2.3892   2.3951   2.3993   2.4340   2.5478   2.5736   2.6025
  2.6481   2.6676   2.6872   2.7382   2.7654   2.8166   2.8570   2.9909
  3.1745   4.0840   4.1799   4.2175   4.2714   4.3139   4.4080   4.5788
  4.5892   4.6586
 --------------------------------------------------------------
 
          Ground-State Mulliken Net Atomic Charges

     Atom                 Charge (a.u.)
  ----------------------------------------
      1 C                    -0.258513
      2 C                    -0.459093
      3 C                    -0.284438
      4 C                    -0.447721
      5 C                    -0.378473
      6 C                    -0.451098
      7 H                     0.217319
      8 H                     0.222917
      9 H                     0.220938
     10 H                     0.216056
     11 H                     0.196103
     12 H                     0.195938
     13 H                     0.176785
     14 H                     0.208116
     15 H                     0.195925
     16 H                     0.195315
     17 H                     0.221120
     18 N                    -0.388113
     19 H                     0.454735
     20 C                     0.348053
     21 H                     0.203628
     22 O                    -0.605500
  ----------------------------------------
  Sum of atomic charges =     0.000000

 -----------------------------------------------------------------
                    Cartesian Multipole Moments
 -----------------------------------------------------------------
    Charge (ESU x 10^10)
                -0.0000
    Dipole Moment (Debye)
         X      -5.3994      Y      -0.7367      Z       2.0195
       Tot       5.8115
    Quadrupole Moments (Debye-Ang)
        XX     -54.2419     XY       0.3285     YY     -57.0386
        XZ       2.4004     YZ       0.4103     ZZ     -58.0208
    Octopole Moments (Debye-Ang^2)
       XXX     280.5369    XXY       8.9031    XYY     100.2904
       YYY      35.2715    XXZ     133.9459    XYZ       0.4325
       YYZ     130.3515    XZZ     105.0707    YZZ      11.8920
       ZZZ     406.3189
    Hexadecapole Moments (Debye-Ang^3)
      XXXX   -1748.7107   XXXY     -84.6016   XXYY    -363.3462
      XYYY     -88.9331   YYYY    -403.5307   XXXZ    -989.2938
      XXYZ     -37.8075   XYYZ    -326.6643   YYYZ    -111.5927
      XXZZ    -772.3984   XYZZ     -32.2245   YYZZ    -519.6999
      XZZZ   -1039.8630   YZZZ    -116.6379   ZZZZ   -2762.2957
 -----------------------------------------------------------------
 Calculating analytic gradient of the SCF energy
 Gradient of SCF Energy
            1           2           3           4           5           6
    1   0.0058635   0.0000778   0.0055472  -0.0005520   0.0051156  -0.0000724
    2  -0.0030264   0.0000342   0.0042117   0.0033496   0.0003160  -0.0029126
    3  -0.0054250  -0.0034175  -0.0065214   0.0026215  -0.0004319   0.0023805
            7           8           9          10          11          12
    1   0.0007140  -0.0028879  -0.0049317   0.0000974   0.0008425  -0.0012417
    2  -0.0019628  -0.0003856  -0.0006102   0.0015682   0.0001192  -0.0017701
    3   0.0009949   0.0001435   0.0034325   0.0007910  -0.0001935   0.0000626
           13          14          15          16          17          18
    1  -0.0001274  -0.0027324   0.0006635  -0.0013719  -0.0051416   0.0084121
    2  -0.0000319  -0.0001757  -0.0000941   0.0014136  -0.0000618   0.0007457
    3  -0.0007813   0.0019364  -0.0001383   0.0000340   0.0036418  -0.0077854
           19          20          21          22
    1  -0.0115522   0.0047543  -0.0031404   0.0016638
    2  -0.0014685   0.0016783  -0.0007996  -0.0001372
    3   0.0099689  -0.0064110   0.0055455  -0.0004479
 Max gradient component =       1.155E-02
 RMS gradient           =       3.540E-03
 Computing fast CPCM-SWIG gradient
 Updating gradient with PCM contributions...
 -- total gradient after adding PCM contribution --
---------------------------------------------------
  Atom         X              Y              Z     
---------------------------------------------------
   1      -0.000107      -0.000090      -0.000024
   2       0.000057      -0.000049       0.000141
   3      -0.000148       0.000036      -0.000122
   4       0.000067      -0.000013       0.000111
   5       0.000033       0.000006      -0.000000
   6       0.000051       0.000022       0.000108
   7      -0.000007      -0.000011       0.000003
   8      -0.000001       0.000019       0.000105
   9       0.000017       0.000021      -0.000089
  10      -0.000013       0.000025       0.000016
  11       0.000167       0.000027      -0.000023
  12       0.000054      -0.000022      -0.000038
  13       0.000106       0.000015      -0.000162
  14       0.000057       0.000007      -0.000086
  15       0.000169       0.000004      -0.000008
  16       0.000048       0.000042      -0.000030
  17       0.000022      -0.000028      -0.000091
  18      -0.000556      -0.000239      -0.000193
  19      -0.000158      -0.000067       0.000093
  20       0.000277       0.001053       0.000221
  21      -0.000252      -0.000383      -0.000067
  22       0.000116      -0.000376       0.000135
---------------------------------------------------
 Number of fixed atoms: 0
 Gradient time:  CPU 143.16 s  wall 13.59 s
 Geometry Optimization Parameters
   NAtoms,    NIC,     NZ,  NCons,   NDum,   NFix, NCnnct, MaxDiis
       22     172       0       0       0       0       0       0

 Cartesian Hessian Update
 Hessian updated using BFGS update


** GEOMETRY OPTIMIZATION IN DELOCALIZED INTERNAL COORDINATES **
   Searching for a Minimum

   Optimization Cycle:   3

                       Coordinates (Angstroms)
     ATOM                X               Y               Z
      1  C        -2.4319811674    0.9934393274   -2.3486388003
      2  C        -1.5748506186   -0.2158551169   -1.9333167694
      3  C        -2.2646340146   -1.5383086631   -2.3103263616
      4  C        -2.5795159637   -1.5826490214   -3.8151641767
      5  C        -3.4167174957   -0.3708317430   -4.2577877167
      6  C        -2.7462065144    0.9528290219   -3.8535332150
      7  H        -1.6217958989   -2.3807782477   -2.0268854139
      8  H        -0.6145433656   -0.1595184668   -2.4567214641
      9  H        -3.3694627550    0.9836053664   -1.7735661124
     10  H        -1.9059568241    1.9205993735   -2.0897021072
     11  H        -1.6328532066   -1.5939952376   -4.3784341598
     12  H        -3.1025218720   -2.5174468172   -4.0579055598
     13  H        -3.5764103829   -0.3980297573   -5.3458876310
     14  H        -4.4106525565   -0.4290128030   -3.7897642491
     15  H        -1.8078114136    1.0710484196   -4.4184047776
     16  H        -3.3864096194    1.8036660613   -4.1231638400
     17  H        -3.1964899269   -1.6361174211   -1.7341283971
     18  N        -1.2429440512   -0.1745056970   -0.5104320342
     19  H        -1.9926338168   -0.2705356770    0.1679027284
     20  C         0.0057708765    0.0054349690   -0.0295051286
     21  H         0.0464855473    0.0065495954    1.0704577393
     22  O         1.0234703376    0.1464451531   -0.7217270732
   Point Group: c1    Number of degrees of freedom:    60


   Energy is   -404.601627310

 Hessian updated using BFGS update

 60 Hessian modes will be used to form the next step
  Hessian Eigenvalues:
     0.005664    0.005975    0.006868    0.007181    0.012589    0.019481
     0.019619    0.020844    0.024497    0.037294    0.038533    0.039422
     0.041733    0.048324    0.048449    0.048880    0.055296    0.055720
     0.055783    0.060166    0.066959    0.081533    0.081604    0.081901
     0.082121    0.082243    0.084620    0.087517    0.120057    0.120968
     0.143021    0.149353    0.160272    0.162372    0.174914    0.210269
     0.220347    0.237536    0.271647    0.272714    0.275535    0.286246
     0.286974    0.288145    0.327262    0.334536    0.334874    0.335796
     0.336547    0.337415    0.339409    0.339449    0.340121    0.340273
     0.341101    0.343294    0.365481    0.454753    0.468542    0.784687

 Minimum search - taking simple RFO step
 Searching for Lamda that Minimizes Along All modes
 Value Taken    Lamda =  -0.00002331
 Step Taken.  Stepsize is  0.032585

                             Maximum     Tolerance    Cnvgd?
         Gradient           0.000563      0.000100      NO
         Displacement       0.021656      0.000100      NO
         Energy change     -0.000046      0.000000      NO


 New Cartesian Coordinates Obtained by Inverse Iteration

 Displacement from previous Coordinates is:  0.047639
 ----------------------------------------------------------------
             Standard Nuclear Orientation (Angstroms)
    I     Atom           X                Y                Z
 ----------------------------------------------------------------
    1      C      -2.4312811699     0.9918014911    -2.3468466787
    2      C      -1.5751765789    -0.2189152651    -1.9329131546
    3      C      -2.2674020740    -1.5401337254    -2.3101173969
    4      C      -2.5809617923    -1.5830304470    -3.8155155127
    5      C      -3.4157300920    -0.3696890839    -4.2585174297
    6      C      -2.7443360269     0.9529065982    -3.8522519361
    7      H      -1.6266247490    -2.3840893503    -2.0264960619
    8      H      -0.6155966776    -0.1636747768    -2.4576176074
    9      H      -3.3692849414     0.9816950408    -1.7725488441
   10      H      -1.9048493481     1.9182904952    -2.0864914158
   11      H      -1.6336688239    -1.5956997428    -4.3773952162
   12      H      -3.1053605559    -2.5165995523    -4.0597398188
   13      H      -3.5731496761    -0.3958693291    -5.3468359741
   14      H      -4.4106620151    -0.4269638360    -3.7925422311
   15      H      -1.8053093738     1.0709285080    -4.4158250287
   16      H      -3.3836266655     1.8043140386    -4.1219934678
   17      H      -3.2001130388    -1.6359916788    -1.7349095518
   18      N      -1.2414792481    -0.1792086849    -0.5103454972
   19      H      -1.9906541123    -0.2759362869     0.1683725566
   20      C       0.0062774914     0.0026339520    -0.0306481156
   21      H       0.0489236046     0.0174575162     1.0690313105
   22      O       1.0214011614     0.1618067377    -0.7244874480
 ----------------------------------------------------------------
 Nuclear Repulsion Energy =         467.17446885 hartrees
 There are       35 alpha and       35 beta electrons
 Discretize the solute cavity surface with Lebedev spheres
	Using 302 Lebedev grid points for each H atom
	Using 302 Lebedev grid points for other atoms
	Atomic van der Waals radii will be scaled by 1.20
 Remove points where switching function is < 1.0e-08
 Keep 2740 surface tesserae and discard 3904 interior tesserae
 Molecular Surface Area = 182.579 Angst**2
 Applying Cartesian multipole field
    Component          Value
    ---------          -----
     (0,0,1)       -3.89000E-03
 Nucleus-field energy     =     1.1438516472 hartrees
 Requested basis set is 6-31+G(d)
 There are 71 shells and 197 basis functions
 A cutoff of  1.0D-14 yielded   2414 shell pairs
 There are     19014 function pairs
 Smallest overlap matrix eigenvalue = 2.50E-05
 Guess MOs from SCF MO coefficient file

 -----------------------------------------------------------------------
  General SCF calculation program by
  Eric Jon Sundstrom, Paul Horn, Yuezhi Mao, Dmitri Zuev, Alec White,
  David Stuck, Shaama M.S., Shane Yost, Joonho Lee, David Small,
  Daniel Levine, Susi Lehtola, Hugh Burton, Evgeny Epifanovsky,
  Bang C. Huynh
 -----------------------------------------------------------------------
 Exchange:     0.2000 Hartree-Fock + 0.0800 Slater + 0.7200 B88
 Correlation:  0.1900 VWN1RPA + 0.8100 LYP
 Using Euler-Maclaurin-Lebedev (99,590) quadrature formula
 using 16 threads for integral computing
 -------------------------------------------------------
 OpenMP Integral computing Module                
 Release: version 2.0, May 2017, Q-Chem Inc. Pleasanton 
 -------------------------------------------------------
 A restricted SCF calculation will be
 performed using Roothaan-Hall, DIIS
 SCF converges when DIIS error is below 1.0e-09
 ---------------------------------------
  Cycle       Energy         DIIS error
 ---------------------------------------
    1    -404.5843640914      5.64e-04  Roothaan Step
 ---------------------------------------
  Cycle       Energy         DIIS error
 ---------------------------------------
    1    -404.5921557026      1.15e-03  
    2    -404.5782019440      2.47e-03  
    3    -404.6014314909      1.83e-04  
    4    -404.6015710730      9.52e-05  
    5    -404.6016043776      3.51e-05  
    6    -404.6016093107      7.94e-06  
    7    -404.6016095468      2.80e-06  
    8    -404.6016095837      4.79e-07  
    9    -404.6016095847      2.10e-07  
   10    -404.6016095849      4.44e-08  
   11    -404.6016095849      1.17e-08  
   12    -404.6016095849      2.98e-09  
   13    -404.6016095849      4.50e-10  Convergence criterion met
 ---------------------------------------
 SCF time:   CPU 986.82s  wall 65.00s 

************** Final PCM Free Energy Summary **************
 G_electrostatic  =      -0.01713149 hartree =     -10.75017293 kcal/mol
 G_cavitation     =       0.00000000 hartree =       0.00000000 kcal/mol
 G_dispersion     =       0.00000000 hartree =       0.00000000 kcal/mol
 G_repulsion      =       0.00000000 hartree =       0.00000000 kcal/mol
 --------------------------------------------------
 Non-electrostatic Free Energy =       0.00000000 hartree =       0.00000000 kcal/mol
 Total                         =      -0.01713149 hartree =     -10.75017293 kcal/mol
 --------------------------------------------------
 SCF Energy (H0 + V/2)                       =    -404.60160958 
 Solute Internal Energy (H0)                 =    -404.58447809 
 Total Free Energy (H0 + V/2 + non-elec)     =    -404.60160958 hartree
                                             = -253891.34199638 kcal/mol
***********************************************************

 SCF   energy in the final basis set =     -404.6016095849
 Total energy in the final basis set =     -404.6016095849
 
 --------------------------------------------------------------
 
                    Orbital Energies (a.u.)
 --------------------------------------------------------------
 
 Alpha MOs
 -- Occupied --
-19.1381 -14.3772 -10.2968 -10.2397 -10.2092 -10.2083 -10.2082 -10.2011
-10.2007  -1.0431  -0.9394  -0.8467  -0.7641  -0.7622  -0.6531  -0.6339
 -0.6014  -0.5861  -0.5377  -0.4994  -0.4777  -0.4634  -0.4612  -0.4316
 -0.4287  -0.4149  -0.4017  -0.3882  -0.3675  -0.3667  -0.3476  -0.3361
 -0.3312  -0.2741  -0.2687
 -- Virtual --
 -0.0245  -0.0037  -0.0013   0.0053   0.0064   0.0258   0.0289   0.0308
  0.0408   0.0455   0.0582   0.0697   0.0718   0.0726   0.0765   0.0821
  0.0902   0.0955   0.1069   0.1173   0.1245   0.1330   0.1357   0.1443
  0.1522   0.1541   0.1617   0.1689   0.1799   0.1830   0.1971   0.2017
  0.2034   0.2050   0.2156   0.2255   0.2372   0.2431   0.2517   0.2553
  0.2644   0.2691   0.2694   0.2755   0.2801   0.2909   0.2980   0.3111
  0.3136   0.3162   0.3418   0.3488   0.3584   0.3748   0.3932   0.4046
  0.4252   0.4439   0.4769   0.5896   0.6172   0.6332   0.6417   0.6485
  0.6607   0.6775   0.7062   0.7136   0.7313   0.7363   0.7629   0.7676
  0.7809   0.7868   0.8042   0.8319   0.8465   0.8999   0.9466   0.9538
  0.9548   0.9696   0.9989   1.0158   1.0167   1.0374   1.0676   1.0856
  1.0986   1.1020   1.1031   1.1333   1.1388   1.1503   1.1610   1.1699
  1.2221   1.2399   1.2762   1.3242   1.3320   1.3660   1.3714   1.4020
  1.4670   1.4736   1.4819   1.5427   1.5560   1.5933   1.6956   1.7113
  1.7144   1.7372   1.7591   1.7918   1.8383   1.8582   1.8836   1.8887
  1.8920   1.9255   1.9686   1.9910   1.9974   2.0302   2.0365   2.0667
  2.0766   2.1186   2.1847   2.2038   2.2692   2.2960   2.3011   2.3260
  2.3769   2.3887   2.3950   2.3994   2.4340   2.5477   2.5736   2.6022
  2.6480   2.6672   2.6872   2.7384   2.7656   2.8164   2.8566   2.9900
  3.1746   4.0841   4.1799   4.2174   4.2713   4.3139   4.4075   4.5789
  4.5893   4.6584
 --------------------------------------------------------------
 
          Ground-State Mulliken Net Atomic Charges

     Atom                 Charge (a.u.)
  ----------------------------------------
      1 C                    -0.258959
      2 C                    -0.459592
      3 C                    -0.284093
      4 C                    -0.447441
      5 C                    -0.378727
      6 C                    -0.450866
      7 H                     0.217336
      8 H                     0.223000
      9 H                     0.220980
     10 H                     0.216181
     11 H                     0.196173
     12 H                     0.195897
     13 H                     0.176828
     14 H                     0.208113
     15 H                     0.196027
     16 H                     0.195350
     17 H                     0.221110
     18 N                    -0.387190
     19 H                     0.454886
     20 C                     0.347644
     21 H                     0.203891
     22 O                    -0.606549
  ----------------------------------------
  Sum of atomic charges =     0.000000

 -----------------------------------------------------------------
                    Cartesian Multipole Moments
 -----------------------------------------------------------------
    Charge (ESU x 10^10)
                -0.0000
    Dipole Moment (Debye)
         X      -5.4069      Y      -0.7756      Z       2.0244
       Tot       5.8253
    Quadrupole Moments (Debye-Ang)
        XX     -54.2200     XY       0.2805     YY     -57.0499
        XZ       2.4268     YZ       0.4534     ZZ     -58.0144
    Octopole Moments (Debye-Ang^2)
       XXX     280.4955    XXY       8.8271    XYY     100.2588
       YYY      35.2145    XXZ     133.9055    XYZ       0.4782
       YYZ     130.3647    XZZ     104.9970    YZZ      11.8633
       ZZZ     406.2599
    Hexadecapole Moments (Debye-Ang^3)
      XXXX   -1748.1797   XXXY     -85.3738   XXYY    -363.3485
      XYYY     -89.7481   YYYY    -403.9122   XXXZ    -988.8842
      XXYZ     -37.8433   XYYZ    -326.5846   YYYZ    -111.7200
      XXZZ    -772.0923   XYZZ     -32.5265   YYZZ    -519.6851
      XZZZ   -1039.4076   YZZZ    -116.7399   ZZZZ   -2761.5405
 -----------------------------------------------------------------
 Calculating analytic gradient of the SCF energy
 Gradient of SCF Energy
            1           2           3           4           5           6
    1   0.0058651   0.0001333   0.0056638  -0.0005184   0.0050467  -0.0000331
    2  -0.0029283   0.0002124   0.0041685   0.0033883   0.0003007  -0.0028737
    3  -0.0053978  -0.0033957  -0.0063758   0.0025134  -0.0004870   0.0022430
            7           8           9          10          11          12
    1   0.0007246  -0.0029333  -0.0049851   0.0000637   0.0007903  -0.0012479
    2  -0.0020065  -0.0004401  -0.0006259   0.0015391   0.0001051  -0.0017255
    3   0.0010056   0.0001267   0.0034272   0.0007909  -0.0001249   0.0000286
           13          14          15          16          17          18
    1  -0.0000860  -0.0027412   0.0005908  -0.0013674  -0.0051943   0.0090248
    2  -0.0000332  -0.0001765  -0.0000943   0.0013552  -0.0000500   0.0015253
    3  -0.0007014   0.0019182  -0.0000760  -0.0000051   0.0036343  -0.0077185
           19          20          21          22
    1  -0.0115473   0.0034483  -0.0030081   0.0023103
    2  -0.0012413  -0.0022999   0.0005298   0.0013710
    3   0.0099317  -0.0059296   0.0055300  -0.0009378
 Max gradient component =       1.155E-02
 RMS gradient           =       3.533E-03
 Computing fast CPCM-SWIG gradient
 Updating gradient with PCM contributions...
 -- total gradient after adding PCM contribution --
---------------------------------------------------
  Atom         X              Y              Z     
---------------------------------------------------
   1      -0.000087      -0.000017       0.000003
   2       0.000106       0.000117       0.000168
   3      -0.000069      -0.000050       0.000049
   4       0.000111       0.000006      -0.000023
   5      -0.000040      -0.000001      -0.000066
   6       0.000078       0.000051      -0.000018
   7      -0.000021      -0.000023      -0.000000
   8      -0.000047      -0.000011       0.000086
   9      -0.000026       0.000011      -0.000092
  10      -0.000022       0.000019       0.000018
  11       0.000103       0.000016       0.000046
  12       0.000054       0.000028      -0.000067
  13       0.000146       0.000015      -0.000079
  14       0.000054       0.000006      -0.000099
  15       0.000107       0.000008       0.000052
  16       0.000053      -0.000012      -0.000066
  17      -0.000018      -0.000023      -0.000102
  18       0.000060       0.000565      -0.000112
  19      -0.000140       0.000146       0.000038
  20      -0.001028      -0.002896       0.000696
  21      -0.000126       0.000895      -0.000091
  22       0.000752       0.001150      -0.000342
---------------------------------------------------
 Number of fixed atoms: 0
 Gradient time:  CPU 141.98 s  wall 12.57 s
 Geometry Optimization Parameters
   NAtoms,    NIC,     NZ,  NCons,   NDum,   NFix, NCnnct, MaxDiis
       22     172       0       0       0       0       0       0

 Cartesian Hessian Update
 Hessian updated using BFGS update


** GEOMETRY OPTIMIZATION IN DELOCALIZED INTERNAL COORDINATES **
   Searching for a Minimum

   Optimization Cycle:   4

                       Coordinates (Angstroms)
     ATOM                X               Y               Z
      1  C        -2.4312811699    0.9918014911   -2.3468466787
      2  C        -1.5751765789   -0.2189152651   -1.9329131546
      3  C        -2.2674020740   -1.5401337254   -2.3101173969
      4  C        -2.5809617923   -1.5830304470   -3.8155155127
      5  C        -3.4157300920   -0.3696890839   -4.2585174297
      6  C        -2.7443360269    0.9529065982   -3.8522519361
      7  H        -1.6266247490   -2.3840893503   -2.0264960619
      8  H        -0.6155966776   -0.1636747768   -2.4576176074
      9  H        -3.3692849414    0.9816950408   -1.7725488441
     10  H        -1.9048493481    1.9182904952   -2.0864914158
     11  H        -1.6336688239   -1.5956997428   -4.3773952162
     12  H        -3.1053605559   -2.5165995523   -4.0597398188
     13  H        -3.5731496761   -0.3958693291   -5.3468359741
     14  H        -4.4106620151   -0.4269638360   -3.7925422311
     15  H        -1.8053093738    1.0709285080   -4.4158250287
     16  H        -3.3836266655    1.8043140386   -4.1219934678
     17  H        -3.2001130388   -1.6359916788   -1.7349095518
     18  N        -1.2414792481   -0.1792086849   -0.5103454972
     19  H        -1.9906541123   -0.2759362869    0.1683725566
     20  C         0.0062774914    0.0026339520   -0.0306481156
     21  H         0.0489236046    0.0174575162    1.0690313105
     22  O         1.0214011614    0.1618067377   -0.7244874480
   Point Group: c1    Number of degrees of freedom:    60


   Energy is   -404.601609585

 Hessian updated using BFGS update

 60 Hessian modes will be used to form the next step
  Hessian Eigenvalues:
     0.005853    0.005975    0.006919    0.007109    0.012599    0.019498
     0.019765    0.020845    0.037055    0.038529    0.039417    0.041653
     0.048270    0.048449    0.048878    0.055287    0.055595    0.055726
     0.060125    0.066913    0.081528    0.081598    0.081878    0.082039
     0.082152    0.084421    0.085568    0.087836    0.120165    0.120968
     0.143080    0.149573    0.160217    0.162462    0.175144    0.210293
     0.219495    0.235716    0.271903    0.272698    0.275537    0.286029
     0.286919    0.287529    0.326385    0.334531    0.334841    0.335739
     0.336547    0.337027    0.339397    0.339448    0.340059    0.340232
     0.340375    0.343237    0.364340    0.454422    0.469267    0.786906

 Minimum search - taking simple RFO step
 Searching for Lamda that Minimizes Along All modes
 Value Taken    Lamda =  -0.00004334
 Step Taken.  Stepsize is  0.023828

                             Maximum     Tolerance    Cnvgd?
         Gradient           0.001512      0.000100      NO
         Displacement       0.017461      0.000100      NO
         Energy change      0.000018      0.000000      NO


 New Cartesian Coordinates Obtained by Inverse Iteration

 Displacement from previous Coordinates is:  0.031146
 ----------------------------------------------------------------
             Standard Nuclear Orientation (Angstroms)
    I     Atom           X                Y                Z
 ----------------------------------------------------------------
    1      C      -2.4306464500     0.9928653716    -2.3483511972
    2      C      -1.5742494247    -0.2171905653    -1.9335123400
    3      C      -2.2649919971    -1.5390967700    -2.3105883719
    4      C      -2.5804942040    -1.5828629988    -3.8155640793
    5      C      -3.4166900900    -0.3703283646    -4.2578085470
    6      C      -2.7454647828     0.9528044619    -3.8533463579
    7      H      -1.6228822129    -2.3821557046    -2.0273417412
    8      H      -0.6140484594    -0.1613837904    -2.4572130020
    9      H      -3.3680356014     0.9831634031    -1.7729330683
   10      H      -1.9040410696     1.9195724589    -2.0891661456
   11      H      -1.6341841813    -1.5950865505    -4.3791122942
   12      H      -3.1044380547    -2.5170306102    -4.0585016905
   13      H      -3.5762907134    -0.3971706191    -5.3457687462
   14      H      -4.4107346857    -0.4279591982    -3.7899735523
   15      H      -1.8074348356     1.0709323501    -4.4185533073
   16      H      -3.3854349773     1.8038581018    -4.1226120489
   17      H      -3.1969070624    -1.6359701024    -1.7341392446
   18      N      -1.2424791958    -0.1766851049    -0.5103013911
   19      H      -1.9923277561    -0.2742956868     0.1674643782
   20      C       0.0050602502     0.0057731068    -0.0289261511
   21      H       0.0465663496     0.0103972754     1.0712424451
   22      O       1.0214844522     0.1538821546    -0.7216280667
 ----------------------------------------------------------------
 Nuclear Repulsion Energy =         467.17569027 hartrees
 There are       35 alpha and       35 beta electrons
 Discretize the solute cavity surface with Lebedev spheres
	Using 302 Lebedev grid points for each H atom
	Using 302 Lebedev grid points for other atoms
	Atomic van der Waals radii will be scaled by 1.20
 Remove points where switching function is < 1.0e-08
 Keep 2737 surface tesserae and discard 3907 interior tesserae
 Molecular Surface Area = 182.588 Angst**2
 Applying Cartesian multipole field
    Component          Value
    ---------          -----
     (0,0,1)       -3.89000E-03
 Nucleus-field energy     =     1.1437498633 hartrees
 Requested basis set is 6-31+G(d)
 There are 71 shells and 197 basis functions
 A cutoff of  1.0D-14 yielded   2414 shell pairs
 There are     19014 function pairs
 Smallest overlap matrix eigenvalue = 2.50E-05
 Guess MOs from SCF MO coefficient file

 -----------------------------------------------------------------------
  General SCF calculation program by
  Eric Jon Sundstrom, Paul Horn, Yuezhi Mao, Dmitri Zuev, Alec White,
  David Stuck, Shaama M.S., Shane Yost, Joonho Lee, David Small,
  Daniel Levine, Susi Lehtola, Hugh Burton, Evgeny Epifanovsky,
  Bang C. Huynh
 -----------------------------------------------------------------------
 Exchange:     0.2000 Hartree-Fock + 0.0800 Slater + 0.7200 B88
 Correlation:  0.1900 VWN1RPA + 0.8100 LYP
 Using Euler-Maclaurin-Lebedev (99,590) quadrature formula
 using 16 threads for integral computing
 -------------------------------------------------------
 OpenMP Integral computing Module                
 Release: version 2.0, May 2017, Q-Chem Inc. Pleasanton 
 -------------------------------------------------------
 A restricted SCF calculation will be
 performed using Roothaan-Hall, DIIS
 SCF converges when DIIS error is below 1.0e-09
 ---------------------------------------
  Cycle       Energy         DIIS error
 ---------------------------------------
    1    -404.5844600863      5.58e-04  Roothaan Step
 ---------------------------------------
  Cycle       Energy         DIIS error
 ---------------------------------------
    1    -404.5923022585      1.14e-03  
    2    -404.5788387538      2.43e-03  
    3    -404.6014560532      1.82e-04  
    4    -404.6015933181      9.46e-05  
    5    -404.6016261660      3.51e-05  
    6    -404.6016310816      7.94e-06  
    7    -404.6016313174      2.80e-06  
    8    -404.6016313543      4.80e-07  
    9    -404.6016313553      2.10e-07  
   10    -404.6016313555      4.43e-08  
   11    -404.6016313555      1.16e-08  
   12    -404.6016313555      2.98e-09  
   13    -404.6016313555      4.50e-10  Convergence criterion met
 ---------------------------------------
 SCF time:   CPU 995.56s  wall 66.00s 

************** Final PCM Free Energy Summary **************
 G_electrostatic  =      -0.01707770 hartree =     -10.71641923 kcal/mol
 G_cavitation     =       0.00000000 hartree =       0.00000000 kcal/mol
 G_dispersion     =       0.00000000 hartree =       0.00000000 kcal/mol
 G_repulsion      =       0.00000000 hartree =       0.00000000 kcal/mol
 --------------------------------------------------
 Non-electrostatic Free Energy =       0.00000000 hartree =       0.00000000 kcal/mol
 Total                         =      -0.01707770 hartree =     -10.71641923 kcal/mol
 --------------------------------------------------
 SCF Energy (H0 + V/2)                       =    -404.60163136 
 Solute Internal Energy (H0)                 =    -404.58455365 
 Total Free Energy (H0 + V/2 + non-elec)     =    -404.60163136 hartree
                                             = -253891.35565760 kcal/mol
***********************************************************

 SCF   energy in the final basis set =     -404.6016313555
 Total energy in the final basis set =     -404.6016313555
 
 --------------------------------------------------------------
 
                    Orbital Energies (a.u.)
 --------------------------------------------------------------
 
 Alpha MOs
 -- Occupied --
-19.1382 -14.3770 -10.2968 -10.2396 -10.2092 -10.2083 -10.2082 -10.2011
-10.2007  -1.0435  -0.9393  -0.8467  -0.7641  -0.7621  -0.6530  -0.6339
 -0.6013  -0.5861  -0.5376  -0.4994  -0.4777  -0.4633  -0.4612  -0.4315
 -0.4288  -0.4150  -0.4017  -0.3884  -0.3674  -0.3667  -0.3476  -0.3360
 -0.3312  -0.2742  -0.2686
 -- Virtual --
 -0.0245  -0.0036  -0.0013   0.0055   0.0063   0.0259   0.0289   0.0308
  0.0408   0.0455   0.0582   0.0697   0.0718   0.0726   0.0765   0.0821
  0.0902   0.0955   0.1069   0.1172   0.1245   0.1330   0.1357   0.1443
  0.1522   0.1541   0.1616   0.1689   0.1800   0.1829   0.1971   0.2016
  0.2034   0.2050   0.2156   0.2255   0.2373   0.2430   0.2519   0.2554
  0.2644   0.2690   0.2696   0.2756   0.2801   0.2910   0.2981   0.3111
  0.3135   0.3162   0.3419   0.3488   0.3584   0.3746   0.3933   0.4047
  0.4254   0.4438   0.4773   0.5896   0.6172   0.6332   0.6418   0.6485
  0.6607   0.6774   0.7062   0.7136   0.7319   0.7357   0.7629   0.7677
  0.7809   0.7869   0.8044   0.8315   0.8465   0.8997   0.9467   0.9537
  0.9548   0.9696   0.9989   1.0158   1.0168   1.0377   1.0677   1.0856
  1.0988   1.1021   1.1031   1.1332   1.1389   1.1503   1.1609   1.1698
  1.2220   1.2403   1.2762   1.3246   1.3311   1.3657   1.3717   1.4020
  1.4661   1.4753   1.4817   1.5428   1.5559   1.5933   1.6951   1.7114
  1.7144   1.7373   1.7591   1.7917   1.8388   1.8579   1.8840   1.8883
  1.8919   1.9255   1.9683   1.9910   1.9973   2.0302   2.0365   2.0671
  2.0768   2.1187   2.1845   2.2040   2.2689   2.2966   2.3011   2.3261
  2.3770   2.3891   2.3951   2.3994   2.4339   2.5477   2.5736   2.6025
  2.6481   2.6675   2.6873   2.7382   2.7656   2.8164   2.8568   2.9910
  3.1747   4.0840   4.1798   4.2176   4.2713   4.3140   4.4078   4.5787
  4.5891   4.6584
 --------------------------------------------------------------
 
          Ground-State Mulliken Net Atomic Charges

     Atom                 Charge (a.u.)
  ----------------------------------------
      1 C                    -0.258210
      2 C                    -0.458672
      3 C                    -0.284611
      4 C                    -0.447803
      5 C                    -0.378600
      6 C                    -0.451312
      7 H                     0.217341
      8 H                     0.223001
      9 H                     0.220919
     10 H                     0.216094
     11 H                     0.196125
     12 H                     0.195947
     13 H                     0.176831
     14 H                     0.208121
     15 H                     0.195960
     16 H                     0.195352
     17 H                     0.221080
     18 N                    -0.388109
     19 H                     0.454738
     20 C                     0.347842
     21 H                     0.203743
     22 O                    -0.605778
  ----------------------------------------
  Sum of atomic charges =     0.000000

 -----------------------------------------------------------------
[...]

 Mode:                40                     41                     42
 Frequency:      1407.30                1495.35                1496.58
 Force Cnst:      1.7180                 1.4336                 1.4359
 Red. Mass:       1.4723                 1.0881                 1.0881
 IR Active:          YES                    YES                    YES
 IR Intens:        0.935                  0.352                  4.155
 Raman Active:       YES                    YES                    YES
               X      Y      Z        X      Y      Z        X      Y      Z
 C          0.041 -0.053  0.091    0.017 -0.028 -0.034    0.007 -0.010  0.006
 C         -0.052  0.007 -0.096    0.001 -0.017 -0.001   -0.001  0.002 -0.008
 C          0.040  0.054  0.088   -0.010 -0.019  0.030    0.008  0.015  0.000
 C          0.008 -0.033  0.013   -0.014  0.023  0.030   -0.013  0.016  0.006
 C         -0.008  0.000 -0.002   -0.010  0.013 -0.005   -0.065 -0.005 -0.030
 C          0.005  0.035  0.012    0.010  0.021 -0.030   -0.015 -0.026  0.017
 H         -0.111 -0.188 -0.335    0.233  0.101 -0.196   -0.079 -0.036  0.051
 H          0.260 -0.058  0.460   -0.005  0.080 -0.003    0.015 -0.010  0.022
 H         -0.178  0.136 -0.274    0.126  0.335  0.164   -0.016  0.055 -0.026
 H         -0.124  0.153 -0.319   -0.309  0.101  0.240   -0.032  0.010  0.013
 H         -0.001  0.021 -0.007   -0.115 -0.291 -0.147   -0.032 -0.182 -0.026
 H         -0.091  0.078 -0.194    0.266 -0.090 -0.210    0.131 -0.043 -0.121
 H         -0.065 -0.008  0.001    0.079  0.010 -0.015    0.589  0.027 -0.106
 H         -0.042 -0.002 -0.060    0.034 -0.064  0.076    0.227  0.028  0.556
 H          0.002 -0.033 -0.007    0.140 -0.245  0.154   -0.098  0.268 -0.080
 H         -0.091 -0.098 -0.192   -0.238 -0.107  0.189    0.210  0.090 -0.191
 H         -0.152 -0.121 -0.260   -0.134  0.240 -0.148    0.018 -0.105  0.004
 N         -0.007 -0.004 -0.035   -0.001  0.000 -0.000   -0.001 -0.000 -0.002
 H          0.115  0.017  0.102    0.002  0.002  0.003    0.010  0.002  0.010
 C          0.011  0.002  0.026    0.001  0.000  0.000    0.001  0.000  0.001
 H          0.007  0.002  0.041    0.000 -0.001  0.001    0.000  0.000  0.002
 O          0.002  0.001 -0.006   -0.000 -0.000  0.000   -0.000 -0.000 -0.000
 TransDip   0.014  0.014  0.024    0.006  0.017  0.007    0.065  0.006 -0.005

 Mode:                43                     44                     45
 Frequency:      1500.48                1502.05                1514.25
 Force Cnst:      1.4564                 1.4530                 1.4883
 Red. Mass:       1.0979                 1.0930                 1.1017
 IR Active:          YES                    YES                    YES
 IR Intens:        7.536                 10.530                  0.819
 Raman Active:       YES                    YES                    YES
               X      Y      Z        X      Y      Z        X      Y      Z
 C          0.015 -0.040 -0.033   -0.013  0.021  0.012   -0.011  0.031  0.019
 C         -0.001  0.002 -0.004    0.004  0.000  0.013   -0.001 -0.001  0.013
 C         -0.004 -0.021  0.019   -0.017 -0.045  0.032   -0.009 -0.034  0.022
 C          0.016 -0.042 -0.035   -0.009  0.019  0.015    0.011 -0.033 -0.019
 C         -0.002  0.004 -0.002    0.019  0.003  0.014   -0.034 -0.002 -0.026
 C         -0.005 -0.026  0.023   -0.011 -0.036  0.028    0.007  0.033 -0.020
 H          0.151  0.047 -0.141    0.354  0.150 -0.271    0.250  0.094 -0.206
 H          0.004 -0.001  0.003   -0.014  0.004 -0.013   -0.013  0.002 -0.005
 H          0.117  0.385  0.155   -0.059 -0.211 -0.072   -0.076 -0.289 -0.098
 H         -0.323  0.088  0.262    0.186 -0.068 -0.118    0.236 -0.063 -0.189
 H          0.129  0.399  0.163   -0.074 -0.194 -0.093    0.078  0.276  0.097
 H         -0.338  0.098  0.265    0.184 -0.069 -0.108   -0.237  0.067  0.169
 H          0.014 -0.030 -0.005   -0.146 -0.015  0.037    0.301  0.015 -0.069
 H          0.006  0.002  0.013   -0.061 -0.009 -0.144    0.126  0.010  0.298
 H         -0.097  0.224 -0.099   -0.150  0.321 -0.153    0.107 -0.262  0.104
 H          0.186  0.063 -0.167    0.289  0.125 -0.207   -0.228 -0.088  0.169
 H         -0.077  0.183 -0.082   -0.172  0.407 -0.170   -0.117  0.301 -0.114
 N          0.001 -0.001  0.001   -0.001 -0.000 -0.002    0.009  0.002  0.007
 H          0.000  0.001  0.001   -0.004 -0.000 -0.005   -0.045 -0.008 -0.055
 C          0.000  0.000 -0.000   -0.000 -0.000  0.000   -0.009 -0.002 -0.004
 H         -0.001  0.001 -0.000    0.000  0.000  0.000    0.000  0.000 -0.008
 O         -0.000 -0.000  0.000    0.001  0.000 -0.000    0.002  0.001 -0.001
 TransDip  -0.022  0.082  0.024    0.049  0.025 -0.088   -0.018 -0.008 -0.021

 Mode:                46                     47                     48
 Frequency:      1550.41                1670.44                2261.21
 Force Cnst:      2.4972                13.5892                 7.2607
 Red. Mass:       1.7633                 8.2658                 2.4102
 IR Active:          YES                    YES                    YES
 IR Intens:      270.499                766.820                 69.615
 Raman Active:       YES                    YES                    YES
               X      Y      Z        X      Y      Z        X      Y      Z
 C         -0.003  0.002  0.008   -0.002  0.004  0.019   -0.000  0.000 -0.000
 C          0.078  0.014  0.040    0.001  0.000 -0.040    0.002  0.000  0.002
 C         -0.003 -0.005  0.010   -0.002 -0.003  0.020   -0.000 -0.000 -0.000
 C         -0.003 -0.001 -0.008    0.002  0.006 -0.005    0.000 -0.000  0.000
 C         -0.002  0.000  0.000   -0.000  0.000  0.001   -0.000  0.000 -0.000
 C         -0.003  0.001 -0.007    0.002 -0.006 -0.005    0.000  0.000  0.000
 H          0.030  0.010 -0.007    0.008 -0.012 -0.023    0.001  0.000  0.000
 H         -0.122 -0.011 -0.342    0.081  0.012  0.062    0.003  0.002  0.007
 H         -0.032  0.012 -0.046   -0.029  0.007 -0.021   -0.000 -0.000  0.000
 H          0.039 -0.016 -0.003    0.013  0.011 -0.022    0.001 -0.000  0.000
 H          0.022  0.026  0.030    0.007  0.001 -0.001   -0.000  0.000 -0.000
 H         -0.023 -0.002  0.037    0.002 -0.010  0.039    0.000  0.000 -0.000
 H          0.028 -0.001 -0.005    0.012  0.000 -0.003   -0.000 -0.000  0.000
 H          0.008  0.001  0.020    0.000  0.000  0.004    0.000  0.000 -0.000
 H          0.022 -0.022  0.029    0.008 -0.001  0.002   -0.000 -0.000 -0.000
 H         -0.023 -0.002  0.030    0.000  0.011  0.041    0.000 -0.000 -0.000
 H         -0.031 -0.017 -0.047   -0.027 -0.015 -0.016   -0.001 -0.000  0.000
 N         -0.155 -0.028 -0.126   -0.098 -0.020  0.037    0.009  0.002  0.013
 H          0.544  0.106  0.683   -0.372 -0.087 -0.279   -0.033 -0.007 -0.048
 C          0.080  0.017  0.065    0.590  0.130 -0.244   -0.001  0.003 -0.198
 H          0.008 -0.001  0.127   -0.209 -0.036 -0.354    0.060 -0.006  0.976
 O         -0.003 -0.001 -0.011   -0.313 -0.071  0.217   -0.013 -0.003  0.016
 TransDip   0.447  0.088  0.265    0.865  0.181 -0.076    0.060  0.018 -0.260

 Mode:                49                     50                     51
 Frequency:      3003.13                3003.77                3011.70
 Force Cnst:      5.6677                 5.6711                 5.6835
 Red. Mass:       1.0666                 1.0668                 1.0635
 IR Active:          YES                    YES                    YES
 IR Intens:       64.531                 43.947                 74.252
 Raman Active:       YES                    YES                    YES
               X      Y      Z        X      Y      Z        X      Y      Z
 C          0.007  0.003 -0.003   -0.004 -0.000  0.003   -0.001 -0.002 -0.000
 C          0.001  0.000 -0.001    0.000 -0.001 -0.000   -0.001 -0.000  0.001
 C          0.002 -0.001  0.000    0.009 -0.002 -0.004   -0.001  0.003 -0.001
 C         -0.012  0.008  0.011   -0.046  0.023  0.041    0.022  0.003 -0.011
 C         -0.008 -0.000 -0.030   -0.004 -0.001 -0.015   -0.057 -0.003 -0.024
 C         -0.041 -0.027  0.040    0.018  0.009 -0.016    0.022 -0.001 -0.010
 H         -0.014  0.019 -0.006   -0.020  0.032 -0.009    0.019 -0.027  0.006
 H         -0.008 -0.002  0.006   -0.003  0.002  0.002    0.012  0.001 -0.007
 H         -0.072  0.001  0.045    0.049 -0.000 -0.030   -0.005 -0.000  0.002
 H         -0.021 -0.041 -0.010    0.001  0.006  0.001    0.015  0.027  0.005
 H          0.196 -0.002 -0.114    0.727 -0.006 -0.429   -0.241  0.007  0.143
 H         -0.055 -0.088 -0.020   -0.170 -0.261 -0.059   -0.024 -0.042 -0.016
 H          0.052  0.005  0.391    0.027  0.009  0.202    0.069  0.011  0.593
 H          0.035  0.001 -0.027    0.022  0.001 -0.016    0.618  0.029 -0.309
 H          0.697  0.070 -0.413   -0.283 -0.028  0.170   -0.229 -0.028  0.138
 H         -0.198  0.245 -0.066    0.068 -0.080  0.022   -0.033  0.045 -0.019
 H         -0.007 -0.001  0.004   -0.096 -0.010  0.060   -0.006 -0.000  0.002
 N          0.000 -0.000  0.000    0.000  0.000  0.000   -0.000 -0.000 -0.000
 H          0.000  0.000 -0.000    0.000 -0.000 -0.000   -0.000  0.000  0.000
 C         -0.000 -0.000  0.000   -0.000 -0.000  0.000    0.000  0.000 -0.000
 H          0.000  0.000  0.000    0.000 -0.000  0.000   -0.000 -0.000 -0.000
 O          0.000  0.000 -0.000    0.000  0.000 -0.000   -0.000 -0.000  0.000
 TransDip  -0.217 -0.099  0.097   -0.120  0.171  0.040   -0.107 -0.012 -0.254

 Mode:                52                     53                     54
 Frequency:      3025.58                3028.54                3044.47
 Force Cnst:      5.7423                 5.7612                 5.9928
 Red. Mass:       1.0647                 1.0661                 1.0974
 IR Active:          YES                    YES                    YES
 IR Intens:        8.818                 52.329                121.665
 Raman Active:       YES                    YES                    YES
               X      Y      Z        X      Y      Z        X      Y      Z
 C          0.021 -0.014 -0.022   -0.039  0.024  0.039   -0.007 -0.001  0.004
 C          0.003  0.000 -0.001    0.009  0.000 -0.004    0.002  0.000 -0.001
 C         -0.036 -0.027  0.040   -0.021 -0.014  0.022   -0.007  0.001  0.003
 C          0.008  0.015  0.004    0.007  0.009  0.001   -0.003 -0.020 -0.011
 C          0.000  0.000 -0.001    0.001 -0.000  0.001    0.036  0.001 -0.075
 C         -0.004  0.008 -0.003    0.013 -0.015  0.003   -0.007  0.021 -0.011
 H         -0.215  0.268 -0.078   -0.110  0.139 -0.039    0.012 -0.019  0.005
 H         -0.032 -0.001  0.018   -0.117 -0.006  0.064   -0.026 -0.001  0.014
 H         -0.362 -0.007  0.220    0.646  0.009 -0.389    0.082  0.000 -0.048
 H          0.111  0.172  0.044   -0.181 -0.285 -0.071    0.004  0.010  0.002
 H          0.011  0.004 -0.005   -0.024  0.003  0.015   -0.098 -0.001  0.055
 H         -0.106 -0.182 -0.044   -0.062 -0.107 -0.026    0.140  0.237  0.061
 H          0.001 -0.001  0.006   -0.001  0.000 -0.012    0.099  0.013  0.646
 H         -0.002 -0.002  0.001   -0.011  0.000  0.006   -0.541 -0.025  0.249
 H         -0.019  0.000  0.010   -0.029 -0.007  0.019   -0.087 -0.007  0.048
 H          0.073 -0.099  0.028   -0.138  0.188 -0.054    0.176 -0.235  0.072
 H          0.651  0.052 -0.395    0.364  0.031 -0.219    0.068  0.007 -0.040
 N         -0.000 -0.000 -0.000   -0.000 -0.000 -0.000   -0.000 -0.000 -0.000
 H         -0.000 -0.001 -0.002   -0.001  0.000 -0.003    0.000  0.000 -0.001
 C          0.000  0.000 -0.000    0.001  0.000 -0.000    0.000  0.000 -0.000
 H         -0.000  0.000 -0.000   -0.000 -0.000 -0.000   -0.000 -0.000 -0.000
 O         -0.000 -0.000  0.000   -0.000 -0.000  0.000   -0.000 -0.000  0.000
 TransDip  -0.029 -0.069  0.059   -0.096  0.009  0.211    0.018  0.003 -0.353

 Mode:                55                     56                     57
 Frequency:      3053.82                3058.96                3072.39
 Force Cnst:      6.0182                 6.0469                 6.0573
 Red. Mass:       1.0953                 1.0968                 1.0891
 IR Active:          YES                    YES                    YES
 IR Intens:      120.103                153.518                 18.947
 Raman Active:       YES                    YES                    YES
               X      Y      Z        X      Y      Z        X      Y      Z
 C          0.007 -0.008 -0.009   -0.008  0.005  0.008    0.028  0.034  0.004
 C         -0.001  0.001  0.000    0.008  0.000 -0.003   -0.043 -0.002  0.025
 C         -0.004 -0.007  0.007   -0.008 -0.006  0.008    0.039 -0.036  0.005
 C         -0.040 -0.041 -0.002   -0.044 -0.043  0.001    0.001 -0.004 -0.003
 C          0.003  0.000 -0.003   -0.029 -0.001  0.021    0.000  0.000 -0.003
 C          0.051 -0.041  0.003   -0.040  0.031  0.000    0.000  0.004 -0.003
 H         -0.053  0.069 -0.022   -0.043  0.056 -0.017   -0.335  0.447 -0.145
 H          0.006  0.002 -0.004   -0.085 -0.004  0.048    0.535  0.026 -0.299
 H         -0.133 -0.002  0.082    0.122  0.001 -0.076   -0.103  0.004  0.068
 H          0.058  0.095  0.026   -0.033 -0.055 -0.015   -0.239 -0.403 -0.114
 H          0.179 -0.010 -0.112    0.230 -0.013 -0.141   -0.035  0.001  0.021
 H          0.296  0.505  0.133    0.303  0.522  0.135    0.026  0.045  0.011
 H          0.003 -0.001  0.019   -0.015 -0.002 -0.091    0.004  0.000  0.029
 H         -0.042 -0.004  0.020    0.355  0.016 -0.167   -0.010 -0.000  0.004
 H         -0.216 -0.032  0.136    0.194  0.029 -0.120   -0.027 -0.003  0.015
 H         -0.392  0.528 -0.163    0.291 -0.396  0.120    0.029 -0.039  0.012
 H          0.100  0.008 -0.061    0.133  0.012 -0.083   -0.134 -0.018  0.089
 N          0.000 -0.000  0.000   -0.000 -0.000 -0.000    0.000  0.000  0.000
 H          0.000 -0.000  0.000    0.001  0.000 -0.002   -0.006 -0.001  0.003
 C         -0.000 -0.000  0.000    0.001  0.000 -0.000   -0.001 -0.000  0.000
 H         -0.000  0.000  0.000   -0.000 -0.000 -0.000    0.000  0.000  0.001
 O          0.000  0.000 -0.000   -0.000 -0.000  0.000    0.000 -0.000 -0.001
 TransDip   0.055 -0.347 -0.011   -0.389 -0.050  0.064    0.110 -0.006  0.085

 Mode:                58                     59                     60
 Frequency:      3078.62                3091.18                3580.29
 Force Cnst:      6.1429                 6.1547                 8.1478
 Red. Mass:       1.1000                 1.0932                 1.0788
 IR Active:          YES                    YES                    YES
 IR Intens:       54.876                 81.001                 71.646
 Raman Active:       YES                    YES                    YES
               X      Y      Z        X      Y      Z        X      Y      Z
 C         -0.049 -0.046  0.000   -0.034 -0.027  0.004    0.000  0.000 -0.000
 C          0.005 -0.000 -0.003   -0.057 -0.003  0.031   -0.001  0.000 -0.001
 C          0.049 -0.037  0.000   -0.034  0.021  0.003    0.000  0.000 -0.000
 C          0.006  0.000 -0.003   -0.005 -0.000  0.003    0.000  0.000 -0.000
 C         -0.000  0.001  0.000   -0.001 -0.000  0.002    0.000  0.000 -0.000
 C         -0.006 -0.000  0.003   -0.005 -0.000  0.003    0.000 -0.000 -0.000
 H         -0.350  0.470 -0.153    0.204 -0.276  0.088   -0.000  0.000  0.000
 H         -0.055 -0.005  0.031    0.672  0.032 -0.370    0.007  0.000 -0.008
 H          0.255 -0.006 -0.161    0.220 -0.007 -0.135    0.000 -0.001  0.001
 H          0.327  0.556  0.157    0.185  0.318  0.088   -0.000 -0.000 -0.000
 H         -0.059  0.001  0.037    0.053 -0.002 -0.035   -0.000 -0.000 -0.000
 H         -0.006 -0.010 -0.002    0.003  0.004  0.000   -0.000 -0.000 -0.000
 H         -0.000 -0.001 -0.001   -0.002 -0.000 -0.018   -0.000 -0.000 -0.000
 H          0.000  0.001 -0.000    0.020  0.001 -0.008   -0.000 -0.000  0.000
 H          0.060  0.007 -0.038    0.054  0.007 -0.036   -0.000  0.000 -0.000
 H          0.004 -0.005  0.002    0.003 -0.003  0.000   -0.000  0.000 -0.000
 H         -0.236 -0.028  0.150    0.203  0.026 -0.124    0.000  0.001  0.001
 N         -0.000  0.000 -0.000    0.001  0.000  0.001   -0.055 -0.011  0.048
 H          0.001  0.000 -0.000   -0.008 -0.001  0.001    0.730  0.149 -0.663
 C          0.000 -0.000  0.000   -0.002 -0.000  0.000    0.001  0.000  0.002
 H         -0.000 -0.000 -0.000    0.001  0.000  0.001   -0.001 -0.000 -0.002
 O          0.000  0.000  0.000    0.000  0.000 -0.001    0.001  0.000 -0.001
 TransDip   0.010 -0.237 -0.006   -0.256 -0.006  0.133    0.232  0.050 -0.130

 STANDARD THERMODYNAMIC QUANTITIES AT   298.18 K  AND     1.00 ATM

   This Molecule has  0 Imaginary Frequencies
   Zero point vibrational energy:      121.864 kcal/mol

   Atom    1 Element C  Has Mass   12.00000
   Atom    2 Element C  Has Mass   12.00000
   Atom    3 Element C  Has Mass   12.00000
   Atom    4 Element C  Has Mass   12.00000
   Atom    5 Element C  Has Mass   12.00000
   Atom    6 Element C  Has Mass   12.00000
   Atom    7 Element H  Has Mass    1.00783
   Atom    8 Element H  Has Mass    1.00783
   Atom    9 Element H  Has Mass    1.00783
   Atom   10 Element H  Has Mass    1.00783
   Atom   11 Element H  Has Mass    1.00783
   Atom   12 Element H  Has Mass    1.00783
   Atom   13 Element H  Has Mass    1.00783
   Atom   14 Element H  Has Mass    1.00783
   Atom   15 Element H  Has Mass    1.00783
   Atom   16 Element H  Has Mass    1.00783
   Atom   17 Element H  Has Mass    1.00783
   Atom   18 Element N  Has Mass   14.00307
   Atom   19 Element H  Has Mass    1.00783
   Atom   20 Element C  Has Mass   12.00000
   Atom   21 Element H  Has Mass    2.01410
   Atom   22 Element O  Has Mass   15.99491
   Molecular Mass:   128.106042 amu
   Principal axes and moments of inertia in amu*Bohr^2:
                             1           2           3
    Eigenvalues --      547.39729  1993.34284  2193.32233
          X               0.66074    -0.01329     0.75050
          Y               0.10194     0.99217    -0.07218
          Z               0.74366    -0.12420    -0.65692
   Rotational Symmetry Number is   1
   The Molecule is an Asymmetric Top
   Translational Enthalpy:        0.889 kcal/mol
   Rotational Enthalpy:           0.889 kcal/mol
   Vibrational Enthalpy:        125.693 kcal/mol
   gas constant (RT):             0.593 kcal/mol
   Translational Entropy:        40.457  cal/mol.K
   Rotational Entropy:           29.261  cal/mol.K
   Vibrational Entropy:          24.808  cal/mol.K

   Total Enthalpy:              128.063 kcal/mol
   Total Entropy:                94.525  cal/mol.K
Archival summary:
1\1\node028\FREQ\ProcedureUnspecified\6-31+G*\11713\ymao90\TueJul2721:01:362021TueJul2721:01:362021\0\\#,FREQ,ProcedureUnspecified,6-31+G*,\\0,1\N\H,1,1.01544\C,1,1.3495,2,117.274\H,3,1.10096,1,113.09,2,1.64471,0\O,3,1.2389,1,125.073,2,-178.608,0\C,1,1.46213,2,118.654,3,-177.816,0\H,6,1.09528,1,105.411,2,-172.48,0\C,6,1.53781,1,111.253,2,-54.8075,0\H,8,1.09696,6,109.559,1,-56.5414,0\H,8,1.10013,6,109.162,1,60.3645,0\C,8,1.53838,6,110.855,1,-178.773,0\H,11,1.09826,8,109.761,6,-177.986,0\H,11,1.10147,8,108.939,6,65.5273,0\C,11,1.5379,8,111.772,6,-55.2205,0\H,14,1.09994,11,110.116,8,176.706,0\H,14,1.10015,11,109.13,8,-66.4291,0\C,14,1.53775,11,111.436,8,54.1458,0\H,17,1.09835,14,110.364,11,-176.544,0\H,17,1.10152,14,109.224,11,66.4566,0\C,17,1.53793,14,111.618,11,-54.1245,0\H,20,1.0969,17,110.597,14,176.935,0\H,20,1.09989,17,109.727,14,-65.2036,0\\\@

 Total job time:  10678.15s(wall), 151242.24s(cpu) 
 Tue Jul 27 21:01:36 2021

        *************************************************************
        *                                                           *
        *  Thank you very much for using Q-Chem.  Have a nice day.  *
        *                                                           *
        *************************************************************


