                  Welcome to Q-Chem
     A Quantum Leap Into The Future Of Chemistry


 Q-Chem 5.2 (devel), Q-Chem, Inc., Pleasanton, CA (2019)

 Yihan Shao,  Zhengting Gan,  E. Epifanovsky,  A. T. B. Gilbert,  M. Wormit,  
 J. Kussmann,  A. W. Lange,  A. Behn,  Jia Deng,  Xintian Feng,  D. Ghosh,  
 M. Goldey,  P. R. Horn,  L. D. Jacobson,  I. Kaliman,  T. Kus,  A. Landau,  
 Jie Liu,  E. I. Proynov,  R. M. Richard,  R. P. Steele,  E. J. Sundstrom,  
 H. L. Woodcock III,  P. M. Zimmerman,  D. Zuev,  B. Alam,  B. Albrecht,  
 E. Alguire,  S. A. Baeppler,  D. Barton,  Z. Benda,  Y. A. Bernard,  
 E. J. Berquist,  K. B. Bravaya,  H. Burton,  K. Carter-Fenk,  D. Casanova,  
 Chun-Min Chang,  Yunqing Chen,  A. Chien,  K. D. Closser,  M. P. Coons,  
 S. Coriani,  S. Dasgupta,  A. L. Dempwolff,  M. Diedenhofen,  Hainam Do,  
 R. G. Edgar,  Po-Tung Fang,  S. Faraji,  S. Fatehi,  Qingguo Feng,  
 J. Fosso-Tande,  J. Gayvert,  Qinghui Ge,  A. Ghysels,  G. Gidofalvi,  
 J. Gomes,  J. Gonthier,  A. Gunina,  D. Hait,  M. W. D. Hanson-Heine,  
 P. H. P. Harbach,  A. W. Hauser,  M. F. Herbst,  J. E. Herr,  
 E. G. Hohenstein,  Z. C. Holden,  Kerwin Hui,  B. C. Huynh,  T.-C. Jagau,  
 Hyunjun Ji,  B. Kaduk,  K. Khistyaev,  Jaehoon Kim,  P. Klunzinger,  K. Koh,  
 D. Kosenkov,  L. Koulias,  T. Kowalczyk,  C. M. Krauter,  A. Kunitsa,  
 Ka Un Lao,  A. Laurent,  K. V. Lawler,  Joonho Lee,  D. Lefrancois,  
 S. Lehtola,  D. S. Levine,  Yi-Pei Li,  You-Sheng Lin,  Fenglai Liu,  
 Kuan-Yu Liu,  E. Livshits,  M. Loipersberger,  A. Luenser,  P. Manohar,  
 E. Mansoor,  S. F. Manzer,  Shan-Ping Mao,  Yuezhi Mao,  N. Mardirossian,  
 A. V. Marenich,  T. Markovich,  L. A. Martinez-Martinez,  S. A. Maurer,  
 N. J. Mayhall,  S. C. McKenzie,  J.-M. Mewes,  P. Morgante,  A. F. Morrison,  
 J. W. Mullinax,  K. Nanda,  T. S. Nguyen-Beck,  R. Olivares-Amaya,  
 J. A. Parkhill,  S. K. Paul,  F. Pavosevic,  Zheng Pei,  T. M. Perrine,  
 F. Plasser,  P. Pokhilko,  S. Prager,  A. Prociuk,  E. Ramos,  B. Rana,  
 D. R. Rehn,  F. Rob,  M. Scheurer,  M. Schneider,  N. Sergueev,  
 S. M. Sharada,  S. Sharma,  D. W. Small,  T. Stauch,  C. J. Stein,  
 T. Stein,  Yu-Chuan Su,  S. P. Veccham,  Zhen Tao,  A. J. W. Thom,  
 A. Tkatchenko,  T. Tsuchimochi,  N. M. Tubman,  L. Vogt,  M. L. Vidal,  
 O. Vydrov,  M. A. Watson,  J. Wenzel,  M. de Wergifosse,  T. A. Wesolowski,  
 A. White,  J. Witte,  A. Yamada,  Jun Yang,  K. Yao,  S. Yeganeh,  
 S. R. Yost,  Zhi-Qiang You,  A. Zech,  Igor Ying Zhang,  Xing Zhang,  
 Yan Zhao,  Ying Zhu,  B. R. Brooks,  G. K. L. Chan,  C. J. Cramer,  
 M. S. Gordon,  W. J. Hehre,  A. Klamt,  M. W. Schmidt,  C. D. Sherrill,  
 D. G. Truhlar,  A. Aspuru-Guzik,  R. Baer,  A. T. Bell,  N. A. Besley,  
 Jeng-Da Chai,  A. E. DePrince, III,  R. A. DiStasio Jr.,  A. Dreuw,  
 B. D. Dunietz,  T. R. Furlani,  Chao-Ping Hsu,  Yousung Jung,  Jing Kong,  
 D. S. Lambrecht,  WanZhen Liang,  C. Ochsenfeld,  V. A. Rassolov,  
 L. V. Slipchenko,  J. E. Subotnik,  T. Van Voorhis,  J. M. Herbert,  
 A. I. Krylov,  P. M. W. Gill,  M. Head-Gordon

 Contributors to earlier versions of Q-Chem not listed above: 
 R. D. Adamson,  B. Austin,  J. Baker,  G. J. O. Beran,  K. Brandhorst,  
 S. T. Brown,  E. F. C. Byrd,  A. K. Chakraborty,  C.-L. Cheng,  
 Siu Hung Chien,  D. M. Chipman,  D. L. Crittenden,  H. Dachsel,  
 R. J. Doerksen,  A. D. Dutoi,  L. Fusti-Molnar,  W. A. Goddard III,  
 A. Golubeva-Zadorozhnaya,  S. R. Gwaltney,  G. Hawkins,  A. Heyden,  
 S. Hirata,  G. Kedziora,  F. J. Keil,  C. Kelley,  Jihan Kim,  R. A. King,  
 R. Z. Khaliullin,  P. P. Korambath,  W. Kurlancheek,  A. M. Lee,  M. S. Lee,  
 S. V. Levchenko,  Ching Yeh Lin,  D. Liotard,  R. C. Lochan,  I. Lotan,  
 P. E. Maslen,  N. Nair,  D. P. O'Neill,  D. Neuhauser,  E. Neuscamman,  
 C. M. Oana,  R. Olson,  B. Peters,  R. Peverati,  P. A. Pieniazek,  
 Y. M. Rhee,  J. Ritchie,  M. A. Rohrdanz,  E. Rosta,  N. J. Russ,  
 H. F. Schaefer III,  N. E. Schultz,  N. Shenvi,  A. C. Simmonett,  A. Sodt,  
 D. Stuck,  K. S. Thanthiriwatte,  V. Vanovschi,  Tao Wang,  A. Warshel,  
 C. F. Williams,  Q. Wu,  X. Xu,  W. Zhang

 Please cite Q-Chem as follows:
 Y. Shao et al., Mol. Phys. 113, 184-215 (2015)
 DOI: 10.1080/00268976.2014.952696

 Q-Chem 5.2.2 for Intel X86 EM64T Linux

 Parts of Q-Chem use Armadillo 9.800.1 (Horizon Scraper).
 http://arma.sourceforge.net/

 Q-Chem begins on Sun Mar  7 04:26:35 2021  

Host: node029
0

     Scratch files written to /home/ymao90/scratch/CCX_CD_zerofield20210307030514//

Checking the input file for inconsistencies... 	...done.

--------------------------------------------------------------
User input:
--------------------------------------------------------------
$molecule
0 1
C     -2.4083508923    0.9984834764   -2.3662547437
C     -1.5543120384   -0.2118403749   -1.9459885704
C     -2.2384976761   -1.5367925874   -2.3261896725
C     -2.5867463449   -1.5816552836   -3.8234193167
C     -3.4377297730   -0.3731774783   -4.2445934317
C     -2.7551397527    0.9499468362   -3.8636626912
H     -1.5849547626   -2.3750094827   -2.0545927530
H     -0.5831065672   -0.1532425547   -2.4485260558
H     -3.3388117820    1.0024650072   -1.7759883684
H     -1.8720534969    1.9234708349   -2.1213670712
H     -1.6555784977   -1.5918293252   -4.4093866053
H     -3.1102152921   -2.5181807775   -4.0551406051
H     -3.6290653549   -0.4033428377   -5.3251377272
H     -4.4201020066   -0.4306546907   -3.7508934023
H     -1.8320207629    1.0648782183   -4.4511997179
H     -3.3973970401    1.8010825553   -4.1242295555
H     -3.1618885583   -1.6469527918   -1.7346449512
N     -1.2474445251   -0.1731895513   -0.5151412109
H     -2.0131265263   -0.2687147311    0.1418849346
C      0.0000000000    0.0000000000    0.0000000000
H      0.0000000000    0.0000000000    1.1070732462
O      1.0278769477    0.1402881570   -0.6492362509
$end

$rem
JOBTYPE  OPT
METHOD  B3LYP
BASIS  6-31+G(D)
SYMMETRY  FALSE
SYM_IGNORE  TRUE
MEM_TOTAL  8000
MEM_STATIC  2000
MAX_SUB_FILE_NUM  16000
BASIS_LIN_DEP_THRESH  6
THRESH  14
SCF_CONVERGENCE  9
GEN_SCFMAN  TRUE
SCF_GUESS  SAD
FD_MAT_VEC_PROD  FALSE
XC_GRID  000099000590
NL_GRID  1
MAX_SCF_CYCLES  200
GEOM_OPT_TOL_GRADIENT  100
GEOM_OPT_TOL_DISPLACEMENT  100
GEOM_OPT_TOL_ENERGY  10
$end

--------------------------------------------------------------
 ----------------------------------------------------------------
             Standard Nuclear Orientation (Angstroms)
    I     Atom           X                Y                Z
 ----------------------------------------------------------------
    1      C      -2.4083508923     0.9984834764    -2.3662547437
    2      C      -1.5543120384    -0.2118403749    -1.9459885704
    3      C      -2.2384976761    -1.5367925874    -2.3261896725
    4      C      -2.5867463449    -1.5816552836    -3.8234193167
    5      C      -3.4377297730    -0.3731774783    -4.2445934317
    6      C      -2.7551397527     0.9499468362    -3.8636626912
    7      H      -1.5849547626    -2.3750094827    -2.0545927530
    8      H      -0.5831065672    -0.1532425547    -2.4485260558
    9      H      -3.3388117820     1.0024650072    -1.7759883684
   10      H      -1.8720534969     1.9234708349    -2.1213670712
   11      H      -1.6555784977    -1.5918293252    -4.4093866053
   12      H      -3.1102152921    -2.5181807775    -4.0551406051
   13      H      -3.6290653549    -0.4033428377    -5.3251377272
   14      H      -4.4201020066    -0.4306546907    -3.7508934023
   15      H      -1.8320207629     1.0648782183    -4.4511997179
   16      H      -3.3973970401     1.8010825553    -4.1242295555
   17      H      -3.1618885583    -1.6469527918    -1.7346449512
   18      N      -1.2474445251    -0.1731895513    -0.5151412109
   19      H      -2.0131265263    -0.2687147311     0.1418849346
   20      C       0.0000000000     0.0000000000     0.0000000000
   21      H       0.0000000000     0.0000000000     1.1070732462
   22      O       1.0278769477     0.1402881570    -0.6492362509
 ----------------------------------------------------------------
 Nuclear Repulsion Energy =         466.63298041 hartrees
 There are       35 alpha and       35 beta electrons
 Requested basis set is 6-31+G(d)
 There are 71 shells and 197 basis functions

 Total QAlloc Memory Limit   8000 MB
 Mega-Array Size      1956 MB
 MEM_STATIC part      2000 MB
 A cutoff of  1.0D-14 yielded   2413 shell pairs
 There are     18998 function pairs
 Smallest overlap matrix eigenvalue = 2.48E-05

 Scale SEOQF with 1.000000e-01/1.000000e-01/1.000000e-02

 Standard Electronic Orientation quadrupole field applied
 Nucleus-field energy     =     0.0000000118 hartrees
 Guess from superposition of atomic densities
 Warning:  Energy on first SCF cycle will be non-variational
 SAD guess density has 70.000000 electrons

 -----------------------------------------------------------------------
  General SCF calculation program by
  Eric Jon Sundstrom, Paul Horn, Yuezhi Mao, Dmitri Zuev, Alec White,
  David Stuck, Shaama M.S., Shane Yost, Joonho Lee, David Small,
  Daniel Levine, Susi Lehtola, Hugh Burton, Evgeny Epifanovsky,
  Bang C. Huynh
 -----------------------------------------------------------------------
 Exchange:     0.2000 Hartree-Fock + 0.0800 Slater + 0.7200 B88
 Correlation:  0.1900 VWN1RPA + 0.8100 LYP
 Using Euler-Maclaurin-Lebedev (99,590) quadrature formula
 using 16 threads for integral computing
 -------------------------------------------------------
 OpenMP Integral computing Module                
 Release: version 2.0, May 2017, Q-Chem Inc. Pleasanton 
 -------------------------------------------------------
 A restricted SCF calculation will be
 performed using DIIS
 SCF converges when DIIS error is below 1.0e-09
 ---------------------------------------
  Cycle       Energy         DIIS error
 ---------------------------------------
    1    -406.2319617768      5.08e-02  
    2    -404.3828305719      6.57e-03  
    3    -404.0044634675      1.18e-02  
    4    -404.5564571697      2.69e-03  
    5    -404.5851214606      6.68e-04  
    6    -404.5868405475      2.08e-04  
    7    -404.5870089296      7.44e-05  
    8    -404.5870325750      1.30e-05  
    9    -404.5870332587      4.46e-06  
   10    -404.5870333423      7.64e-07  
   11    -404.5870333446      3.02e-07  
   12    -404.5870333450      5.34e-08  
   13    -404.5870333450      1.07e-08  
   14    -404.5870333450      4.82e-09  
   15    -404.5870333450      1.01e-09  
   16    -404.5870333450      1.40e-10  Convergence criterion met
 ---------------------------------------
 SCF time:   CPU 790.72s  wall 50.00s 
 SCF   energy in the final basis set =     -404.5870333450
 Total energy in the final basis set =     -404.5870333450
 
 --------------------------------------------------------------
 
                    Orbital Energies (a.u.)
 --------------------------------------------------------------
 
 Alpha MOs
 -- Occupied --
-19.1268 -14.3743 -10.2916 -10.2325 -10.1950 -10.1938 -10.1924 -10.1918
-10.1907  -1.0379  -0.9352  -0.8347  -0.7529  -0.7511  -0.6439  -0.6228
 -0.5996  -0.5735  -0.5321  -0.4891  -0.4673  -0.4527  -0.4471  -0.4223
 -0.4167  -0.4042  -0.3899  -0.3784  -0.3574  -0.3557  -0.3338  -0.3238
 -0.3191  -0.2619  -0.2605
 -- Virtual --
 -0.0052   0.0044   0.0125   0.0175   0.0212   0.0310   0.0420   0.0467
  0.0513   0.0614   0.0619   0.0777   0.0828   0.0857   0.0930   0.0958
  0.1031   0.1110   0.1170   0.1287   0.1330   0.1444   0.1474   0.1570
  0.1664   0.1735   0.1770   0.1798   0.1916   0.1949   0.2053   0.2067
  0.2151   0.2172   0.2291   0.2387   0.2459   0.2479   0.2563   0.2617
  0.2771   0.2795   0.2801   0.2857   0.2889   0.3042   0.3111   0.3216
  0.3227   0.3277   0.3557   0.3614   0.3773   0.3820   0.4067   0.4114
  0.4332   0.4522   0.4933   0.6006   0.6298   0.6468   0.6560   0.6594
  0.6754   0.6904   0.7207   0.7250   0.7418   0.7450   0.7697   0.7778
  0.7944   0.7989   0.8138   0.8406   0.8501   0.9003   0.9461   0.9647
  0.9682   0.9811   1.0108   1.0195   1.0264   1.0451   1.0791   1.0862
  1.1066   1.1106   1.1153   1.1448   1.1515   1.1592   1.1690   1.1816
  1.2323   1.2593   1.2929   1.3370   1.3415   1.3687   1.3818   1.4090
  1.4743   1.4847   1.4888   1.5603   1.5678   1.6110   1.6978   1.7208
  1.7247   1.7512   1.7673   1.8034   1.8521   1.8677   1.8933   1.8976
  1.9030   1.9368   1.9740   2.0034   2.0072   2.0372   2.0468   2.0815
  2.0843   2.1236   2.1925   2.2146   2.2733   2.3041   2.3077   2.3403
  2.3931   2.4025   2.4081   2.4134   2.4442   2.5584   2.5797   2.6219
  2.6631   2.6788   2.6971   2.7518   2.7698   2.8253   2.8636   3.0142
  3.1895   4.0845   4.1903   4.2375   4.2834   4.3255   4.4180   4.5921
  4.5970   4.6649
 --------------------------------------------------------------
 
          Ground-State Mulliken Net Atomic Charges

     Atom                 Charge (a.u.)
  ----------------------------------------
      1 C                    -0.235796
      2 C                    -0.540159
      3 C                    -0.259383
      4 C                    -0.424319
      5 C                    -0.386030
      6 C                    -0.426059
      7 H                     0.212196
      8 H                     0.242675
      9 H                     0.194829
     10 H                     0.212559
     11 H                     0.204790
     12 H                     0.198402
     13 H                     0.196828
     14 H                     0.195749
     15 H                     0.204931
     16 H                     0.198466
     17 H                     0.193994
     18 N                    -0.370676
     19 H                     0.394201
     20 C                     0.333905
     21 H                     0.143012
     22 O                    -0.484113
  ----------------------------------------
  Sum of atomic charges =     0.000000

 -----------------------------------------------------------------
                    Cartesian Multipole Moments
 -----------------------------------------------------------------
    Charge (ESU x 10^10)
                -0.0000
    Dipole Moment (Debye)
         X      -4.1346      Y      -0.5458      Z       0.2085
       Tot       4.1756
    Quadrupole Moments (Debye-Ang)
        XX     -55.4471     XY       0.1764     YY     -56.9199
        XZ       3.7724     YZ       0.5188     ZZ     -51.8559
    Octopole Moments (Debye-Ang^2)
       XXX     288.6824    XXY       9.8586    XYY     100.9540
       YYY      35.7116    XXZ     126.8829    XYZ      -0.0878
       YYZ     127.2277    XZZ      91.5122    YZZ      10.5487
       ZZZ     370.6066
    Hexadecapole Moments (Debye-Ang^3)
      XXXX   -1768.4276   XXXY     -86.3602   XXYY    -363.8132
      XYYY     -88.8741   YYYY    -402.4612   XXXZ    -976.2184
      XXYZ     -36.9757   XYYZ    -322.6658   YYYZ    -110.3414
      XXZZ    -725.4885   XYZZ     -28.1248   YYZZ    -506.2819
      XZZZ    -954.6774   YZZZ    -107.5582   ZZZZ   -2585.5166
 -----------------------------------------------------------------
 Calculating analytic gradient of the SCF energy
 Gradient of SCF Energy
            1           2           3           4           5           6
    1  -0.0000190   0.0000038   0.0000015   0.0000186  -0.0000022  -0.0000033
    2   0.0000537  -0.0000229   0.0000366  -0.0000490   0.0000117  -0.0000354
    3  -0.0000226  -0.0000133   0.0000143   0.0000232   0.0000094  -0.0000150
            7           8           9          10          11          12
    1  -0.0000001   0.0000016  -0.0000032  -0.0000016   0.0000023   0.0000009
    2   0.0000005   0.0000039  -0.0000058  -0.0000010   0.0000086   0.0000051
    3  -0.0000074   0.0000010  -0.0000015   0.0000044   0.0000005  -0.0000045
           13          14          15          16          17          18
    1  -0.0000008  -0.0000028  -0.0000024  -0.0000022   0.0000044   0.0000039
    2   0.0000079   0.0000046   0.0000020   0.0000030   0.0000024   0.0000020
    3  -0.0000008  -0.0000019   0.0000006   0.0000067   0.0000017   0.0000078
           19          20          21          22
    1   0.0000003  -0.0000064   0.0000030   0.0000036
    2  -0.0000066   0.0000168  -0.0000194  -0.0000187
    3  -0.0000005  -0.0000021  -0.0000001  -0.0000001
 Max gradient component =       5.366E-05
 RMS gradient           =       1.386E-05
 Gradient time:  CPU 124.85 s  wall 8.64 s
 Geometry Optimization Parameters
   NAtoms,    NIC,     NZ,  NCons,   NDum,   NFix, NCnnct, MaxDiis
       22     172       0       0       0       0       0       0


** GEOMETRY OPTIMIZATION IN DELOCALIZED INTERNAL COORDINATES **
   Searching for a Minimum

   Optimization Cycle:   1

                       Coordinates (Angstroms)
     ATOM                X               Y               Z
      1  C        -2.4083508923    0.9984834764   -2.3662547437
      2  C        -1.5543120384   -0.2118403749   -1.9459885704
      3  C        -2.2384976761   -1.5367925874   -2.3261896725
      4  C        -2.5867463449   -1.5816552836   -3.8234193167
      5  C        -3.4377297730   -0.3731774783   -4.2445934317
      6  C        -2.7551397527    0.9499468362   -3.8636626912
      7  H        -1.5849547626   -2.3750094827   -2.0545927530
      8  H        -0.5831065672   -0.1532425547   -2.4485260558
      9  H        -3.3388117820    1.0024650072   -1.7759883684
     10  H        -1.8720534969    1.9234708349   -2.1213670712
     11  H        -1.6555784977   -1.5918293252   -4.4093866053
     12  H        -3.1102152921   -2.5181807775   -4.0551406051
     13  H        -3.6290653549   -0.4033428377   -5.3251377272
     14  H        -4.4201020066   -0.4306546907   -3.7508934023
     15  H        -1.8320207629    1.0648782183   -4.4511997179
     16  H        -3.3973970401    1.8010825553   -4.1242295555
     17  H        -3.1618885583   -1.6469527918   -1.7346449512
     18  N        -1.2474445251   -0.1731895513   -0.5151412109
     19  H        -2.0131265263   -0.2687147311    0.1418849346
     20  C         0.0000000000    0.0000000000    0.0000000000
     21  H         0.0000000000    0.0000000000    1.1070732462
     22  O         1.0278769477    0.1402881570   -0.6492362509
   Point Group: c1    Number of degrees of freedom:    60


   Energy is   -404.587033345


 Attempting to generate delocalized internal coordinates
 Initial Hessian constructed with Jon Baker's OPTIMIZE code

 60 Hessian modes will be used to form the next step
  Hessian Eigenvalues:
     0.005967    0.006024    0.006964    0.007193    0.012605    0.019501
     0.019786    0.020845    0.020845    0.037215    0.038526    0.039417
     0.041724    0.048166    0.048450    0.048891    0.055292    0.055631
     0.055746    0.059934    0.066958    0.081508    0.081536    0.081616
     0.082032    0.082133    0.084029    0.087513    0.120967    0.121178
     0.142989    0.159989    0.160000    0.160554    0.174868    0.210947
     0.220000    0.220003    0.272263    0.272658    0.275535    0.286789
     0.287121    0.287175    0.329119    0.334466    0.334727    0.335769
     0.336541    0.336553    0.339301    0.339441    0.339454    0.340119
     0.340274    0.342312    0.364811    0.454000    0.528079    0.937134

 Minimum search - taking simple RFO step
 Searching for Lamda that Minimizes Along All modes
 Value Taken    Lamda =  -0.00000031
 Step Taken.  Stepsize is  0.004868

                             Maximum     Tolerance    Cnvgd?
         Gradient           0.000099      0.000100     YES
         Displacement       0.003080      0.000100      NO
         Energy change     *********      0.000000      NO


 New Cartesian Coordinates Obtained by Inverse Iteration

 Displacement from previous Coordinates is:  0.011902
 ----------------------------------------------------------------
             Standard Nuclear Orientation (Angstroms)
    I     Atom           X                Y                Z
 ----------------------------------------------------------------
    1      C      -2.4078100119     0.9978269592    -2.3659040493
    2      C      -1.5542086092    -0.2128170646    -1.9459601154
    3      C      -2.2388312213    -1.5375115123    -2.3265274680
    4      C      -2.5873215466    -1.5817380123    -3.8237663299
    5      C      -3.4377637035    -0.3727989081    -4.2446042502
    6      C      -2.7545735540     0.9499354232    -3.8633255612
    7      H      -1.5855481286    -2.3760242213    -2.0552045318
    8      H      -0.5830060910    -0.1543424784    -2.4485142436
    9      H      -3.3382480168     1.0020706176    -1.7756094206
   10      H      -1.8711337870     1.9225406206    -2.1208075672
   11      H      -1.6562507062    -1.5923270212    -4.4098745166
   12      H      -3.1112978184    -2.5179612247    -4.0555918577
   13      H      -3.6291631598    -0.4026743541    -5.3251439040
   14      H      -4.4201248315    -0.4300073030    -3.7508543968
   15      H      -1.8313678921     1.0645552884    -4.4507932461
   16      H      -3.3964095379     1.8014328741    -4.1237354212
   17      H      -3.1622237106    -1.6475564757    -1.7349544913
   18      N      -1.2473243526    -0.1741434469    -0.5151258867
   19      H      -2.0129325268    -0.2701384276     0.1419170971
   20      C      -0.0001724614     0.0012723052    -0.0000183714
   21      H      -0.0003060803     0.0024894798     1.1070538624
   22      O       1.0273530449     0.1439495006    -0.6492898506
 ----------------------------------------------------------------
 Nuclear Repulsion Energy =         466.63375302 hartrees
 There are       35 alpha and       35 beta electrons
 Applying Cartesian multipole field
    Component          Value
    ---------          -----
     (2,0,0)        1.00000E-11
     (0,2,0)        2.00000E-11
     (0,0,2)       -3.00000E-12
 Nucleus-field energy     =     0.0000000118 hartrees
 Requested basis set is 6-31+G(d)
 There are 71 shells and 197 basis functions
 A cutoff of  1.0D-14 yielded   2413 shell pairs
 There are     18998 function pairs
 Smallest overlap matrix eigenvalue = 2.48E-05
 Guess MOs from SCF MO coefficient file

 -----------------------------------------------------------------------
  General SCF calculation program by
  Eric Jon Sundstrom, Paul Horn, Yuezhi Mao, Dmitri Zuev, Alec White,
  David Stuck, Shaama M.S., Shane Yost, Joonho Lee, David Small,
  Daniel Levine, Susi Lehtola, Hugh Burton, Evgeny Epifanovsky,
  Bang C. Huynh
 -----------------------------------------------------------------------
 Exchange:     0.2000 Hartree-Fock + 0.0800 Slater + 0.7200 B88
 Correlation:  0.1900 VWN1RPA + 0.8100 LYP
 Using Euler-Maclaurin-Lebedev (99,590) quadrature formula
 using 16 threads for integral computing
 -------------------------------------------------------
 OpenMP Integral computing Module                
 Release: version 2.0, May 2017, Q-Chem Inc. Pleasanton 
 -------------------------------------------------------
 A restricted SCF calculation will be
 performed using DIIS
 SCF converges when DIIS error is below 1.0e-09
 ---------------------------------------
  Cycle       Energy         DIIS error
 ---------------------------------------
    1    -404.5870288089      2.21e-05  
    2    -404.5870333968      2.85e-06  
    3    -404.5870334569      8.93e-07  
    4    -404.5870334600      4.25e-07  
    5    -404.5870334605      2.45e-07  
    6    -404.5870334607      5.93e-08  
    7    -404.5870334607      1.19e-08  
    8    -404.5870334607      5.07e-09  
    9    -404.5870334607      1.52e-09  
   10    -404.5870334607      3.34e-10  Convergence criterion met
 ---------------------------------------
 SCF time:   CPU 505.34s  wall 32.00s 
 SCF   energy in the final basis set =     -404.5870334607
 Total energy in the final basis set =     -404.5870334607
 
 --------------------------------------------------------------
 
                    Orbital Energies (a.u.)
 --------------------------------------------------------------
 
 Alpha MOs
 -- Occupied --
-19.1268 -14.3743 -10.2916 -10.2325 -10.1950 -10.1937 -10.1924 -10.1918
-10.1907  -1.0379  -0.9352  -0.8347  -0.7529  -0.7511  -0.6439  -0.6228
 -0.5996  -0.5735  -0.5321  -0.4891  -0.4673  -0.4527  -0.4471  -0.4223
 -0.4167  -0.4042  -0.3899  -0.3784  -0.3574  -0.3557  -0.3338  -0.3238
 -0.3191  -0.2620  -0.2605
 -- Virtual --
 -0.0052   0.0044   0.0125   0.0175   0.0212   0.0310   0.0420   0.0467
  0.0513   0.0614   0.0620   0.0777   0.0828   0.0857   0.0930   0.0958
  0.1031   0.1110   0.1171   0.1287   0.1330   0.1444   0.1474   0.1570
  0.1664   0.1735   0.1770   0.1798   0.1916   0.1949   0.2053   0.2067
  0.2151   0.2172   0.2291   0.2387   0.2459   0.2479   0.2564   0.2617
  0.2771   0.2795   0.2802   0.2857   0.2889   0.3042   0.3111   0.3216
  0.3227   0.3277   0.3557   0.3614   0.3773   0.3820   0.4067   0.4114
  0.4332   0.4522   0.4933   0.6006   0.6299   0.6468   0.6560   0.6594
  0.6754   0.6904   0.7207   0.7250   0.7416   0.7452   0.7697   0.7778
  0.7944   0.7990   0.8137   0.8406   0.8501   0.9004   0.9461   0.9647
  0.9682   0.9811   1.0108   1.0195   1.0265   1.0451   1.0791   1.0862
  1.1066   1.1106   1.1153   1.1449   1.1515   1.1592   1.1690   1.1816
  1.2323   1.2592   1.2929   1.3370   1.3416   1.3687   1.3819   1.4090
  1.4742   1.4847   1.4888   1.5603   1.5678   1.6110   1.6978   1.7208
  1.7248   1.7512   1.7673   1.8034   1.8521   1.8678   1.8933   1.8976
  1.9030   1.9368   1.9740   2.0034   2.0072   2.0372   2.0468   2.0815
  2.0844   2.1236   2.1925   2.2145   2.2734   2.3041   2.3076   2.3403
  2.3931   2.4025   2.4081   2.4134   2.4442   2.5584   2.5797   2.6219
  2.6631   2.6787   2.6972   2.7518   2.7698   2.8252   2.8636   3.0142
  3.1895   4.0845   4.1903   4.2375   4.2835   4.3255   4.4180   4.5921
  4.5970   4.6649
 --------------------------------------------------------------
 
          Ground-State Mulliken Net Atomic Charges

     Atom                 Charge (a.u.)
  ----------------------------------------
      1 C                    -0.235678
      2 C                    -0.540052
      3 C                    -0.259529
      4 C                    -0.424290
      5 C                    -0.386011
      6 C                    -0.426141
      7 H                     0.212181
      8 H                     0.242662
      9 H                     0.194840
     10 H                     0.212581
     11 H                     0.204789
     12 H                     0.198404
     13 H                     0.196828
     14 H                     0.195749
     15 H                     0.204932
     16 H                     0.198464
     17 H                     0.193982
     18 N                    -0.370722
     19 H                     0.394203
     20 C                     0.333879
     21 H                     0.143014
     22 O                    -0.484086
  ----------------------------------------
  Sum of atomic charges =     0.000000

 -----------------------------------------------------------------
                    Cartesian Multipole Moments
 -----------------------------------------------------------------
    Charge (ESU x 10^10)
                 0.0000
    Dipole Moment (Debye)
         X      -4.1337      Y      -0.5514      Z       0.2087
       Tot       4.1755
    Quadrupole Moments (Debye-Ang)
        XX     -55.4448     XY       0.1684     YY     -56.9223
        XZ       3.7716     YZ       0.5260     ZZ     -51.8560
    Octopole Moments (Debye-Ang^2)
       XXX     288.6959    XXY       9.8293    XYY     100.9502
       YYY      35.6842    XXZ     126.8815    XYZ      -0.0830
       YYZ     127.2296    XZZ      91.5132    YZZ      10.5325
       ZZZ     370.6060
    Hexadecapole Moments (Debye-Ang^3)
      XXXX   -1768.3333   XXXY     -86.5568   XXYY    -363.8076
      XYYY     -89.0977   YYYY    -402.5715   XXXZ    -976.2128
      XXYZ     -36.9882   XYYZ    -322.6602   YYYZ    -110.4277
      XXZZ    -725.4671   XYZZ     -28.1914   YYZZ    -506.2988
      XZZZ    -954.6591   YZZZ    -107.6257   ZZZZ   -2585.5021
 -----------------------------------------------------------------
 Calculating analytic gradient of the SCF energy
 Gradient of SCF Energy
            1           2           3           4           5           6
    1  -0.0000037   0.0000014   0.0000016  -0.0000032  -0.0000013   0.0000050
    2  -0.0000015  -0.0000093  -0.0000055  -0.0000154   0.0000027  -0.0000118
    3   0.0000126  -0.0000008  -0.0000151   0.0000054  -0.0000014  -0.0000026
            7           8           9          10          11          12
    1   0.0000011  -0.0000007  -0.0000005  -0.0000009  -0.0000007  -0.0000004
    2   0.0000007   0.0000085   0.0000001  -0.0000008   0.0000024   0.0000029
    3   0.0000025   0.0000018   0.0000005  -0.0000011   0.0000002  -0.0000030
           13          14          15          16          17          18
    1  -0.0000013   0.0000004  -0.0000010  -0.0000008   0.0000014  -0.0000069
    2   0.0000034  -0.0000009   0.0000004   0.0000014   0.0000017   0.0000921
    3  -0.0000006   0.0000001  -0.0000006   0.0000017   0.0000003   0.0000013
           19          20          21          22
    1  -0.0000008   0.0000263  -0.0000073  -0.0000075
    2   0.0000075  -0.0002020   0.0000574   0.0000658
    3  -0.0000007  -0.0000001  -0.0000002  -0.0000002
 Max gradient component =       2.020E-04
 RMS gradient           =       2.988E-05
 Gradient time:  CPU 124.79 s  wall 7.97 s
 Geometry Optimization Parameters
   NAtoms,    NIC,     NZ,  NCons,   NDum,   NFix, NCnnct, MaxDiis
       22     172       0       0       0       0       0       0

 Cartesian Hessian Update
 Hessian updated using BFGS update


** GEOMETRY OPTIMIZATION IN DELOCALIZED INTERNAL COORDINATES **
   Searching for a Minimum

   Optimization Cycle:   2

                       Coordinates (Angstroms)
     ATOM                X               Y               Z
      1  C        -2.4078100119    0.9978269592   -2.3659040493
      2  C        -1.5542086092   -0.2128170646   -1.9459601154
      3  C        -2.2388312213   -1.5375115123   -2.3265274680
      4  C        -2.5873215466   -1.5817380123   -3.8237663299
      5  C        -3.4377637035   -0.3727989081   -4.2446042502
      6  C        -2.7545735540    0.9499354232   -3.8633255612
      7  H        -1.5855481286   -2.3760242213   -2.0552045318
      8  H        -0.5830060910   -0.1543424784   -2.4485142436
      9  H        -3.3382480168    1.0020706176   -1.7756094206
     10  H        -1.8711337870    1.9225406206   -2.1208075672
     11  H        -1.6562507062   -1.5923270212   -4.4098745166
     12  H        -3.1112978184   -2.5179612247   -4.0555918577
     13  H        -3.6291631598   -0.4026743541   -5.3251439040
     14  H        -4.4201248315   -0.4300073030   -3.7508543968
     15  H        -1.8313678921    1.0645552884   -4.4507932461
     16  H        -3.3964095379    1.8014328741   -4.1237354212
     17  H        -3.1622237106   -1.6475564757   -1.7349544913
     18  N        -1.2473243526   -0.1741434469   -0.5151258867
     19  H        -2.0129325268   -0.2701384276    0.1419170971
     20  C        -0.0001724614    0.0012723052   -0.0000183714
     21  H        -0.0003060803    0.0024894798    1.1070538624
     22  O         1.0273530449    0.1439495006   -0.6492898506
   Point Group: c1    Number of degrees of freedom:    60


   Energy is   -404.587033461

 Hessian updated using BFGS update

 60 Hessian modes will be used to form the next step
  Hessian Eigenvalues:
     0.003083    0.005992    0.006042    0.006967    0.011069    0.019451
     0.019768    0.020829    0.037215    0.038525    0.039186    0.041688
     0.047745    0.048261    0.048865    0.054528    0.055325    0.055656
     0.059932    0.063891    0.070285    0.081436    0.081511    0.081858
     0.082009    0.082196    0.084034    0.089489    0.120719    0.121178
     0.144264    0.159983    0.160000    0.160753    0.180193    0.210948
     0.219969    0.220001    0.272329    0.273582    0.276641    0.286763
     0.287123    0.289436    0.329119    0.334445    0.334719    0.335774
     0.336536    0.336556    0.339299    0.339408    0.339445    0.340129
     0.340278    0.342325    0.364738    0.454001    0.528059    0.937134

 Minimum search - taking simple RFO step
 Searching for Lamda that Minimizes Along All modes
 Value Taken    Lamda =  -0.00000050
 Step Taken.  Stepsize is  0.010003

                             Maximum     Tolerance    Cnvgd?
         Gradient           0.000100      0.000100     YES
         Displacement       0.005500      0.000100      NO
         Energy change     -0.000000      0.000000      NO


 New Cartesian Coordinates Obtained by Inverse Iteration

 Displacement from previous Coordinates is:  0.019746
 ----------------------------------------------------------------
             Standard Nuclear Orientation (Angstroms)
    I     Atom           X                Y                Z
 ----------------------------------------------------------------
    1      C      -2.4068875758     0.9968028941    -2.3653987867
    2      C      -1.5540405725    -0.2143945094    -1.9459192904
    3      C      -2.2394123677    -1.5386432440    -2.3270120697
    4      C      -2.5882618982    -1.5818589623    -3.8242674384
    5      C      -3.4378126786    -0.3721827621    -4.2446100537
    6      C      -2.7536379799     0.9499324243    -3.8628325320
    7      H      -1.5865829526    -2.3776555233    -2.0561236636
    8      H      -0.5828416999    -0.1561751941    -2.4485078674
    9      H      -3.3372839824     1.0015270775    -1.7750534654
   10      H      -1.8695575640     1.9210577386    -2.1199884105
   11      H      -1.6573402526    -1.5931683517    -4.4105908627
   12      H      -3.1130702947    -2.5175987154    -4.0562187877
   13      H      -3.6293114355    -0.4016547418    -5.3251398919
   14      H      -4.4201587744    -0.4289140890    -3.7507790294
   15      H      -1.8302947515     1.0640089724    -4.4501998693
   16      H      -3.3947816765     1.8020128847    -4.1230143202
   17      H      -3.1628182915    -1.6484588661    -1.7353999180
   18      N      -1.2471348356    -0.1757135724    -0.5151064163
   19      H      -2.0125418276    -0.2731151013     0.1419631625
   20      C      -0.0006596636     0.0046679038    -0.0000577149
   21      H      -0.0006899470     0.0055763727     1.1070140148
   22      O       1.0264563195     0.1499799834    -0.6493913093
 ----------------------------------------------------------------
 Nuclear Repulsion Energy =         466.63617601 hartrees
 There are       35 alpha and       35 beta electrons
 Applying Cartesian multipole field
    Component          Value
    ---------          -----
     (2,0,0)        1.00000E-11
     (0,2,0)        2.00000E-11
     (0,0,2)       -3.00000E-12
 Nucleus-field energy     =     0.0000000118 hartrees
 Requested basis set is 6-31+G(d)
 There are 71 shells and 197 basis functions
 A cutoff of  1.0D-14 yielded   2413 shell pairs
 There are     18998 function pairs
 Smallest overlap matrix eigenvalue = 2.48E-05
 Guess MOs from SCF MO coefficient file

 -----------------------------------------------------------------------
  General SCF calculation program by
  Eric Jon Sundstrom, Paul Horn, Yuezhi Mao, Dmitri Zuev, Alec White,
  David Stuck, Shaama M.S., Shane Yost, Joonho Lee, David Small,
  Daniel Levine, Susi Lehtola, Hugh Burton, Evgeny Epifanovsky,
  Bang C. Huynh
 -----------------------------------------------------------------------
 Exchange:     0.2000 Hartree-Fock + 0.0800 Slater + 0.7200 B88
 Correlation:  0.1900 VWN1RPA + 0.8100 LYP
 Using Euler-Maclaurin-Lebedev (99,590) quadrature formula
 using 16 threads for integral computing
 -------------------------------------------------------
 OpenMP Integral computing Module                
 Release: version 2.0, May 2017, Q-Chem Inc. Pleasanton 
 -------------------------------------------------------
 A restricted SCF calculation will be
 performed using DIIS
 SCF converges when DIIS error is below 1.0e-09
 ---------------------------------------
  Cycle       Energy         DIIS error
 ---------------------------------------
    1    -404.5870220935      3.44e-05  
    2    -404.5870335593      4.23e-06  
    3    -404.5870337063      1.47e-06  
    4    -404.5870337149      6.54e-07  
    5    -404.5870337163      3.79e-07  
    6    -404.5870337167      1.56e-07  
    7    -404.5870337168      2.36e-08  
    8    -404.5870337168      9.05e-09  
    9    -404.5870337168      3.72e-09  
   10    -404.5870337168      5.18e-10  Convergence criterion met
 ---------------------------------------
 SCF time:   CPU 502.40s  wall 32.00s 
 SCF   energy in the final basis set =     -404.5870337168
 Total energy in the final basis set =     -404.5870337168
 
 --------------------------------------------------------------
 
                    Orbital Energies (a.u.)
 --------------------------------------------------------------
 
 Alpha MOs
 -- Occupied --
-19.1268 -14.3743 -10.2916 -10.2325 -10.1951 -10.1937 -10.1924 -10.1918
-10.1907  -1.0379  -0.9352  -0.8347  -0.7529  -0.7512  -0.6439  -0.6228
 -0.5996  -0.5735  -0.5321  -0.4891  -0.4673  -0.4527  -0.4471  -0.4223
 -0.4167  -0.4042  -0.3899  -0.3784  -0.3574  -0.3557  -0.3338  -0.3238
 -0.3191  -0.2620  -0.2605
 -- Virtual --
 -0.0052   0.0044   0.0125   0.0175   0.0212   0.0310   0.0420   0.0467
  0.0513   0.0613   0.0620   0.0777   0.0828   0.0857   0.0930   0.0958
  0.1031   0.1110   0.1171   0.1287   0.1331   0.1444   0.1475   0.1570
  0.1664   0.1735   0.1770   0.1798   0.1916   0.1950   0.2053   0.2067
  0.2151   0.2172   0.2291   0.2386   0.2459   0.2478   0.2564   0.2617
  0.2770   0.2795   0.2802   0.2857   0.2890   0.3042   0.3111   0.3216
  0.3226   0.3278   0.3557   0.3614   0.3773   0.3821   0.4067   0.4114
  0.4331   0.4522   0.4933   0.6005   0.6299   0.6468   0.6560   0.6594
  0.6754   0.6904   0.7207   0.7250   0.7415   0.7453   0.7697   0.7779
  0.7944   0.7990   0.8136   0.8406   0.8501   0.9004   0.9461   0.9647
  0.9682   0.9811   1.0108   1.0195   1.0265   1.0451   1.0791   1.0862
  1.1066   1.1106   1.1153   1.1449   1.1515   1.1592   1.1689   1.1816
  1.2323   1.2592   1.2929   1.3370   1.3415   1.3686   1.3820   1.4089
  1.4738   1.4849   1.4890   1.5603   1.5677   1.6109   1.6978   1.7208
  1.7248   1.7512   1.7673   1.8035   1.8520   1.8678   1.8933   1.8976
  1.9030   1.9367   1.9740   2.0034   2.0072   2.0372   2.0468   2.0815
  2.0844   2.1236   2.1925   2.2143   2.2736   2.3041   2.3076   2.3403
  2.3931   2.4025   2.4081   2.4134   2.4442   2.5584   2.5797   2.6219
  2.6631   2.6787   2.6973   2.7518   2.7697   2.8252   2.8637   3.0142
  3.1895   4.0845   4.1903   4.2376   4.2835   4.3255   4.4180   4.5921
  4.5970   4.6649
 --------------------------------------------------------------
 
          Ground-State Mulliken Net Atomic Charges

     Atom                 Charge (a.u.)
  ----------------------------------------
      1 C                    -0.235254
      2 C                    -0.539918
      3 C                    -0.259975
      4 C                    -0.424218
      5 C                    -0.385974
      6 C                    -0.426298
      7 H                     0.212179
      8 H                     0.242645
      9 H                     0.194867
     10 H                     0.212595
     11 H                     0.204789
     12 H                     0.198408
     13 H                     0.196829
     14 H                     0.195748
     15 H                     0.204932
     16 H                     0.198462
     17 H                     0.193956
     18 N                    -0.370800
     19 H                     0.394206
     20 C                     0.333849
     21 H                     0.143016
     22 O                    -0.484042
  ----------------------------------------
  Sum of atomic charges =     0.000000

 -----------------------------------------------------------------
                    Cartesian Multipole Moments
 -----------------------------------------------------------------
    Charge (ESU x 10^10)
                -0.0000
    Dipole Moment (Debye)
         X      -4.1322      Y      -0.5609      Z       0.2090
       Tot       4.1753
    Quadrupole Moments (Debye-Ang)
        XX     -55.4413     XY       0.1577     YY     -56.9257
        XZ       3.7703     YZ       0.5374     ZZ     -51.8564
    Octopole Moments (Debye-Ang^2)
       XXX     288.7245    XXY       9.7658    XYY     100.9425
       YYY      35.6164    XXZ     126.8791    XYZ      -0.0755
       YYZ     127.2324    XZZ      91.5168    YZZ      10.4935
       ZZZ     370.6056
    Hexadecapole Moments (Debye-Ang^3)
      XXXX   -1768.1749   XXXY     -86.8644   XXYY    -363.7940
      XYYY     -89.4584   YYYY    -402.7527   XXXZ    -976.2032
      XXYZ     -36.9992   XYYZ    -322.6492   YYYZ    -110.5479
      XXZZ    -725.4318   XYZZ     -28.2956   YYZZ    -506.3240
      XZZZ    -954.6311   YZZZ    -107.7085   ZZZZ   -2585.4780
 -----------------------------------------------------------------
 Calculating analytic gradient of the SCF energy
 Gradient of SCF Energy
            1           2           3           4           5           6
    1   0.0000256   0.0000000  -0.0000023  -0.0000324   0.0000004   0.0000124
    2  -0.0000874  -0.0000107  -0.0000702   0.0000442  -0.0000126   0.0000298
    3   0.0000712   0.0000192  -0.0000643  -0.0000246  -0.0000166   0.0000182
            7           8           9          10          11          12
    1   0.0000025  -0.0000047   0.0000023   0.0000001  -0.0000049  -0.0000023
    2   0.0000009   0.0000191   0.0000098   0.0000004  -0.0000092  -0.0000021
    3   0.0000167   0.0000018   0.0000022  -0.0000096  -0.0000015   0.0000016
           13          14          15          16          17          18
    1  -0.0000014   0.0000046   0.0000016   0.0000018  -0.0000026  -0.0000088
    2  -0.0000054  -0.0000085  -0.0000025  -0.0000016   0.0000003   0.0001179
    3   0.0000004   0.0000034  -0.0000011  -0.0000070  -0.0000008  -0.0000106
           19          20          21          22
    1   0.0000017   0.0000006   0.0000016   0.0000041
    2   0.0000006   0.0000044  -0.0000031  -0.0000143
    3  -0.0000001   0.0000020  -0.0000006   0.0000001
 Max gradient component =       1.179E-04
 RMS gradient           =       2.579E-05
 Gradient time:  CPU 125.24 s  wall 7.95 s
 Geometry Optimization Parameters
   NAtoms,    NIC,     NZ,  NCons,   NDum,   NFix, NCnnct, MaxDiis
       22     172       0       0       0       0       0       0

 Cartesian Hessian Update
 Hessian updated using BFGS update


** GEOMETRY OPTIMIZATION IN DELOCALIZED INTERNAL COORDINATES **
   Searching for a Minimum

   Optimization Cycle:   3

                       Coordinates (Angstroms)
     ATOM                X               Y               Z
      1  C        -2.4068875758    0.9968028941   -2.3653987867
      2  C        -1.5540405725   -0.2143945094   -1.9459192904
      3  C        -2.2394123677   -1.5386432440   -2.3270120697
      4  C        -2.5882618982   -1.5818589623   -3.8242674384
      5  C        -3.4378126786   -0.3721827621   -4.2446100537
      6  C        -2.7536379799    0.9499324243   -3.8628325320
      7  H        -1.5865829526   -2.3776555233   -2.0561236636
      8  H        -0.5828416999   -0.1561751941   -2.4485078674
      9  H        -3.3372839824    1.0015270775   -1.7750534654
     10  H        -1.8695575640    1.9210577386   -2.1199884105
     11  H        -1.6573402526   -1.5931683517   -4.4105908627
     12  H        -3.1130702947   -2.5175987154   -4.0562187877
     13  H        -3.6293114355   -0.4016547418   -5.3251398919
     14  H        -4.4201587744   -0.4289140890   -3.7507790294
     15  H        -1.8302947515    1.0640089724   -4.4501998693
     16  H        -3.3947816765    1.8020128847   -4.1230143202
     17  H        -3.1628182915   -1.6484588661   -1.7353999180
     18  N        -1.2471348356   -0.1757135724   -0.5151064163
     19  H        -2.0125418276   -0.2731151013    0.1419631625
     20  C        -0.0006596636    0.0046679038   -0.0000577149
     21  H        -0.0006899470    0.0055763727    1.1070140148
     22  O         1.0264563195    0.1499799834   -0.6493913093
   Point Group: c1    Number of degrees of freedom:    60


   Energy is   -404.587033717

 Hessian updated using BFGS update

 60 Hessian modes will be used to form the next step
  Hessian Eigenvalues:
     0.001616    0.006003    0.006087    0.006978    0.011135    0.019576
     0.019811    0.020941    0.037215    0.038527    0.039694    0.041766
     0.048198    0.048448    0.048918    0.055295    0.055651    0.056254
     0.059935    0.067426    0.081238    0.081439    0.081587    0.081938
     0.082057    0.083075    0.084031    0.092917    0.120887    0.121187
     0.152722    0.159985    0.160001    0.160886    0.199442    0.210950
     0.219914    0.220001    0.272377    0.273669    0.278763    0.286955
     0.287123    0.322321    0.329120    0.334484    0.334724    0.335810
     0.336543    0.336642    0.339298    0.339438    0.339481    0.340237
     0.340352    0.342426    0.364954    0.454003    0.528108    0.937133

 Minimum search - taking simple RFO step
 Searching for Lamda that Minimizes Along All modes
 Value Taken    Lamda =  -0.00000042
 Step Taken.  Stepsize is  0.011970

                             Maximum     Tolerance    Cnvgd?
         Gradient           0.000164      0.000100      NO
         Displacement       0.006874      0.000100      NO
         Energy change     -0.000000      0.000000      NO


 New Cartesian Coordinates Obtained by Inverse Iteration

 Displacement from previous Coordinates is:  0.021803
 ----------------------------------------------------------------
             Standard Nuclear Orientation (Angstroms)
    I     Atom           X                Y                Z
 ----------------------------------------------------------------
    1      C      -2.4058158522     0.9961471082    -2.3651578494
    2      C      -1.5538523996    -0.2158530696    -1.9459554378
    3      C      -2.2402155558    -1.5394387838    -2.3272389932
    4      C      -2.5890962443    -1.5819648987    -3.8244958404
    5      C      -3.4378490144    -0.3716340280    -4.2445399032
    6      C      -2.7527653819     0.9499565729    -3.8625595388
    7      H      -1.5880088881    -2.3790317040    -2.0566657096
    8      H      -0.5826441688    -0.1582687456    -2.4486111839
    9      H      -3.3361525308     1.0014303153    -1.7747310911
   10      H      -1.8677501581     1.9199215761    -2.1195239589
   11      H      -1.6581900938    -1.5938271544    -4.4108343627
   12      H      -3.1145512098    -2.5173115812    -4.0565995789
   13      H      -3.6294171865    -0.4008367556    -5.3250616070
   14      H      -4.4202119719    -0.4277720539    -3.7506690602
   15      H      -1.8293934911     1.0635231196    -4.4499840077
   16      H      -3.3933526026     1.8025252224    -4.1224942473
   17      H      -3.1636952748    -1.6487454740    -1.7356372794
   18      N      -1.2468396268    -0.1781089058    -0.5151465450
   19      H      -2.0119577528    -0.2777422994     0.1419260916
   20      C      -0.0011469084     0.0076695197    -0.0001180159
   21      H      -0.0010414100     0.0078215792     1.1069537347
   22      O       1.0252830202     0.1575730588    -0.6494901360
 ----------------------------------------------------------------
 Nuclear Repulsion Energy =         466.64197873 hartrees
 There are       35 alpha and       35 beta electrons
 Applying Cartesian multipole field
    Component          Value
    ---------          -----
     (2,0,0)        1.00000E-11
     (0,2,0)        2.00000E-11
     (0,0,2)       -3.00000E-12
 Nucleus-field energy     =     0.0000000118 hartrees
 Requested basis set is 6-31+G(d)
 There are 71 shells and 197 basis functions
 A cutoff of  1.0D-14 yielded   2412 shell pairs
 There are     18997 function pairs
 Smallest overlap matrix eigenvalue = 2.48E-05
 Guess MOs from SCF MO coefficient file

 -----------------------------------------------------------------------
  General SCF calculation program by
  Eric Jon Sundstrom, Paul Horn, Yuezhi Mao, Dmitri Zuev, Alec White,
  David Stuck, Shaama M.S., Shane Yost, Joonho Lee, David Small,
  Daniel Levine, Susi Lehtola, Hugh Burton, Evgeny Epifanovsky,
  Bang C. Huynh
 -----------------------------------------------------------------------
 Exchange:     0.2000 Hartree-Fock + 0.0800 Slater + 0.7200 B88
 Correlation:  0.1900 VWN1RPA + 0.8100 LYP
 Using Euler-Maclaurin-Lebedev (99,590) quadrature formula
 using 16 threads for integral computing
 -------------------------------------------------------
 OpenMP Integral computing Module                
 Release: version 2.0, May 2017, Q-Chem Inc. Pleasanton 
 -------------------------------------------------------
 A restricted SCF calculation will be
 performed using DIIS
 SCF converges when DIIS error is below 1.0e-09
 ---------------------------------------
  Cycle       Energy         DIIS error
 ---------------------------------------
    1    -404.5870140907      4.55e-05  
    2    -404.5870338320      6.04e-06  
    3    -404.5870340873      2.57e-06  
    4    -404.5870341128      1.16e-06  
    5    -404.5870341183      4.06e-07  
    6    -404.5870341186      2.75e-07  
    7    -404.5870341189      3.30e-08  
    8    -404.5870341189      1.47e-08  
    9    -404.5870341189      3.61e-09  
   10    -404.5870341189      5.23e-10  Convergence criterion met
 ---------------------------------------
 SCF time:   CPU 504.15s  wall 31.00s 
 SCF   energy in the final basis set =     -404.5870341189
 Total energy in the final basis set =     -404.5870341189
 
 --------------------------------------------------------------
 
                    Orbital Energies (a.u.)
 --------------------------------------------------------------
 
 Alpha MOs
 -- Occupied --
-19.1268 -14.3743 -10.2916 -10.2325 -10.1951 -10.1937 -10.1924 -10.1918
-10.1907  -1.0379  -0.9352  -0.8347  -0.7529  -0.7511  -0.6439  -0.6228
 -0.5995  -0.5735  -0.5321  -0.4891  -0.4673  -0.4527  -0.4471  -0.4223
 -0.4167  -0.4042  -0.3899  -0.3784  -0.3574  -0.3557  -0.3338  -0.3238
 -0.3191  -0.2620  -0.2604
 -- Virtual --
 -0.0052   0.0044   0.0125   0.0175   0.0212   0.0310   0.0420   0.0467
  0.0513   0.0613   0.0620   0.0777   0.0828   0.0857   0.0930   0.0958
  0.1030   0.1110   0.1171   0.1287   0.1331   0.1443   0.1476   0.1570
  0.1664   0.1734   0.1771   0.1799   0.1916   0.1950   0.2053   0.2066
  0.2151   0.2172   0.2292   0.2386   0.2458   0.2478   0.2565   0.2617
  0.2770   0.2796   0.2802   0.2857   0.2890   0.3042   0.3111   0.3216
  0.3226   0.3278   0.3557   0.3614   0.3773   0.3822   0.4067   0.4114
  0.4331   0.4521   0.4932   0.6005   0.6300   0.6467   0.6560   0.6594
  0.6754   0.6904   0.7206   0.7249   0.7413   0.7454   0.7696   0.7779
  0.7944   0.7990   0.8136   0.8407   0.8502   0.9004   0.9462   0.9647
  0.9682   0.9811   1.0107   1.0195   1.0265   1.0452   1.0791   1.0863
  1.1065   1.1106   1.1153   1.1449   1.1515   1.1592   1.1689   1.1816
  1.2322   1.2592   1.2929   1.3371   1.3414   1.3685   1.3821   1.4089
  1.4736   1.4850   1.4892   1.5603   1.5677   1.6108   1.6979   1.7208
  1.7248   1.7512   1.7672   1.8036   1.8520   1.8679   1.8933   1.8977
  1.9030   1.9366   1.9740   2.0034   2.0073   2.0372   2.0469   2.0813
  2.0846   2.1235   2.1925   2.2141   2.2739   2.3040   2.3076   2.3402
  2.3931   2.4025   2.4082   2.4134   2.4442   2.5584   2.5797   2.6219
  2.6631   2.6788   2.6974   2.7518   2.7697   2.8252   2.8637   3.0142
  3.1895   4.0846   4.1904   4.2376   4.2835   4.3255   4.4179   4.5921
  4.5971   4.6648
 --------------------------------------------------------------
 
          Ground-State Mulliken Net Atomic Charges

     Atom                 Charge (a.u.)
  ----------------------------------------
      1 C                    -0.234612
      2 C                    -0.539744
      3 C                    -0.260670
      4 C                    -0.424080
      5 C                    -0.385963
      6 C                    -0.426478
      7 H                     0.212185
      8 H                     0.242615
      9 H                     0.194894
     10 H                     0.212611
     11 H                     0.204783
     12 H                     0.198403
     13 H                     0.196828
     14 H                     0.195748
     15 H                     0.204939
     16 H                     0.198469
     17 H                     0.193933
     18 N                    -0.370881
     19 H                     0.394203
     20 C                     0.333800
     21 H                     0.143015
     22 O                    -0.483998
  ----------------------------------------
  Sum of atomic charges =     0.000000

 -----------------------------------------------------------------
                    Cartesian Multipole Moments
 -----------------------------------------------------------------
    Charge (ESU x 10^10)
                 0.0000
    Dipole Moment (Debye)
         X      -4.1302      Y      -0.5744      Z       0.2091
       Tot       4.1752
    Quadrupole Moments (Debye-Ang)
        XX     -55.4363     XY       0.1432     YY     -56.9298
        XZ       3.7688     YZ       0.5481     ZZ     -51.8570
    Octopole Moments (Debye-Ang^2)
       XXX     288.7578    XXY       9.6922    XYY     100.9320
       YYY      35.5357    XXZ     126.8750    XYZ      -0.0568
       YYZ     127.2369    XZZ      91.5242    YZZ      10.4537
       ZZZ     370.6102
    Hexadecapole Moments (Debye-Ang^3)
      XXXX   -1767.9746   XXXY     -87.2034   XXYY    -363.7761
      XYYY     -89.8456   YYYY    -402.9516   XXXZ    -976.1877
      XXYZ     -37.0098   XYYZ    -322.6393   YYYZ    -110.5982
      XXZZ    -725.3950   XYZZ     -28.4318   YYZZ    -506.3501
      XZZZ    -954.6240   YZZZ    -107.7403   ZZZZ   -2585.4650
 -----------------------------------------------------------------
 Calculating analytic gradient of the SCF energy
 Gradient of SCF Energy
            1           2           3           4           5           6
    1   0.0000240  -0.0000002  -0.0000009  -0.0000120   0.0000018  -0.0000089
    2  -0.0000938  -0.0000071  -0.0000693   0.0000707  -0.0000164   0.0000506
    3   0.0000496   0.0000178  -0.0000409  -0.0000304  -0.0000099   0.0000206
            7           8           9          10          11          12
    1   0.0000008  -0.0000025  -0.0000008   0.0000003  -0.0000034  -0.0000014
    2   0.0000028   0.0000096   0.0000128   0.0000061  -0.0000141  -0.0000072
    3   0.0000097   0.0000006  -0.0000020  -0.0000069  -0.0000026   0.0000108
           13          14          15          16          17          18
    1   0.0000009   0.0000023   0.0000036   0.0000024  -0.0000019  -0.0000112
    2  -0.0000104  -0.0000045  -0.0000044  -0.0000032   0.0000005   0.0000698
    3   0.0000027   0.0000036   0.0000014  -0.0000113   0.0000025  -0.0000176
           19          20          21          22
    1   0.0000015  -0.0000016   0.0000021   0.0000051
    2   0.0000048   0.0000464  -0.0000118  -0.0000322
    3   0.0000016   0.0000012  -0.0000015   0.0000010
 Max gradient component =       9.383E-05
 RMS gradient           =       2.402E-05
 Gradient time:  CPU 124.64 s  wall 7.98 s
 Geometry Optimization Parameters
   NAtoms,    NIC,     NZ,  NCons,   NDum,   NFix, NCnnct, MaxDiis
       22     172       0       0       0       0       0       0

 Cartesian Hessian Update
 Hessian updated using BFGS update


** GEOMETRY OPTIMIZATION IN DELOCALIZED INTERNAL COORDINATES **
   Searching for a Minimum

   Optimization Cycle:   4

                       Coordinates (Angstroms)
     ATOM                X               Y               Z
      1  C        -2.4058158522    0.9961471082   -2.3651578494
      2  C        -1.5538523996   -0.2158530696   -1.9459554378
      3  C        -2.2402155558   -1.5394387838   -2.3272389932
      4  C        -2.5890962443   -1.5819648987   -3.8244958404
      5  C        -3.4378490144   -0.3716340280   -4.2445399032
      6  C        -2.7527653819    0.9499565729   -3.8625595388
      7  H        -1.5880088881   -2.3790317040   -2.0566657096
      8  H        -0.5826441688   -0.1582687456   -2.4486111839
      9  H        -3.3361525308    1.0014303153   -1.7747310911
     10  H        -1.8677501581    1.9199215761   -2.1195239589
     11  H        -1.6581900938   -1.5938271544   -4.4108343627
     12  H        -3.1145512098   -2.5173115812   -4.0565995789
     13  H        -3.6294171865   -0.4008367556   -5.3250616070
     14  H        -4.4202119719   -0.4277720539   -3.7506690602
     15  H        -1.8293934911    1.0635231196   -4.4499840077
     16  H        -3.3933526026    1.8025252224   -4.1224942473
     17  H        -3.1636952748   -1.6487454740   -1.7356372794
     18  N        -1.2468396268   -0.1781089058   -0.5151465450
     19  H        -2.0119577528   -0.2777422994    0.1419260916
     20  C        -0.0011469084    0.0076695197   -0.0001180159
     21  H        -0.0010414100    0.0078215792    1.1069537347
     22  O         1.0252830202    0.1575730588   -0.6494901360
   Point Group: c1    Number of degrees of freedom:    60


   Energy is   -404.587034119

 Hessian updated using BFGS update

 60 Hessian modes will be used to form the next step
  Hessian Eigenvalues:
     0.000129    0.006015    0.006041    0.006960    0.011958    0.019478
     0.019772    0.021144    0.037215    0.038527    0.041422    0.042293
     0.048087    0.048704    0.048998    0.055306    0.055644    0.059261
     0.060035    0.068489    0.079933    0.081450    0.081622    0.081936
     0.082064    0.084017    0.084961    0.104424    0.121171    0.123154
     0.139720    0.159993    0.160009    0.161283    0.196577    0.210953
     0.219926    0.220149    0.272332    0.274079    0.279287    0.286748
     0.287107    0.317716    0.329195    0.334512    0.334731    0.335889
     0.336536    0.336693    0.339360    0.339439    0.339521    0.340170
     0.342136    0.345173    0.368914    0.454025    0.528108    0.937224

 Minimum search - taking simple RFO step
 Searching for Lamda that Minimizes Along All modes
 Value Taken    Lamda =  -0.00000733
 Step Taken.  Stepsize is  0.228113

                             Maximum     Tolerance    Cnvgd?
         Gradient           0.000120      0.000100      NO
         Displacement       0.136599      0.000100      NO
         Energy change     -0.000000      0.000000      NO


 New Cartesian Coordinates Obtained by Inverse Iteration

 Displacement from previous Coordinates is:  0.427200
 ----------------------------------------------------------------
             Standard Nuclear Orientation (Angstroms)
    I     Atom           X                Y                Z
 ----------------------------------------------------------------
    1      C      -2.3843475000     0.9832530752    -2.3601757954
    2      C      -1.5491185607    -0.2435486390    -1.9471875946
    3      C      -2.2547462469    -1.5546395434    -2.3320860259
    4      C      -2.6063889976    -1.5847450097    -3.8289740549
    5      C      -3.4387394726    -0.3610799711    -4.2427849817
    6      C      -2.7347084156     0.9494798128    -3.8570011909
    7      H      -1.6144256018    -2.4052266336    -2.0676032274
    8      H      -0.5782885105    -0.1970326115    -2.4518894628
    9      H      -3.3131391821     0.9987861515    -1.7676588719
   10      H      -1.8321793276     1.8976408197    -2.1105928452
   11      H      -1.6765014845    -1.6075248678    -4.4165864115
   12      H      -3.1451792956    -2.5118642050    -4.0639358308
   13      H      -3.6323646702    -0.3842968918    -5.3230638194
   14      H      -4.4210479608    -0.4051787213    -3.7475379297
   15      H      -1.8109924150     1.0527036703    -4.4458461909
   16      H      -3.3639644570     1.8118540402    -4.1119096844
   17      H      -3.1790500059    -1.6540740908    -1.7398680429
   18      N      -1.2390334116    -0.2225548508    -0.5167057006
   19      H      -1.9972629901    -0.3676335597     0.1399004311
   20      C      -0.0131740568     0.0652941804    -0.0009597404
   21      H      -0.0097778173     0.0498038507     1.1060056201
   22      O       0.9957656780     0.3066166133    -0.6501731702
 ----------------------------------------------------------------
 Nuclear Repulsion Energy =         466.78264079 hartrees
 There are       35 alpha and       35 beta electrons
 Applying Cartesian multipole field
    Component          Value
    ---------          -----
     (2,0,0)        1.00000E-11
     (0,2,0)        2.00000E-11
     (0,0,2)       -3.00000E-12
 Nucleus-field energy     =     0.0000000118 hartrees
 Requested basis set is 6-31+G(d)
 There are 71 shells and 197 basis functions
 A cutoff of  1.0D-14 yielded   2410 shell pairs
 There are     18997 function pairs
 Smallest overlap matrix eigenvalue = 2.49E-05
 Guess MOs from SCF MO coefficient file

 -----------------------------------------------------------------------
  General SCF calculation program by
  Eric Jon Sundstrom, Paul Horn, Yuezhi Mao, Dmitri Zuev, Alec White,
  David Stuck, Shaama M.S., Shane Yost, Joonho Lee, David Small,
  Daniel Levine, Susi Lehtola, Hugh Burton, Evgeny Epifanovsky,
  Bang C. Huynh
 -----------------------------------------------------------------------
 Exchange:     0.2000 Hartree-Fock + 0.0800 Slater + 0.7200 B88
 Correlation:  0.1900 VWN1RPA + 0.8100 LYP
 Using Euler-Maclaurin-Lebedev (99,590) quadrature formula
 using 16 threads for integral computing
 -------------------------------------------------------
 OpenMP Integral computing Module                
 Release: version 2.0, May 2017, Q-Chem Inc. Pleasanton 
 -------------------------------------------------------
 A restricted SCF calculation will be
 performed using DIIS
 SCF converges when DIIS error is below 1.0e-09
 ---------------------------------------
  Cycle       Energy         DIIS error
 ---------------------------------------
    1    -404.5793128517      8.94e-04  
    2    -404.5869237062      1.24e-04  
    3    -404.5870082936      8.78e-05  
    4    -404.5870295004      5.09e-05  
    5    -404.5870382313      1.44e-05  
    6    -404.5870389916      5.10e-06  
    7    -404.5870391010      1.17e-06  
    8    -404.5870391072      2.67e-07  
    9    -404.5870391075      5.12e-08  
   10    -404.5870391075      1.30e-08  
   11    -404.5870391075      5.45e-09  
   12    -404.5870391075      1.39e-09  
   13    -404.5870391075      5.90e-10  Convergence criterion met
 ---------------------------------------
 SCF time:   CPU 648.43s  wall 41.00s 
 SCF   energy in the final basis set =     -404.5870391075
 Total energy in the final basis set =     -404.5870391075
 
 --------------------------------------------------------------
 
                    Orbital Energies (a.u.)
 --------------------------------------------------------------
 
 Alpha MOs
 -- Occupied --
-19.1269 -14.3743 -10.2916 -10.2326 -10.1957 -10.1930 -10.1927 -10.1914
-10.1907  -1.0380  -0.9353  -0.8347  -0.7530  -0.7510  -0.6438  -0.6230
 -0.5991  -0.5735  -0.5322  -0.4890  -0.4674  -0.4528  -0.4471  -0.4223
 -0.4166  -0.4042  -0.3899  -0.3784  -0.3576  -0.3556  -0.3337  -0.3239
 -0.3190  -0.2628  -0.2599
 -- Virtual --
 -0.0052   0.0044   0.0123   0.0173   0.0213   0.0311   0.0419   0.0469
  0.0512   0.0611   0.0622   0.0780   0.0828   0.0857   0.0932   0.0958
  0.1026   0.1112   0.1180   0.1285   0.1331   0.1432   0.1488   0.1571
  0.1669   0.1733   0.1772   0.1801   0.1907   0.1959   0.2052   0.2065
  0.2148   0.2176   0.2294   0.2380   0.2442   0.2468   0.2585   0.2620
  0.2762   0.2797   0.2810   0.2855   0.2897   0.3043   0.3108   0.3207
  0.3222   0.3277   0.3555   0.3621   0.3772   0.3845   0.4064   0.4124
  0.4316   0.4512   0.4926   0.5999   0.6320   0.6460   0.6563   0.6592
  0.6759   0.6899   0.7191   0.7240   0.7373   0.7481   0.7689   0.7794
  0.7942   0.8005   0.8109   0.8410   0.8519   0.9017   0.9465   0.9655
  0.9681   0.9811   1.0104   1.0188   1.0266   1.0455   1.0788   1.0869
  1.1059   1.1106   1.1158   1.1455   1.1509   1.1595   1.1680   1.1823
  1.2306   1.2589   1.2934   1.3378   1.3397   1.3657   1.3847   1.4084
  1.4674   1.4856   1.4940   1.5606   1.5675   1.6090   1.6991   1.7212
  1.7254   1.7520   1.7668   1.8058   1.8514   1.8700   1.8929   1.8986
  1.9030   1.9340   1.9735   2.0032   2.0087   2.0369   2.0481   2.0791
  2.0869   2.1226   2.1915   2.2072   2.2824   2.3030   2.3078   2.3400
  2.3938   2.4023   2.4093   2.4142   2.4441   2.5580   2.5796   2.6220
  2.6627   2.6789   2.6998   2.7517   2.7688   2.8246   2.8653   3.0146
  3.1890   4.0851   4.1907   4.2380   4.2851   4.3254   4.4169   4.5921
  4.5992   4.6633
 --------------------------------------------------------------
 
          Ground-State Mulliken Net Atomic Charges

     Atom                 Charge (a.u.)
  ----------------------------------------
      1 C                    -0.222495
      2 C                    -0.534987
      3 C                    -0.273801
      4 C                    -0.421857
      5 C                    -0.385872
      6 C                    -0.429878
      7 H                     0.212304
      8 H                     0.241600
      9 H                     0.195396
     10 H                     0.213207
     11 H                     0.204654
     12 H                     0.198347
     13 H                     0.196814
     14 H                     0.195751
     15 H                     0.205100
     16 H                     0.198598
     17 H                     0.193520
     18 N                    -0.373052
     19 H                     0.394024
     20 C                     0.332336
     21 H                     0.142997
     22 O                    -0.482706
  ----------------------------------------
  Sum of atomic charges =     0.000000

 -----------------------------------------------------------------
                    Cartesian Multipole Moments
 -----------------------------------------------------------------
    Charge (ESU x 10^10)
                 0.0000
    Dipole Moment (Debye)
         X      -4.0799      Y      -0.8425      Z       0.2076
       Tot       4.1711
    Quadrupole Moments (Debye-Ang)
        XX     -55.3093     XY      -0.1215     YY     -57.0560
        XZ       3.7336     YZ       0.7586     ZZ     -51.8642
    Octopole Moments (Debye-Ang^2)
       XXX     289.5768    XXY       8.2658    XYY     100.6527
       YYY      33.8870    XXZ     126.7385    XYZ       0.2675
       YYZ     127.3598    XZZ      91.6771    YZZ       9.6584
       ZZZ     370.6492
    Hexadecapole Moments (Debye-Ang^3)
      XXXX   -1763.1657   XXXY     -93.6311   XXYY    -363.4024
      XYYY     -97.3076   YYYY    -407.8581   XXXZ    -975.8399
      XXYZ     -37.1241   XYYZ    -322.3893   YYYZ    -111.6337
      XXZZ    -724.3876   XYZZ     -30.9287   YYZZ    -507.0065
      XZZZ    -954.3221   YZZZ    -108.3641   ZZZZ   -2584.8849
 -----------------------------------------------------------------
 Calculating analytic gradient of the SCF energy
 Gradient of SCF Energy
            1           2           3           4           5           6
    1  -0.0000287  -0.0000432   0.0000267   0.0001344   0.0000252  -0.0001840
    2  -0.0001462   0.0000410  -0.0000211   0.0003144  -0.0000772   0.0002517
    3  -0.0002148   0.0000404   0.0002124  -0.0000841   0.0000500   0.0000253
            7           8           9          10          11          12
    1  -0.0000221   0.0000169  -0.0000323   0.0000088   0.0000029  -0.0000033
    2   0.0000297  -0.0000700   0.0000440   0.0000715  -0.0000516  -0.0000715
    3  -0.0000628   0.0000517  -0.0000173   0.0000450   0.0000025   0.0000643
           13          14          15          16          17          18
    1   0.0000180  -0.0000171   0.0000254   0.0000129   0.0000104   0.0000808
    2  -0.0000589   0.0000286  -0.0000180  -0.0000326  -0.0000190  -0.0005198
    3   0.0000215   0.0000050   0.0000080  -0.0000279   0.0000118  -0.0001352
           19          20          21          22
    1  -0.0000042  -0.0001008   0.0000110   0.0000623
    2   0.0001223   0.0004640  -0.0000965  -0.0001848
    3   0.0000051  -0.0000149  -0.0000214   0.0000352
 Max gradient component =       5.198E-04
 RMS gradient           =       1.219E-04
 Gradient time:  CPU 124.60 s  wall 7.89 s
 Geometry Optimization Parameters
   NAtoms,    NIC,     NZ,  NCons,   NDum,   NFix, NCnnct, MaxDiis
       22     172       0       0       0       0       0       0

 Cartesian Hessian Update
 Hessian updated using BFGS update


** GEOMETRY OPTIMIZATION IN DELOCALIZED INTERNAL COORDINATES **
   Searching for a Minimum

   Optimization Cycle:   5

                       Coordinates (Angstroms)
     ATOM                X               Y               Z
      1  C        -2.3843475000    0.9832530752   -2.3601757954
      2  C        -1.5491185607   -0.2435486390   -1.9471875946
      3  C        -2.2547462469   -1.5546395434   -2.3320860259
      4  C        -2.6063889976   -1.5847450097   -3.8289740549
      5  C        -3.4387394726   -0.3610799711   -4.2427849817
      6  C        -2.7347084156    0.9494798128   -3.8570011909
      7  H        -1.6144256018   -2.4052266336   -2.0676032274
      8  H        -0.5782885105   -0.1970326115   -2.4518894628
      9  H        -3.3131391821    0.9987861515   -1.7676588719
     10  H        -1.8321793276    1.8976408197   -2.1105928452
     11  H        -1.6765014845   -1.6075248678   -4.4165864115
     12  H        -3.1451792956   -2.5118642050   -4.0639358308
     13  H        -3.6323646702   -0.3842968918   -5.3230638194
     14  H        -4.4210479608   -0.4051787213   -3.7475379297
     15  H        -1.8109924150    1.0527036703   -4.4458461909
     16  H        -3.3639644570    1.8118540402   -4.1119096844
     17  H        -3.1790500059   -1.6540740908   -1.7398680429
     18  N        -1.2390334116   -0.2225548508   -0.5167057006
     19  H        -1.9972629901   -0.3676335597    0.1399004311
     20  C        -0.0131740568    0.0652941804   -0.0009597404
     21  H        -0.0097778173    0.0498038507    1.1060056201
     22  O         0.9957656780    0.3066166133   -0.6501731702
   Point Group: c1    Number of degrees of freedom:    60


   Energy is   -404.587039108

 Hessian updated using BFGS update

 60 Hessian modes will be used to form the next step
  Hessian Eigenvalues:
     0.000077    0.006019    0.006046    0.006962    0.013239    0.019613
     0.019769    0.021208    0.037215    0.038540    0.041529    0.042445
     0.048080    0.048691    0.049049    0.055308    0.055746    0.059427
     0.060353    0.069151    0.080024    0.081522    0.081646    0.081945
     0.082064    0.084014    0.085099    0.107494    0.121179    0.123159
     0.139621    0.159992    0.160023    0.161301    0.204700    0.211305
     0.220148    0.222118    0.272461    0.274272    0.280533    0.286805
     0.287137    0.328537    0.331110    0.334513    0.334827    0.335977
     0.336565    0.336722    0.339372    0.339450    0.339611    0.340170
     0.342390    0.355092    0.396472    0.454034    0.528150    0.937232
**WARNING** Magnitude of eigenvalue   1 too small.  Replaced by     0.000100

 Minimum search - taking simple RFO step
 Searching for Lamda that Minimizes Along All modes
 Value Taken    Lamda =  -0.00000417
 Step Taken.  Stepsize is  0.139031

                             Maximum     Tolerance    Cnvgd?
         Gradient           0.000269      0.000100      NO
         Displacement       0.086765      0.000100      NO
         Energy change     -0.000005      0.000000      NO


 New Cartesian Coordinates Obtained by Inverse Iteration

 Displacement from previous Coordinates is:  0.265071
 ----------------------------------------------------------------
             Standard Nuclear Orientation (Angstroms)
    I     Atom           X                Y                Z
 ----------------------------------------------------------------
    1      C      -2.3706852824     0.9757478928    -2.3572638949
    2      C      -1.5453440730    -0.2595744071    -1.9485324774
    3      C      -2.2627976417    -1.5631999468    -2.3349007308
    4      C      -2.6171634082    -1.5866755741    -3.8312541014
    5      C      -3.4392646883    -0.3547699577    -4.2412233163
    6      C      -2.7232131969     0.9487190374    -3.8536490908
    7      H      -1.6297509131    -2.4203006207    -2.0737996855
    8      H      -0.5753639012    -0.2193265374    -2.4555839360
    9      H      -3.2982176734     0.9972583209    -1.7631087828
   10      H      -1.8100173561     1.8844158230    -2.1059862839
   11      H      -1.6883929465    -1.6163874330    -4.4203349628
   12      H      -3.1644660970    -2.5085051939    -4.0673142800
   13      H      -3.6345795700    -0.3741696356    -5.3212758308
   14      H      -4.4212542084    -0.3912026613    -3.7447162998
   15      H      -1.7994822821     1.0452685628    -4.4435883647
   16      H      -3.3453034758     1.8171125783    -4.1056771177
   17      H      -3.1872036648    -1.6560678408    -1.7416588539
   18      N      -1.2326833510    -0.2482737869    -0.5183791212
   19      H      -1.9848500298    -0.4249658463     0.1374896268
   20      C      -0.0230272895     0.0995552416    -0.0013228489
   21      H      -0.0162113921     0.0725489253     1.1054354056
   22      O       0.9706077387     0.3988256782    -0.6499895727
 ----------------------------------------------------------------
 Nuclear Repulsion Energy =         466.91681597 hartrees
 There are       35 alpha and       35 beta electrons
 Applying Cartesian multipole field
    Component          Value
    ---------          -----
     (2,0,0)        1.00000E-11
     (0,2,0)        2.00000E-11
     (0,0,2)       -3.00000E-12
 Nucleus-field energy     =     0.0000000118 hartrees
 Requested basis set is 6-31+G(d)
 There are 71 shells and 197 basis functions
 A cutoff of  1.0D-14 yielded   2410 shell pairs
 There are     18997 function pairs
 Smallest overlap matrix eigenvalue = 2.50E-05
 Guess MOs from SCF MO coefficient file

 -----------------------------------------------------------------------
  General SCF calculation program by
  Eric Jon Sundstrom, Paul Horn, Yuezhi Mao, Dmitri Zuev, Alec White,
  David Stuck, Shaama M.S., Shane Yost, Joonho Lee, David Small,
  Daniel Levine, Susi Lehtola, Hugh Burton, Evgeny Epifanovsky,
  Bang C. Huynh
 -----------------------------------------------------------------------
 Exchange:     0.2000 Hartree-Fock + 0.0800 Slater + 0.7200 B88
 Correlation:  0.1900 VWN1RPA + 0.8100 LYP
 Using Euler-Maclaurin-Lebedev (99,590) quadrature formula
 using 16 threads for integral computing
 -------------------------------------------------------
 OpenMP Integral computing Module                
 Release: version 2.0, May 2017, Q-Chem Inc. Pleasanton 
 -------------------------------------------------------
 A restricted SCF calculation will be
 performed using DIIS
 SCF converges when DIIS error is below 1.0e-09
 ---------------------------------------
  Cycle       Energy         DIIS error
 ---------------------------------------
    1    -404.5840118895      5.61e-04  
    2    -404.5869970210      7.75e-05  
    3    -404.5870311570      5.27e-05  
    4    -404.5870378096      3.47e-05  
    5    -404.5870419811      8.45e-06  
    6    -404.5870422473      3.07e-06  
    7    -404.5870422868      7.06e-07  
    8    -404.5870422890      1.73e-07  
    9    -404.5870422892      3.21e-08  
   10    -404.5870422892      7.14e-09  
   11    -404.5870422892      2.46e-09  
   12    -404.5870422892      7.33e-10  Convergence criterion met
 ---------------------------------------
 SCF time:   CPU 592.98s  wall 38.00s 
 SCF   energy in the final basis set =     -404.5870422892
 Total energy in the final basis set =     -404.5870422892
 
 --------------------------------------------------------------
 
                    Orbital Energies (a.u.)
 --------------------------------------------------------------
 
 Alpha MOs
 -- Occupied --
-19.1270 -14.3742 -10.2915 -10.2327 -10.1961 -10.1929 -10.1925 -10.1912
-10.1907  -1.0381  -0.9353  -0.8346  -0.7531  -0.7508  -0.6438  -0.6232
 -0.5987  -0.5734  -0.5323  -0.4890  -0.4675  -0.4529  -0.4472  -0.4222
 -0.4165  -0.4041  -0.3898  -0.3783  -0.3577  -0.3554  -0.3337  -0.3239
 -0.3189  -0.2633  -0.2595
 -- Virtual --
 -0.0051   0.0044   0.0122   0.0172   0.0214   0.0312   0.0419   0.0471
  0.0511   0.0609   0.0625   0.0783   0.0829   0.0857   0.0933   0.0958
  0.1022   0.1113   0.1188   0.1283   0.1332   0.1426   0.1495   0.1572
  0.1675   0.1732   0.1774   0.1804   0.1902   0.1965   0.2050   0.2066
  0.2145   0.2178   0.2296   0.2372   0.2429   0.2461   0.2600   0.2624
  0.2758   0.2796   0.2815   0.2858   0.2901   0.3045   0.3105   0.3198
  0.3223   0.3276   0.3553   0.3628   0.3772   0.3865   0.4061   0.4134
  0.4303   0.4503   0.4921   0.5993   0.6336   0.6454   0.6562   0.6596
  0.6762   0.6896   0.7177   0.7235   0.7342   0.7492   0.7683   0.7808
  0.7939   0.8019   0.8090   0.8409   0.8538   0.9028   0.9468   0.9661
  0.9680   0.9813   1.0100   1.0183   1.0265   1.0459   1.0783   1.0877
  1.1054   1.1106   1.1163   1.1461   1.1505   1.1598   1.1673   1.1832
  1.2291   1.2587   1.2938   1.3359   1.3408   1.3639   1.3862   1.4078
  1.4636   1.4852   1.4972   1.5603   1.5677   1.6074   1.7001   1.7217
  1.7259   1.7526   1.7665   1.8078   1.8513   1.8718   1.8925   1.8991
  1.9035   1.9316   1.9728   2.0034   2.0099   2.0367   2.0492   2.0779
  2.0880   2.1218   2.1902   2.2028   2.2887   2.3019   2.3081   2.3399
  2.3944   2.4021   2.4103   2.4151   2.4441   2.5575   2.5799   2.6219
  2.6624   2.6789   2.7019   2.7515   2.7683   2.8241   2.8666   3.0150
  3.1886   4.0857   4.1910   4.2385   4.2865   4.3252   4.4160   4.5922
  4.6011   4.6621
 --------------------------------------------------------------
 
          Ground-State Mulliken Net Atomic Charges

     Atom                 Charge (a.u.)
  ----------------------------------------
      1 C                    -0.215361
      2 C                    -0.530180
      3 C                    -0.282042
      4 C                    -0.420855
      5 C                    -0.385958
      6 C                    -0.431842
      7 H                     0.212386
      8 H                     0.240648
      9 H                     0.195679
     10 H                     0.213881
     11 H                     0.204579
     12 H                     0.198337
     13 H                     0.196798
     14 H                     0.195757
     15 H                     0.205190
     16 H                     0.198679
     17 H                     0.193320
     18 N                    -0.375232
     19 H                     0.393846
     20 C                     0.330994
     21 H                     0.143005
     22 O                    -0.481628
  ----------------------------------------
  Sum of atomic charges =     0.000000

 -----------------------------------------------------------------
                    Cartesian Multipole Moments
 -----------------------------------------------------------------
    Charge (ESU x 10^10)
                -0.0000
    Dipole Moment (Debye)
         X      -4.0359      Y      -1.0149      Z       0.2051
       Tot       4.1667
    Quadrupole Moments (Debye-Ang)
        XX     -55.2059     XY      -0.2590     YY     -57.1734
        XZ       3.7041     YZ       0.8834     ZZ     -51.8669
    Octopole Moments (Debye-Ang^2)
[...]

 Mode:                40                     41                     42
 Frequency:      1411.34                1504.86                1508.84
 Force Cnst:      1.7072                 1.4491                 1.4658
 Red. Mass:       1.4547                 1.0861                 1.0928
 IR Active:          YES                    YES                    YES
 IR Intens:        0.851                  0.295                  3.733
 Raman Active:       YES                    YES                    YES
               X      Y      Z        X      Y      Z        X      Y      Z
 C          0.035 -0.056  0.091    0.018 -0.035 -0.040    0.013 -0.025 -0.006
 C         -0.051  0.023 -0.094    0.000 -0.014 -0.001   -0.002  0.003 -0.013
 C          0.045  0.046  0.083   -0.012 -0.027  0.034    0.014  0.028 -0.010
 C          0.006 -0.029  0.008   -0.009  0.013  0.022   -0.007  0.002 -0.003
 C         -0.008 -0.002 -0.001   -0.006  0.014 -0.003   -0.066 -0.003 -0.029
 C          0.006  0.036  0.012    0.007  0.014 -0.023   -0.010 -0.013  0.009
 H         -0.119 -0.183 -0.323    0.279  0.115 -0.242   -0.196 -0.085  0.141
 H          0.265 -0.171  0.478   -0.003  0.056 -0.005    0.019 -0.012  0.024
 H         -0.185  0.165 -0.274    0.157  0.400  0.182    0.039  0.206  0.036
 H         -0.111  0.139 -0.297   -0.354  0.126  0.299   -0.161  0.058  0.115
 H          0.012  0.007  0.013   -0.092 -0.193 -0.106    0.007 -0.043  0.021
 H         -0.089  0.075 -0.176    0.178 -0.068 -0.152    0.012 -0.004 -0.039
 H         -0.062 -0.010  0.004    0.053 -0.002 -0.012    0.583  0.008 -0.129
 H         -0.043  0.018 -0.055    0.024 -0.056  0.051    0.245  0.016  0.543
 H         -0.001 -0.051 -0.009    0.107 -0.193  0.119   -0.049  0.155 -0.038
 H         -0.106 -0.095 -0.176   -0.185 -0.080  0.153    0.111  0.041 -0.124
 H         -0.149 -0.095 -0.250   -0.148  0.305 -0.158    0.069 -0.238  0.056
 N         -0.005 -0.006 -0.036   -0.000 -0.000 -0.000   -0.003 -0.001 -0.003
 H          0.102  0.021  0.095    0.001  0.005  0.003    0.020  0.004  0.024
 C          0.010  0.002  0.026    0.002  0.001 -0.001    0.003  0.001  0.002
 H          0.004  0.002  0.041   -0.000 -0.000 -0.000    0.000 -0.000  0.005
 O          0.002  0.001 -0.007   -0.001 -0.000  0.001   -0.001 -0.000 -0.000
 TransDip  -0.006  0.016  0.024    0.004  0.015  0.008    0.053  0.015  0.028

 Mode:                43                     44                     45
 Frequency:      1511.45                1516.07                1527.64
 Force Cnst:      1.4746                 1.4710                 1.5577
 Red. Mass:       1.0956                 1.0862                 1.1329
 IR Active:          YES                    YES                    YES
 IR Intens:        5.502                 13.187                 11.409
 Raman Active:       YES                    YES                    YES
               X      Y      Z        X      Y      Z        X      Y      Z
 C          0.005 -0.024 -0.019    0.011 -0.023 -0.020   -0.010  0.030  0.019
 C         -0.001  0.007 -0.000   -0.006 -0.001 -0.011   -0.015 -0.006  0.003
 C         -0.006 -0.028  0.019    0.012  0.028 -0.025   -0.010 -0.031  0.019
 C          0.012 -0.038 -0.036    0.015 -0.034 -0.026    0.010 -0.030 -0.018
 C          0.007  0.002  0.003    0.011 -0.000 -0.000   -0.037 -0.001 -0.025
 C         -0.009 -0.037  0.036    0.013  0.034 -0.025    0.008  0.030 -0.019
 H          0.190  0.064 -0.166   -0.248 -0.106  0.195    0.236  0.090 -0.197
 H          0.003 -0.028  0.006    0.009 -0.001  0.011    0.011  0.004  0.057
 H          0.073  0.213  0.088    0.091  0.240  0.101   -0.081 -0.279 -0.085
 H         -0.172  0.046  0.157   -0.212  0.080  0.162    0.218 -0.066 -0.191
 H          0.146  0.381  0.166    0.126  0.347  0.135    0.081  0.256  0.087
 H         -0.316  0.097  0.283   -0.292  0.107  0.231   -0.215  0.068  0.165
 H         -0.063 -0.030  0.015   -0.115 -0.002  0.015    0.325  0.009 -0.084
 H         -0.027  0.004 -0.059   -0.042  0.001 -0.102    0.143  0.006  0.314
 H         -0.158  0.352 -0.168    0.136 -0.332  0.134    0.093 -0.247  0.090
 H          0.300  0.105 -0.261   -0.279 -0.114  0.224   -0.209 -0.074  0.165
 H         -0.087  0.233 -0.090    0.123 -0.279  0.124   -0.100  0.291 -0.092
 N          0.003 -0.001  0.002    0.008  0.002  0.010    0.035  0.011  0.032
 H         -0.010  0.001 -0.011   -0.024 -0.009 -0.031   -0.138 -0.039 -0.184
 C         -0.000 -0.000 -0.002   -0.003 -0.001 -0.005   -0.020 -0.007 -0.017
 H         -0.001  0.001 -0.003   -0.001 -0.000 -0.008   -0.002  0.001 -0.033
 O         -0.001 -0.000  0.001   -0.001 -0.000  0.002    0.002  0.001  0.003
 TransDip  -0.013  0.073 -0.009   -0.094 -0.005  0.068   -0.071 -0.037 -0.073

 Mode:                46                     47                     48
 Frequency:      1538.71                1750.06                2199.09
 Force Cnst:      2.3081                15.8475                 6.9154
 Red. Mass:       1.6546                 8.7822                 2.4271
 IR Active:          YES                    YES                    YES
 IR Intens:      152.935                427.677                101.236
 Raman Active:       YES                    YES                    YES
               X      Y      Z        X      Y      Z        X      Y      Z
 C         -0.004  0.006  0.010   -0.002  0.004  0.015   -0.000  0.000 -0.000
 C          0.074  0.021  0.043    0.005  0.003 -0.032    0.001 -0.000  0.002
 C         -0.003 -0.014  0.016   -0.002 -0.002  0.017   -0.000 -0.000 -0.000
 C         -0.002 -0.012 -0.018    0.001  0.004 -0.004    0.000 -0.000  0.000
 C         -0.010  0.001 -0.005   -0.001  0.001  0.001   -0.000  0.000 -0.000
 C         -0.002  0.012 -0.014    0.000 -0.005 -0.003   -0.000  0.000  0.000
 H          0.084  0.025 -0.059    0.002 -0.010 -0.022    0.001  0.001 -0.000
 H         -0.115 -0.001 -0.327    0.076  0.022  0.060    0.005  0.004  0.011
 H         -0.050 -0.046 -0.071   -0.028 -0.002 -0.030   -0.000 -0.001 -0.001
 H          0.096 -0.042 -0.038    0.032 -0.003 -0.018    0.003 -0.001  0.000
 H          0.066  0.126  0.081    0.005 -0.002 -0.002   -0.000  0.000 -0.000
 H         -0.109  0.024  0.109    0.004 -0.008  0.026    0.000  0.000 -0.000
 H          0.099 -0.005 -0.024    0.006 -0.003 -0.002   -0.000 -0.000  0.000
 H          0.039  0.000  0.088   -0.001 -0.001  0.001    0.000 -0.000  0.000
 H          0.061 -0.110  0.071    0.009  0.004  0.006    0.000 -0.000  0.000
 H         -0.100 -0.031  0.085    0.002  0.008  0.027    0.000 -0.000  0.000
 H         -0.064  0.049 -0.086   -0.024 -0.020 -0.016   -0.001 -0.000  0.000
 N         -0.133 -0.039 -0.120   -0.086 -0.033  0.023    0.005  0.002  0.012
 H          0.473  0.147  0.641   -0.273 -0.110 -0.211   -0.041 -0.013 -0.063
 C          0.062  0.021  0.064    0.573  0.241 -0.226    0.013  0.019 -0.200
 H          0.009 -0.005  0.121   -0.169 -0.032 -0.449    0.043 -0.051  0.974
 O         -0.001  0.000 -0.013   -0.323 -0.143  0.221   -0.018 -0.008  0.019
 TransDip   0.297  0.098  0.243    0.622  0.228  0.021    0.040  0.038 -0.317

 Mode:                49                     50                     51
 Frequency:      2998.63                3010.80                3013.48
 Force Cnst:      5.6674                 5.7107                 5.7320
 Red. Mass:       1.0698                 1.0692                 1.0713
 IR Active:          YES                    YES                    YES
 IR Intens:       22.742                 23.431                 23.127
 Raman Active:       YES                    YES                    YES
               X      Y      Z        X      Y      Z        X      Y      Z
 C          0.011 -0.004 -0.009   -0.049  0.017  0.042   -0.015  0.004  0.012
 C          0.004  0.001 -0.002    0.007 -0.000 -0.003    0.001 -0.000 -0.000
 C         -0.052 -0.020  0.045   -0.009 -0.004  0.008   -0.006 -0.000  0.004
 C          0.011  0.003 -0.006   -0.005  0.001  0.003    0.019  0.001 -0.010
 C          0.005  0.001 -0.000    0.025  0.000 -0.002   -0.063 -0.002  0.012
 C         -0.004 -0.000  0.003    0.011  0.000 -0.008    0.024  0.001 -0.014
 H         -0.150  0.182 -0.042   -0.027  0.037 -0.008   -0.001 -0.000 -0.001
 H         -0.058 -0.002  0.031   -0.093 -0.002  0.050   -0.020 -0.000  0.010
 H         -0.157  0.001  0.101    0.731 -0.017 -0.462    0.217 -0.006 -0.140
 H          0.031  0.039  0.009   -0.135 -0.184 -0.040   -0.029 -0.037 -0.010
 H         -0.126  0.007  0.080    0.064 -0.002 -0.042   -0.213  0.010  0.136
 H         -0.017 -0.036 -0.007   -0.006 -0.009  0.000   -0.017 -0.028 -0.012
 H         -0.002 -0.002 -0.025   -0.013  0.000 -0.123    0.025  0.003  0.233
 H         -0.052 -0.004  0.029   -0.282 -0.004  0.150    0.730  0.015 -0.381
 H          0.051  0.004 -0.033   -0.143 -0.012  0.090   -0.289 -0.025  0.184
 H         -0.001 -0.001  0.001    0.002  0.006  0.001   -0.008  0.016 -0.010
 H          0.785  0.057 -0.495    0.141  0.012 -0.087    0.076  0.007 -0.050
 N          0.000 -0.000 -0.000    0.000  0.000 -0.000   -0.000 -0.000 -0.000
 H         -0.001 -0.002 -0.005   -0.002  0.001 -0.003   -0.001  0.000 -0.001
 C          0.000  0.000 -0.000    0.000  0.000 -0.000    0.000  0.000 -0.000
 H         -0.000  0.000 -0.000   -0.000 -0.000 -0.000   -0.000 -0.000 -0.000
 O          0.000 -0.000  0.000   -0.000 -0.000  0.000   -0.000 -0.000  0.000
 TransDip  -0.067 -0.092  0.102   -0.052  0.057  0.134   -0.151  0.012 -0.026

 Mode:                52                     53                     54
 Frequency:      3022.74                3025.04                3065.54
 Force Cnst:      5.7269                 5.7228                 6.0451
 Red. Mass:       1.0638                 1.0614                 1.0918
 IR Active:          YES                    YES                    YES
 IR Intens:       14.961                 53.684                 79.579
 Raman Active:       YES                    YES                    YES
               X      Y      Z        X      Y      Z        X      Y      Z
 C          0.006 -0.008 -0.009   -0.004  0.008  0.008   -0.006 -0.006  0.000
 C         -0.001 -0.001  0.000    0.004  0.000 -0.002    0.011  0.000 -0.006
 C          0.001 -0.008  0.005    0.001 -0.008  0.004   -0.023  0.022 -0.002
 C         -0.032  0.023  0.034   -0.021  0.024  0.027   -0.014 -0.020 -0.004
 C         -0.000 -0.001 -0.001   -0.021 -0.001 -0.019    0.003 -0.001 -0.071
 C          0.026  0.022 -0.030   -0.022 -0.026  0.030   -0.013  0.021 -0.007
 H         -0.069  0.095 -0.024   -0.063  0.087 -0.022    0.195 -0.272  0.078
 H          0.010  0.003 -0.005   -0.043 -0.001  0.025   -0.140 -0.004  0.077
 H         -0.134  0.001  0.084    0.111 -0.001 -0.071    0.029 -0.002 -0.019
 H          0.062  0.093  0.021   -0.063 -0.095 -0.022    0.048  0.076  0.020
 H          0.553 -0.016 -0.349    0.426 -0.013 -0.266    0.022 -0.004 -0.018
 H         -0.175 -0.257 -0.057   -0.176 -0.265 -0.062    0.150  0.242  0.060
 H          0.002  0.005  0.015    0.052  0.004  0.332    0.137  0.011  0.770
 H         -0.000 -0.002 -0.001    0.188  0.004 -0.105   -0.183 -0.004  0.082
 H         -0.485 -0.033  0.305    0.468  0.032 -0.292   -0.012  0.002  0.004
 H          0.169 -0.224  0.056   -0.206  0.278 -0.072    0.169 -0.243  0.067
 H          0.054  0.001 -0.033    0.048  0.002 -0.030    0.080  0.010 -0.054
 N         -0.000  0.000  0.000    0.000  0.000 -0.000   -0.000 -0.000 -0.000
 H          0.000 -0.001 -0.000   -0.000 -0.000 -0.002    0.001  0.001 -0.001
 C         -0.000 -0.000  0.000   -0.000 -0.000 -0.000    0.000  0.000  0.000
 H          0.000 -0.000  0.000    0.000 -0.000 -0.000   -0.000 -0.000 -0.000
 O          0.000  0.000 -0.000    0.000  0.000 -0.000   -0.000 -0.000  0.000
 TransDip   0.003  0.124 -0.001   -0.174 -0.009  0.157   -0.134  0.034 -0.250

 Mode:                55                     56                     57
 Frequency:      3067.10                3069.49                3071.39
 Force Cnst:      6.0848                 6.0536                 6.1252
 Red. Mass:       1.0978                 1.0905                 1.1020
 IR Active:          YES                    YES                    YES
 IR Intens:       60.989                 14.202                 57.843
 Raman Active:       YES                    YES                    YES
               X      Y      Z        X      Y      Z        X      Y      Z
 C          0.004 -0.003 -0.004    0.001  0.007  0.004    0.005 -0.003 -0.004
 C         -0.002  0.001  0.001   -0.025 -0.001  0.015   -0.011 -0.000  0.005
 C          0.004 -0.010  0.005    0.050 -0.051  0.008   -0.002  0.008 -0.004
 C         -0.049 -0.045  0.000    0.009 -0.006 -0.009    0.043  0.033 -0.005
 C         -0.001 -0.000 -0.003    0.003  0.000 -0.031    0.020  0.000 -0.036
 C          0.046 -0.038 -0.000   -0.010  0.013 -0.003    0.049 -0.034 -0.005
 H         -0.086  0.118 -0.035   -0.453  0.627 -0.183    0.066 -0.093  0.027
 H          0.029  0.003 -0.016    0.314  0.008 -0.172    0.129  0.004 -0.072
 H         -0.060  0.001  0.040    0.033  0.000 -0.019   -0.071  0.002  0.049
 H          0.022  0.033  0.009   -0.051 -0.077 -0.021    0.017  0.027  0.007
 H          0.231 -0.018 -0.153   -0.135  0.006  0.086   -0.258  0.020  0.166
 H          0.349  0.559  0.144    0.035  0.054  0.013   -0.255 -0.410 -0.105
 H          0.005 -0.001  0.031    0.058  0.003  0.325    0.054  0.004  0.296
 H          0.000 -0.003 -0.001   -0.098 -0.001  0.045   -0.288 -0.006  0.141
 H         -0.219 -0.025  0.145    0.010  0.002 -0.009   -0.283 -0.032  0.183
 H         -0.332  0.477 -0.136    0.112 -0.161  0.045   -0.303  0.438 -0.124
 H          0.038  0.001 -0.025   -0.141 -0.020  0.099   -0.035 -0.001  0.025
 N         -0.000 -0.000  0.000    0.000  0.000 -0.000    0.000  0.000  0.000
 H         -0.000 -0.001  0.000   -0.004 -0.001  0.003   -0.001 -0.000  0.002
 C         -0.000 -0.000 -0.000   -0.000 -0.000  0.000   -0.000 -0.000  0.000
 H         -0.000  0.000  0.000   -0.000  0.000  0.000    0.000  0.000  0.000
 O          0.000  0.000 -0.000    0.000  0.000 -0.000    0.000  0.000 -0.000
 TransDip   0.006 -0.250 -0.003    0.071 -0.084 -0.049    0.228  0.013 -0.085

 Mode:                58                     59                     60
 Frequency:      3079.98                3091.70                3590.72
 Force Cnst:      6.0951                 6.1521                 8.1866
 Red. Mass:       1.0905                 1.0924                 1.0777
 IR Active:          YES                    YES                    YES
 IR Intens:       28.205                 35.175                 14.758
 Raman Active:       YES                    YES                    YES
               X      Y      Z        X      Y      Z        X      Y      Z
 C         -0.046 -0.054 -0.008   -0.038 -0.034  0.001   -0.000  0.000 -0.000
 C          0.034  0.000 -0.019   -0.057 -0.002  0.030   -0.001  0.000 -0.001
 C          0.022 -0.017 -0.000   -0.020  0.014  0.002    0.000 -0.000 -0.000
 C          0.009  0.004 -0.003   -0.008 -0.002  0.004    0.000  0.000 -0.000
 C          0.002  0.001  0.000   -0.003  0.000  0.006    0.000  0.000 -0.000
 C         -0.000 -0.005  0.004   -0.009  0.001  0.005    0.000 -0.000 -0.000
 H         -0.155  0.217 -0.063    0.127 -0.180  0.051   -0.000  0.001  0.000
 H         -0.416 -0.014  0.225    0.671  0.019 -0.359    0.008 -0.001 -0.006
 H          0.129 -0.012 -0.091    0.193 -0.015 -0.125    0.001 -0.001  0.001
 H          0.421  0.650  0.180    0.268  0.419  0.114   -0.000 -0.001 -0.000
 H         -0.070  0.004  0.047    0.074 -0.005 -0.050   -0.000 -0.000 -0.000
 H         -0.034 -0.055 -0.013    0.017  0.027  0.006   -0.000 -0.000  0.000
 H         -0.001 -0.001 -0.008   -0.008 -0.001 -0.045   -0.000 -0.000 -0.000
 H         -0.014  0.001  0.007    0.045  0.001 -0.021   -0.000  0.000  0.000
 H          0.040  0.002 -0.026    0.095  0.009 -0.064   -0.000  0.000 -0.000
 H         -0.041  0.057 -0.016    0.015 -0.021  0.005   -0.000  0.000 -0.000
 H         -0.107 -0.013  0.069    0.117  0.016 -0.073    0.000  0.001  0.001
 N         -0.000  0.000 -0.000    0.001  0.000  0.001   -0.053 -0.021  0.046
 H          0.005  0.001 -0.002   -0.009 -0.001  0.001    0.710  0.282 -0.641
 C          0.000  0.000  0.000   -0.001 -0.001  0.000    0.001  0.001  0.002
 H         -0.000 -0.000 -0.001    0.000  0.001  0.001   -0.001 -0.000 -0.003
 O         -0.000  0.000  0.000    0.000  0.000 -0.001    0.001  0.000 -0.000
 TransDip   0.007 -0.162 -0.053   -0.166 -0.022  0.090    0.109  0.046 -0.034

 STANDARD THERMODYNAMIC QUANTITIES AT   298.18 K  AND     1.00 ATM

   This Molecule has  0 Imaginary Frequencies
   Zero point vibrational energy:      122.008 kcal/mol

   Atom    1 Element C  Has Mass   12.00000
   Atom    2 Element C  Has Mass   12.00000
   Atom    3 Element C  Has Mass   12.00000
   Atom    4 Element C  Has Mass   12.00000
   Atom    5 Element C  Has Mass   12.00000
   Atom    6 Element C  Has Mass   12.00000
   Atom    7 Element H  Has Mass    1.00783
   Atom    8 Element H  Has Mass    1.00783
   Atom    9 Element H  Has Mass    1.00783
   Atom   10 Element H  Has Mass    1.00783
   Atom   11 Element H  Has Mass    1.00783
   Atom   12 Element H  Has Mass    1.00783
   Atom   13 Element H  Has Mass    1.00783
   Atom   14 Element H  Has Mass    1.00783
   Atom   15 Element H  Has Mass    1.00783
   Atom   16 Element H  Has Mass    1.00783
   Atom   17 Element H  Has Mass    1.00783
   Atom   18 Element N  Has Mass   14.00307
   Atom   19 Element H  Has Mass    1.00783
   Atom   20 Element C  Has Mass   12.00000
   Atom   21 Element H  Has Mass    2.01410
   Atom   22 Element O  Has Mass   15.99491
   Molecular Mass:   128.106042 amu
   Principal axes and moments of inertia in amu*Bohr^2:
                             1           2           3
    Eigenvalues --      540.58475  1985.20195  2223.10663
          X               0.64837     0.02924     0.76077
          Y               0.14461     0.97634    -0.16077
          Z               0.74747    -0.21425    -0.62880
   Rotational Symmetry Number is   1
   The Molecule is an Asymmetric Top
   Translational Enthalpy:        0.889 kcal/mol
   Rotational Enthalpy:           0.889 kcal/mol
   Vibrational Enthalpy:        125.888 kcal/mol
   gas constant (RT):             0.593 kcal/mol
   Translational Entropy:        40.457  cal/mol.K
   Rotational Entropy:           29.258  cal/mol.K
   Vibrational Entropy:          24.855  cal/mol.K

   Total Enthalpy:              128.258 kcal/mol
   Total Entropy:                94.569  cal/mol.K
Archival summary:
1\1\node029\FREQ\ProcedureUnspecified\6-31+G*\11713\ymao90\SunMar704:48:412021SunMar704:48:412021\0\\#,FREQ,ProcedureUnspecified,6-31+G*,\\0,1\N\H,1,1.01333\C,1,1.36023,2,117.453\H,3,1.10717,1,112.37,2,3.287,0\O,3,1.22392,1,125.52,2,-177.265,0\C,1,1.46457,2,118.318,3,-175.725,0\H,6,1.09562,1,105.445,2,-163.021,0\C,6,1.53712,1,110.415,2,-45.1894,0\H,8,1.09735,6,109.548,1,-57.9176,0\H,8,1.10248,6,109.096,1,58.7609,0\C,8,1.53801,6,111.439,1,179.328,0\H,11,1.09763,8,109.72,6,-177.495,0\H,11,1.1002,8,109.057,6,66.2562,0\C,11,1.537,8,111.76,6,-54.6489,0\H,14,1.09778,11,110.084,8,177.093,0\H,14,1.10094,11,109.262,8,-66.2531,0\C,14,1.53681,11,111.313,8,54.5176,0\H,17,1.09761,14,110.407,11,-177.123,0\H,17,1.1003,14,109.316,11,66.1197,0\C,17,1.53753,14,111.545,11,-54.7021,0\H,20,1.0965,17,110.778,14,176.821,0\H,20,1.10139,17,109.523,14,-65.3883,0\\\@

 Total job time:  780.72s(wall), 12278.41s(cpu) 
 Sun Mar  7 04:48:41 2021

        *************************************************************
        *                                                           *
        *  Thank you very much for using Q-Chem.  Have a nice day.  *
        *                                                           *
        *************************************************************


