                  Welcome to Q-Chem
     A Quantum Leap Into The Future Of Chemistry


 Q-Chem 5.2 (devel), Q-Chem, Inc., Pleasanton, CA (2019)

 Yihan Shao,  Zhengting Gan,  E. Epifanovsky,  A. T. B. Gilbert,  M. Wormit,  
 J. Kussmann,  A. W. Lange,  A. Behn,  Jia Deng,  Xintian Feng,  D. Ghosh,  
 M. Goldey,  P. R. Horn,  L. D. Jacobson,  I. Kaliman,  T. Kus,  A. Landau,  
 Jie Liu,  E. I. Proynov,  R. M. Richard,  R. P. Steele,  E. J. Sundstrom,  
 H. L. Woodcock III,  P. M. Zimmerman,  D. Zuev,  B. Alam,  B. Albrecht,  
 E. Alguire,  S. A. Baeppler,  D. Barton,  Z. Benda,  Y. A. Bernard,  
 E. J. Berquist,  K. B. Bravaya,  H. Burton,  K. Carter-Fenk,  D. Casanova,  
 Chun-Min Chang,  Yunqing Chen,  A. Chien,  K. D. Closser,  M. P. Coons,  
 S. Coriani,  S. Dasgupta,  A. L. Dempwolff,  M. Diedenhofen,  Hainam Do,  
 R. G. Edgar,  Po-Tung Fang,  S. Faraji,  S. Fatehi,  Qingguo Feng,  
 J. Fosso-Tande,  J. Gayvert,  Qinghui Ge,  A. Ghysels,  G. Gidofalvi,  
 J. Gomes,  J. Gonthier,  A. Gunina,  D. Hait,  M. W. D. Hanson-Heine,  
 P. H. P. Harbach,  A. W. Hauser,  M. F. Herbst,  J. E. Herr,  
 E. G. Hohenstein,  Z. C. Holden,  Kerwin Hui,  B. C. Huynh,  T.-C. Jagau,  
 Hyunjun Ji,  B. Kaduk,  K. Khistyaev,  Jaehoon Kim,  P. Klunzinger,  K. Koh,  
 D. Kosenkov,  L. Koulias,  T. Kowalczyk,  C. M. Krauter,  A. Kunitsa,  
 Ka Un Lao,  A. Laurent,  K. V. Lawler,  Joonho Lee,  D. Lefrancois,  
 S. Lehtola,  D. S. Levine,  Yi-Pei Li,  You-Sheng Lin,  Fenglai Liu,  
 Kuan-Yu Liu,  E. Livshits,  M. Loipersberger,  A. Luenser,  P. Manohar,  
 E. Mansoor,  S. F. Manzer,  Shan-Ping Mao,  Yuezhi Mao,  N. Mardirossian,  
 A. V. Marenich,  T. Markovich,  L. A. Martinez-Martinez,  S. A. Maurer,  
 N. J. Mayhall,  S. C. McKenzie,  J.-M. Mewes,  P. Morgante,  A. F. Morrison,  
 J. W. Mullinax,  K. Nanda,  T. S. Nguyen-Beck,  R. Olivares-Amaya,  
 J. A. Parkhill,  S. K. Paul,  F. Pavosevic,  Zheng Pei,  T. M. Perrine,  
 F. Plasser,  P. Pokhilko,  S. Prager,  A. Prociuk,  E. Ramos,  B. Rana,  
 D. R. Rehn,  F. Rob,  M. Scheurer,  M. Schneider,  N. Sergueev,  
 S. M. Sharada,  S. Sharma,  D. W. Small,  T. Stauch,  C. J. Stein,  
 T. Stein,  Yu-Chuan Su,  S. P. Veccham,  Zhen Tao,  A. J. W. Thom,  
 A. Tkatchenko,  T. Tsuchimochi,  N. M. Tubman,  L. Vogt,  M. L. Vidal,  
 O. Vydrov,  M. A. Watson,  J. Wenzel,  M. de Wergifosse,  T. A. Wesolowski,  
 A. White,  J. Witte,  A. Yamada,  Jun Yang,  K. Yao,  S. Yeganeh,  
 S. R. Yost,  Zhi-Qiang You,  A. Zech,  Igor Ying Zhang,  Xing Zhang,  
 Yan Zhao,  Ying Zhu,  B. R. Brooks,  G. K. L. Chan,  C. J. Cramer,  
 M. S. Gordon,  W. J. Hehre,  A. Klamt,  M. W. Schmidt,  C. D. Sherrill,  
 D. G. Truhlar,  A. Aspuru-Guzik,  R. Baer,  A. T. Bell,  N. A. Besley,  
 Jeng-Da Chai,  A. E. DePrince, III,  R. A. DiStasio Jr.,  A. Dreuw,  
 B. D. Dunietz,  T. R. Furlani,  Chao-Ping Hsu,  Yousung Jung,  Jing Kong,  
 D. S. Lambrecht,  WanZhen Liang,  C. Ochsenfeld,  V. A. Rassolov,  
 L. V. Slipchenko,  J. E. Subotnik,  T. Van Voorhis,  J. M. Herbert,  
 A. I. Krylov,  P. M. W. Gill,  M. Head-Gordon

 Contributors to earlier versions of Q-Chem not listed above: 
 R. D. Adamson,  B. Austin,  J. Baker,  G. J. O. Beran,  K. Brandhorst,  
 S. T. Brown,  E. F. C. Byrd,  A. K. Chakraborty,  C.-L. Cheng,  
 Siu Hung Chien,  D. M. Chipman,  D. L. Crittenden,  H. Dachsel,  
 R. J. Doerksen,  A. D. Dutoi,  L. Fusti-Molnar,  W. A. Goddard III,  
 A. Golubeva-Zadorozhnaya,  S. R. Gwaltney,  G. Hawkins,  A. Heyden,  
 S. Hirata,  G. Kedziora,  F. J. Keil,  C. Kelley,  Jihan Kim,  R. A. King,  
 R. Z. Khaliullin,  P. P. Korambath,  W. Kurlancheek,  A. M. Lee,  M. S. Lee,  
 S. V. Levchenko,  Ching Yeh Lin,  D. Liotard,  R. C. Lochan,  I. Lotan,  
 P. E. Maslen,  N. Nair,  D. P. O'Neill,  D. Neuhauser,  E. Neuscamman,  
 C. M. Oana,  R. Olson,  B. Peters,  R. Peverati,  P. A. Pieniazek,  
 Y. M. Rhee,  J. Ritchie,  M. A. Rohrdanz,  E. Rosta,  N. J. Russ,  
 H. F. Schaefer III,  N. E. Schultz,  N. Shenvi,  A. C. Simmonett,  A. Sodt,  
 D. Stuck,  K. S. Thanthiriwatte,  V. Vanovschi,  Tao Wang,  A. Warshel,  
 C. F. Williams,  Q. Wu,  X. Xu,  W. Zhang

 Please cite Q-Chem as follows:
 Y. Shao et al., Mol. Phys. 113, 184-215 (2015)
 DOI: 10.1080/00268976.2014.952696

 Q-Chem 5.2.2 for Intel X86 EM64T Linux

 Parts of Q-Chem use Armadillo 9.800.1 (Horizon Scraper).
 http://arma.sourceforge.net/

 Q-Chem begins on Sun Aug  8 22:27:34 2021  

Host: node026
0

     Scratch files written to /home/ymao90/scratch/CCX_CD_0_GLY_6220210808222731//
Symmetry turned off for PCM/SM12/SMD calculation

Checking the input file for inconsistencies... 	...done.

--------------------------------------------------------------
User input:
--------------------------------------------------------------
$molecule
0 1
C     -2.4083508923    0.9984834764   -2.3662547437
C     -1.5543120384   -0.2118403749   -1.9459885704
C     -2.2384976761   -1.5367925874   -2.3261896725
C     -2.5867463449   -1.5816552836   -3.8234193167
C     -3.4377297730   -0.3731774783   -4.2445934317
C     -2.7551397527    0.9499468362   -3.8636626912
H     -1.5849547626   -2.3750094827   -2.0545927530
H     -0.5831065672   -0.1532425547   -2.4485260558
H     -3.3388117820    1.0024650072   -1.7759883684
H     -1.8720534969    1.9234708349   -2.1213670712
H     -1.6555784977   -1.5918293252   -4.4093866053
H     -3.1102152921   -2.5181807775   -4.0551406051
H     -3.6290653549   -0.4033428377   -5.3251377272
H     -4.4201020066   -0.4306546907   -3.7508934023
H     -1.8320207629    1.0648782183   -4.4511997179
H     -3.3973970401    1.8010825553   -4.1242295555
H     -3.1618885583   -1.6469527918   -1.7346449512
N     -1.2474445251   -0.1731895513   -0.5151412109
H     -2.0131265263   -0.2687147311    0.1418849346
C      0.0000000000    0.0000000000    0.0000000000
H      0.0000000000    0.0000000000    1.1070732462
O      1.0278769477    0.1402881570   -0.6492362509
$end

$rem
JOBTYPE  OPT
METHOD  B3LYP
BASIS  6-31+G(D)
SYMMETRY  FALSE
SYM_IGNORE  TRUE
MEM_TOTAL  8000
MEM_STATIC  2000
MAX_SUB_FILE_NUM  16000
BASIS_LIN_DEP_THRESH  6
THRESH  14
SCF_CONVERGENCE  9
GEN_SCFMAN  TRUE
SCF_GUESS  SAD
FD_MAT_VEC_PROD  FALSE
XC_GRID  000099000590
NL_GRID  1
MAX_SCF_CYCLES  200
GEOM_OPT_TOL_GRADIENT  100
GEOM_OPT_TOL_DISPLACEMENT  100
GEOM_OPT_TOL_ENERGY  10
SOLVENT_METHOD       PCM
$end

$PCM
THEORY                     CPCM
METHOD                     SWIG
SOLVER                     INVERSION
HPOINTS                    302
HEAVYPOINTS                302
$END

$SOLVENT
DIELECTRIC                 62.0
$END

--------------------------------------------------------------
 ----------------------------------------------------------------
             Standard Nuclear Orientation (Angstroms)
    I     Atom           X                Y                Z
 ----------------------------------------------------------------
    1      C      -2.4083508923     0.9984834764    -2.3662547437
    2      C      -1.5543120384    -0.2118403749    -1.9459885704
    3      C      -2.2384976761    -1.5367925874    -2.3261896725
    4      C      -2.5867463449    -1.5816552836    -3.8234193167
    5      C      -3.4377297730    -0.3731774783    -4.2445934317
    6      C      -2.7551397527     0.9499468362    -3.8636626912
    7      H      -1.5849547626    -2.3750094827    -2.0545927530
    8      H      -0.5831065672    -0.1532425547    -2.4485260558
    9      H      -3.3388117820     1.0024650072    -1.7759883684
   10      H      -1.8720534969     1.9234708349    -2.1213670712
   11      H      -1.6555784977    -1.5918293252    -4.4093866053
   12      H      -3.1102152921    -2.5181807775    -4.0551406051
   13      H      -3.6290653549    -0.4033428377    -5.3251377272
   14      H      -4.4201020066    -0.4306546907    -3.7508934023
   15      H      -1.8320207629     1.0648782183    -4.4511997179
   16      H      -3.3973970401     1.8010825553    -4.1242295555
   17      H      -3.1618885583    -1.6469527918    -1.7346449512
   18      N      -1.2474445251    -0.1731895513    -0.5151412109
   19      H      -2.0131265263    -0.2687147311     0.1418849346
   20      C       0.0000000000     0.0000000000     0.0000000000
   21      H       0.0000000000     0.0000000000     1.1070732462
   22      O       1.0278769477     0.1402881570    -0.6492362509
 ----------------------------------------------------------------
 Nuclear Repulsion Energy =         466.63298041 hartrees
 There are       35 alpha and       35 beta electrons
 Requested basis set is 6-31+G(d)
 There are 71 shells and 197 basis functions

 Total QAlloc Memory Limit   8000 MB
 Mega-Array Size      1956 MB
 MEM_STATIC part      2000 MB
 Discretize the solute cavity surface with Lebedev spheres
	Using 302 Lebedev grid points for each H atom
	Using 302 Lebedev grid points for other atoms
	Atomic van der Waals radii will be scaled by 1.20
 Remove points where switching function is < 1.0e-08
 Keep 2742 surface tesserae and discard 3902 interior tesserae
 Molecular Surface Area = 182.898 Angst**2
 A cutoff of  1.0D-14 yielded   2413 shell pairs
 There are     18998 function pairs
 Smallest overlap matrix eigenvalue = 2.48E-05

 Scale SEOQF with 1.000000e-01/1.000000e-01/1.000000e-02

 Standard Electronic Orientation quadrupole field applied
 Nucleus-field energy     =     0.0000000118 hartrees
 Guess from superposition of atomic densities
 Warning:  Energy on first SCF cycle will be non-variational
 SAD guess density has 70.000000 electrons

 -----------------------------------------------------------------------
  General SCF calculation program by
  Eric Jon Sundstrom, Paul Horn, Yuezhi Mao, Dmitri Zuev, Alec White,
  David Stuck, Shaama M.S., Shane Yost, Joonho Lee, David Small,
  Daniel Levine, Susi Lehtola, Hugh Burton, Evgeny Epifanovsky,
  Bang C. Huynh
 -----------------------------------------------------------------------
 Exchange:     0.2000 Hartree-Fock + 0.0800 Slater + 0.7200 B88
 Correlation:  0.1900 VWN1RPA + 0.8100 LYP
 Using Euler-Maclaurin-Lebedev (99,590) quadrature formula
 using 16 threads for integral computing
 -------------------------------------------------------
 OpenMP Integral computing Module                
 Release: version 2.0, May 2017, Q-Chem Inc. Pleasanton 
 -------------------------------------------------------
 A restricted SCF calculation will be
 performed using DIIS
 SCF converges when DIIS error is below 1.0e-09
 ---------------------------------------
  Cycle       Energy         DIIS error
 ---------------------------------------
    1    -406.2319617768      5.08e-02  
    2    -404.4127561557      6.38e-03  
    3    -404.1972097956      9.83e-03  
    4    -404.5862323809      1.95e-03  
    5    -404.6004350371      5.21e-04  
    6    -404.6014920680      1.49e-04  
    7    -404.6015774534      5.34e-05  
    8    -404.6015894133      9.54e-06  
    9    -404.6015897922      2.29e-06  
   10    -404.6015898146      5.00e-07  
   11    -404.6015898156      1.80e-07  
   12    -404.6015898158      2.27e-08  
   13    -404.6015898158      5.81e-09  
   14    -404.6015898158      2.79e-09  
   15    -404.6015898158      4.48e-10  Convergence criterion met
 ---------------------------------------
 SCF time:   CPU 991.38s  wall 66.00s 

************** Final PCM Free Energy Summary **************
 G_electrostatic  =      -0.01843754 hartree =     -11.56973273 kcal/mol
 G_cavitation     =       0.00000000 hartree =       0.00000000 kcal/mol
 G_dispersion     =       0.00000000 hartree =       0.00000000 kcal/mol
 G_repulsion      =       0.00000000 hartree =       0.00000000 kcal/mol
 --------------------------------------------------
 Non-electrostatic Free Energy =       0.00000000 hartree =       0.00000000 kcal/mol
 Total                         =      -0.01843754 hartree =     -11.56973273 kcal/mol
 --------------------------------------------------
 SCF Energy (H0 + V/2)                       =    -404.60158982 
 Solute Internal Energy (H0)                 =    -404.58315227 
 Total Free Energy (H0 + V/2 + non-elec)     =    -404.60158982 hartree
                                             = -253891.32959106 kcal/mol
***********************************************************

 SCF   energy in the final basis set =     -404.6015898158
 Total energy in the final basis set =     -404.6015898158
 
 --------------------------------------------------------------
 
                    Orbital Energies (a.u.)
 --------------------------------------------------------------
 
 Alpha MOs
 -- Occupied --
-19.1377 -14.3687 -10.2947 -10.2236 -10.1818 -10.1813 -10.1792 -10.1791
-10.1773  -1.0479  -0.9302  -0.8226  -0.7404  -0.7400  -0.6350  -0.6103
 -0.5908  -0.5626  -0.5247  -0.4833  -0.4605  -0.4412  -0.4373  -0.4213
 -0.4188  -0.3951  -0.3778  -0.3754  -0.3461  -0.3419  -0.3207  -0.3116
 -0.3091  -0.2731  -0.2595
 -- Virtual --
  0.0090   0.0093   0.0183   0.0239   0.0262   0.0413   0.0483   0.0496
  0.0597   0.0698   0.0704   0.0841   0.0874   0.0962   0.1004   0.1055
  0.1129   0.1175   0.1260   0.1343   0.1412   0.1528   0.1570   0.1620
  0.1707   0.1805   0.1833   0.1900   0.2000   0.2029   0.2115   0.2155
  0.2222   0.2270   0.2309   0.2454   0.2488   0.2566   0.2633   0.2707
  0.2776   0.2812   0.2898   0.2914   0.2956   0.3034   0.3118   0.3271
  0.3303   0.3326   0.3598   0.3733   0.3797   0.3878   0.4179   0.4201
  0.4397   0.4612   0.4892   0.6117   0.6402   0.6584   0.6679   0.6687
  0.6859   0.6991   0.7311   0.7337   0.7485   0.7520   0.7763   0.7820
  0.8033   0.8064   0.8232   0.8523   0.8622   0.9082   0.9541   0.9767
  0.9807   0.9939   1.0235   1.0278   1.0319   1.0570   1.0898   1.1059
  1.1196   1.1247   1.1287   1.1444   1.1630   1.1728   1.1816   1.1897
  1.2384   1.2449   1.2808   1.3239   1.3436   1.3695   1.3934   1.4197
  1.4795   1.4895   1.4923   1.5681   1.5729   1.6115   1.7001   1.7314
  1.7357   1.7539   1.7712   1.8040   1.8504   1.8686   1.9035   1.9085
  1.9133   1.9370   1.9852   2.0134   2.0198   2.0474   2.0570   2.0888
  2.0951   2.1301   2.2032   2.2227   2.2770   2.3113   2.3161   2.3509
  2.4025   2.4116   2.4208   2.4250   2.4520   2.5627   2.5882   2.6239
  2.6745   2.6849   2.7056   2.7632   2.7783   2.8352   2.8689   3.0054
  3.1844   4.0921   4.1941   4.2309   4.2964   4.3347   4.4157   4.6050
  4.6100   4.6754
 --------------------------------------------------------------
 
          Ground-State Mulliken Net Atomic Charges

     Atom                 Charge (a.u.)
  ----------------------------------------
      1 C                    -0.277097
      2 C                    -0.410683
      3 C                    -0.298929
      4 C                    -0.450086
      5 C                    -0.381890
      6 C                    -0.453508
      7 H                     0.210172
      8 H                     0.224883
      9 H                     0.213600
     10 H                     0.209112
     11 H                     0.206930
     12 H                     0.202918
     13 H                     0.199171
     14 H                     0.202956
     15 H                     0.206841
     16 H                     0.202846
     17 H                     0.213703
     18 N                    -0.400577
     19 H                     0.451018
     20 C                     0.345590
     21 H                     0.182813
     22 O                    -0.599783
  ----------------------------------------
  Sum of atomic charges =     0.000000

 -----------------------------------------------------------------
                    Cartesian Multipole Moments
 -----------------------------------------------------------------
    Charge (ESU x 10^10)
                 0.0000
    Dipole Moment (Debye)
         X      -5.6075      Y      -0.7431      Z       0.7123
       Tot       5.7012
    Quadrupole Moments (Debye-Ang)
        XX     -53.5952     XY       0.4073     YY     -56.9787
        XZ       4.7579     YZ       0.6584     ZZ     -52.2189
    Octopole Moments (Debye-Ang^2)
       XXX     277.4289    XXY       8.7427    XYY      99.7023
       YYY      35.2161    XXZ     124.6973    XYZ      -0.3968
       YYZ     127.7297    XZZ      89.6035    YZZ      10.2539
       ZZZ     373.7473
    Hexadecapole Moments (Debye-Ang^3)
      XXXX   -1738.2685   XXXY     -83.6207   XXYY    -360.8764
      XYYY     -87.8072   YYYY    -403.0098   XXXZ    -962.6715
      XXYZ     -35.6257   XYYZ    -321.5315   YYYZ    -109.8510
      XXZZ    -720.2131   XYZZ     -27.3474   YYZZ    -507.5905
      XZZZ    -953.8526   YZZZ    -107.2330   ZZZZ   -2596.4214
 -----------------------------------------------------------------
 Calculating analytic gradient of the SCF energy
 Gradient of SCF Energy
            1           2           3           4           5           6
    1   0.0080434  -0.0005143   0.0077626  -0.0022776   0.0075862  -0.0015248
    2  -0.0034497   0.0000292   0.0051981   0.0046528   0.0005494  -0.0044931
    3  -0.0065184  -0.0019124  -0.0074048   0.0045177   0.0011740   0.0043332
            7           8           9          10          11          12
    1   0.0003056  -0.0022441  -0.0059935  -0.0002500   0.0014515  -0.0015901
    2  -0.0016202  -0.0002457  -0.0000568   0.0010406  -0.0001185  -0.0025209
    3   0.0009565   0.0009159   0.0035547   0.0007406  -0.0008933  -0.0006585
           13          14          15          16          17          18
    1  -0.0007585  -0.0037246   0.0012354  -0.0018193  -0.0062194  -0.0003052
    2  -0.0001165  -0.0002468   0.0002199   0.0020690  -0.0007920  -0.0003757
    3  -0.0021704   0.0019262  -0.0008668  -0.0007124   0.0037816  -0.0096686
           19          20          21          22
    1  -0.0116644   0.0328557  -0.0035977  -0.0167568
    2  -0.0014484   0.0045061  -0.0005005  -0.0022804
    3   0.0082553  -0.0166205   0.0068429   0.0104275
 Max gradient component =       3.286E-02
 RMS gradient           =       6.399E-03
 Computing fast CPCM-SWIG gradient
 Updating gradient with PCM contributions...
 -- total gradient after adding PCM contribution --
---------------------------------------------------
  Atom         X              Y              Z     
---------------------------------------------------
   1       0.001278      -0.000239      -0.000853
   2       0.000139       0.000067       0.000979
   3       0.001293       0.000595      -0.000771
   4      -0.000588      -0.000097       0.000291
   5       0.000488       0.000076      -0.000132
   6      -0.000533      -0.000079       0.000266
   7      -0.000314       0.000295       0.000257
   8       0.000774       0.000191       0.001380
   9      -0.000793       0.000517       0.000084
  10      -0.000264      -0.000437       0.000264
  11      -0.000168      -0.000286       0.000163
  12       0.000230       0.000040      -0.000337
  13      -0.000273      -0.000024       0.000257
  14      -0.000281      -0.000025      -0.000280
  15      -0.000218       0.000292       0.000144
  16       0.000236      -0.000033      -0.000322
  17      -0.000795      -0.000659       0.000077
  18      -0.010751      -0.001562      -0.002645
  19       0.000643       0.000040      -0.001377
  20       0.027466       0.003776      -0.009704
  21      -0.000137      -0.000038       0.002364
  22      -0.017433      -0.002411       0.009896
---------------------------------------------------
 Number of fixed atoms: 0
 Gradient time:  CPU 129.30 s  wall 13.96 s
 Geometry Optimization Parameters
   NAtoms,    NIC,     NZ,  NCons,   NDum,   NFix, NCnnct, MaxDiis
       22     172       0       0       0       0       0       0


** GEOMETRY OPTIMIZATION IN DELOCALIZED INTERNAL COORDINATES **
   Searching for a Minimum

   Optimization Cycle:   1

                       Coordinates (Angstroms)
     ATOM                X               Y               Z
      1  C        -2.4083508923    0.9984834764   -2.3662547437
      2  C        -1.5543120384   -0.2118403749   -1.9459885704
      3  C        -2.2384976761   -1.5367925874   -2.3261896725
      4  C        -2.5867463449   -1.5816552836   -3.8234193167
      5  C        -3.4377297730   -0.3731774783   -4.2445934317
      6  C        -2.7551397527    0.9499468362   -3.8636626912
      7  H        -1.5849547626   -2.3750094827   -2.0545927530
      8  H        -0.5831065672   -0.1532425547   -2.4485260558
      9  H        -3.3388117820    1.0024650072   -1.7759883684
     10  H        -1.8720534969    1.9234708349   -2.1213670712
     11  H        -1.6555784977   -1.5918293252   -4.4093866053
     12  H        -3.1102152921   -2.5181807775   -4.0551406051
     13  H        -3.6290653549   -0.4033428377   -5.3251377272
     14  H        -4.4201020066   -0.4306546907   -3.7508934023
     15  H        -1.8320207629    1.0648782183   -4.4511997179
     16  H        -3.3973970401    1.8010825553   -4.1242295555
     17  H        -3.1618885583   -1.6469527918   -1.7346449512
     18  N        -1.2474445251   -0.1731895513   -0.5151412109
     19  H        -2.0131265263   -0.2687147311    0.1418849346
     20  C         0.0000000000    0.0000000000    0.0000000000
     21  H         0.0000000000    0.0000000000    1.1070732462
     22  O         1.0278769477    0.1402881570   -0.6492362509
   Point Group: c1    Number of degrees of freedom:    60


   Energy is   -404.601589816


 Attempting to generate delocalized internal coordinates
 Initial Hessian constructed with Jon Baker's OPTIMIZE code

 60 Hessian modes will be used to form the next step
  Hessian Eigenvalues:
     0.005967    0.006024    0.006964    0.007193    0.012605    0.019501
     0.019786    0.020845    0.020845    0.037215    0.038526    0.039417
     0.041724    0.048166    0.048450    0.048891    0.055292    0.055631
     0.055746    0.059934    0.066958    0.081508    0.081536    0.081616
     0.082032    0.082133    0.084029    0.087513    0.120967    0.121178
     0.142989    0.159989    0.160000    0.160554    0.174868    0.210947
     0.220000    0.220003    0.272263    0.272658    0.275535    0.286789
     0.287121    0.287175    0.329119    0.334466    0.334727    0.335769
     0.336541    0.336553    0.339301    0.339441    0.339454    0.340119
     0.340274    0.342312    0.364811    0.454000    0.528079    0.937134

 Minimum search - taking simple RFO step
 Searching for Lamda that Minimizes Along All modes
 Value Taken    Lamda =  -0.00085861
 Step Taken.  Stepsize is  0.058562

                             Maximum     Tolerance    Cnvgd?
         Gradient           0.011690      0.000100      NO
         Displacement       0.026461      0.000100      NO
         Energy change     *********      0.000000      NO


 New Cartesian Coordinates Obtained by Inverse Iteration

 Displacement from previous Coordinates is:  0.148048
 ----------------------------------------------------------------
             Standard Nuclear Orientation (Angstroms)
    I     Atom           X                Y                Z
 ----------------------------------------------------------------
    1      C      -2.4000264075     0.9977968343    -2.3699287734
    2      C      -1.5427803434    -0.2122800117    -1.9568699832
    3      C      -2.2313168154    -1.5365350932    -2.3301671447
    4      C      -2.5892384432    -1.5811828649    -3.8249634349
    5      C      -3.4438431350    -0.3731969413    -4.2388382682
    6      C      -2.7562999315     0.9489560053    -3.8648686337
    7      H      -1.5765048281    -2.3764012604    -2.0646024820
    8      H      -0.5784416387    -0.1556123306    -2.4724694739
    9      H      -3.3236416808     0.9971513875    -1.7710702848
   10      H      -1.8623812624     1.9242981381    -2.1307321117
   11      H      -1.6627120744    -1.5903176053    -4.4189183361
   12      H      -3.1160674531    -2.5175832303    -4.0500154576
   13      H      -3.6438550686    -0.4035975990    -5.3181278380
   14      H      -4.4203134998    -0.4296561365    -3.7338856113
   15      H      -1.8372996539     1.0608841302    -4.4600665066
   16      H      -3.4008117500     1.8005936225    -4.1187111525
   17      H      -3.1481606036    -1.6402052013    -1.7296057470
   18      N      -1.2412596486    -0.1734601576    -0.5226960976
   19      H      -2.0131978057    -0.2694959429     0.1294007402
   20      C      -0.0134054696     0.0001998165     0.0120971141
   21      H      -0.0367135432    -0.0009539328     1.1151332589
   22      O       1.0396063539     0.1466309916    -0.6167282962
 ----------------------------------------------------------------
 Nuclear Repulsion Energy =         466.41179402 hartrees
 There are       35 alpha and       35 beta electrons
 Discretize the solute cavity surface with Lebedev spheres
	Using 302 Lebedev grid points for each H atom
	Using 302 Lebedev grid points for other atoms
	Atomic van der Waals radii will be scaled by 1.20
 Remove points where switching function is < 1.0e-08
 Keep 2739 surface tesserae and discard 3905 interior tesserae
 Molecular Surface Area = 183.071 Angst**2
 Applying Cartesian multipole field
    Component          Value
    ---------          -----
     (2,0,0)        1.00000E-11
     (0,2,0)        2.00000E-11
     (0,0,2)       -3.00000E-12
 Nucleus-field energy     =     0.0000000118 hartrees
 Requested basis set is 6-31+G(d)
 There are 71 shells and 197 basis functions
 A cutoff of  1.0D-14 yielded   2411 shell pairs
 There are     18991 function pairs
 Smallest overlap matrix eigenvalue = 2.45E-05
 Guess MOs from SCF MO coefficient file

 -----------------------------------------------------------------------
  General SCF calculation program by
  Eric Jon Sundstrom, Paul Horn, Yuezhi Mao, Dmitri Zuev, Alec White,
  David Stuck, Shaama M.S., Shane Yost, Joonho Lee, David Small,
  Daniel Levine, Susi Lehtola, Hugh Burton, Evgeny Epifanovsky,
  Bang C. Huynh
 -----------------------------------------------------------------------
 Exchange:     0.2000 Hartree-Fock + 0.0800 Slater + 0.7200 B88
 Correlation:  0.1900 VWN1RPA + 0.8100 LYP
 Using Euler-Maclaurin-Lebedev (99,590) quadrature formula
 using 16 threads for integral computing
 -------------------------------------------------------
 OpenMP Integral computing Module                
 Release: version 2.0, May 2017, Q-Chem Inc. Pleasanton 
 -------------------------------------------------------
 A restricted SCF calculation will be
 performed using Roothaan-Hall, DIIS
 SCF converges when DIIS error is below 1.0e-09
 ---------------------------------------
  Cycle       Energy         DIIS error
 ---------------------------------------
    1    -404.5822461632      6.74e-04  Roothaan Step
 ---------------------------------------
  Cycle       Energy         DIIS error
 ---------------------------------------
    1    -404.5901546002      1.31e-03  
    2    -404.5715706411      2.83e-03  
    3    -404.6018745054      2.26e-04  
    4    -404.6020530789      1.32e-04  
    5    -404.6021210539      3.68e-05  
    6    -404.6021266929      9.78e-06  
    7    -404.6021270635      3.33e-06  
    8    -404.6021271170      6.20e-07  
    9    -404.6021271186      2.61e-07  
   10    -404.6021271190      4.42e-08  
   11    -404.6021271190      1.21e-08  
   12    -404.6021271190      3.30e-09  
   13    -404.6021271190      3.94e-10  Convergence criterion met
 ---------------------------------------
 SCF time:   CPU 930.79s  wall 62.00s 

************** Final PCM Free Energy Summary **************
 G_electrostatic  =      -0.01960017 hartree =     -12.29929424 kcal/mol
 G_cavitation     =       0.00000000 hartree =       0.00000000 kcal/mol
 G_dispersion     =       0.00000000 hartree =       0.00000000 kcal/mol
 G_repulsion      =       0.00000000 hartree =       0.00000000 kcal/mol
 --------------------------------------------------
 Non-electrostatic Free Energy =       0.00000000 hartree =       0.00000000 kcal/mol
 Total                         =      -0.01960017 hartree =     -12.29929424 kcal/mol
 --------------------------------------------------
 SCF Energy (H0 + V/2)                       =    -404.60212712 
 Solute Internal Energy (H0)                 =    -404.58252695 
 Total Free Energy (H0 + V/2 + non-elec)     =    -404.60212712 hartree
                                             = -253891.66675390 kcal/mol
***********************************************************

 SCF   energy in the final basis set =     -404.6021271190
 Total energy in the final basis set =     -404.6021271190
 
 --------------------------------------------------------------
 
                    Orbital Energies (a.u.)
 --------------------------------------------------------------
 
 Alpha MOs
 -- Occupied --
-19.1361 -14.3708 -10.2942 -10.2248 -10.1821 -10.1817 -10.1794 -10.1793
-10.1773  -1.0417  -0.9322  -0.8237  -0.7420  -0.7404  -0.6361  -0.6106
 -0.5912  -0.5628  -0.5256  -0.4835  -0.4608  -0.4414  -0.4372  -0.4201
 -0.4183  -0.3952  -0.3780  -0.3742  -0.3467  -0.3426  -0.3212  -0.3114
 -0.3091  -0.2720  -0.2605
 -- Virtual --
  0.0088   0.0088   0.0179   0.0237   0.0262   0.0416   0.0481   0.0495
  0.0598   0.0700   0.0705   0.0840   0.0872   0.0958   0.1005   0.1054
  0.1128   0.1174   0.1261   0.1343   0.1409   0.1526   0.1570   0.1616
  0.1705   0.1805   0.1836   0.1898   0.1997   0.2028   0.2115   0.2144
  0.2217   0.2270   0.2306   0.2450   0.2486   0.2569   0.2640   0.2705
  0.2770   0.2818   0.2893   0.2909   0.2957   0.3027   0.3112   0.3264
  0.3304   0.3322   0.3597   0.3733   0.3832   0.3876   0.4179   0.4206
  0.4396   0.4611   0.4854   0.6108   0.6400   0.6571   0.6676   0.6680
  0.6848   0.6985   0.7310   0.7337   0.7481   0.7520   0.7763   0.7799
  0.8018   0.8063   0.8224   0.8520   0.8634   0.9118   0.9551   0.9758
  0.9803   0.9940   1.0236   1.0283   1.0314   1.0581   1.0898   1.1051
  1.1193   1.1245   1.1284   1.1435   1.1625   1.1730   1.1824   1.1912
  1.2395   1.2445   1.2818   1.3243   1.3443   1.3738   1.3911   1.4197
  1.4800   1.4884   1.4940   1.5676   1.5740   1.6132   1.6920   1.7331
  1.7349   1.7545   1.7711   1.8054   1.8525   1.8698   1.9035   1.9085
  1.9124   1.9393   1.9843   2.0110   2.0200   2.0455   2.0572   2.0861
  2.0941   2.1283   2.2019   2.2183   2.2769   2.3135   2.3156   2.3493
  2.3988   2.4111   2.4208   2.4253   2.4501   2.5625   2.5855   2.6214
  2.6741   2.6849   2.7044   2.7635   2.7797   2.8344   2.8656   2.9954
  3.1848   4.0935   4.1937   4.2292   4.2965   4.3343   4.4154   4.6048
  4.6114   4.6753
 --------------------------------------------------------------
 
          Ground-State Mulliken Net Atomic Charges

     Atom                 Charge (a.u.)
  ----------------------------------------
      1 C                    -0.271651
      2 C                    -0.425964
      3 C                    -0.291845
      4 C                    -0.452161
      5 C                    -0.381186
      6 C                    -0.455794
      7 H                     0.210789
      8 H                     0.226381
      9 H                     0.214464
     10 H                     0.209691
     11 H                     0.207346
     12 H                     0.203185
     13 H                     0.199182
     14 H                     0.203103
     15 H                     0.207233
     16 H                     0.203094
     17 H                     0.214468
     18 N                    -0.388454
     19 H                     0.452615
     20 C                     0.346904
     21 H                     0.183803
     22 O                    -0.615204
  ----------------------------------------
  Sum of atomic charges =     0.000000

 -----------------------------------------------------------------
                    Cartesian Multipole Moments
 -----------------------------------------------------------------
    Charge (ESU x 10^10)
                 0.0000
    Dipole Moment (Debye)
         X      -5.8501      Y      -0.7848      Z       0.5947
       Tot       5.9324
    Quadrupole Moments (Debye-Ang)
        XX     -53.5516     XY       0.3917     YY     -56.9532
        XZ       4.8171     YZ       0.6838     ZZ     -51.8813
    Octopole Moments (Debye-Ang^2)
       XXX     276.2150    XXY       8.6435    XYY      99.3451
       YYY      35.0445    XXZ     124.2751    XYZ      -0.4233
       YYZ     127.5271    XZZ      89.1826    YZZ      10.1531
       ZZZ     372.3585
    Hexadecapole Moments (Debye-Ang^3)
      XXXX   -1736.0497   XXXY     -83.8344   XXYY    -360.3293
      XYYY     -87.9835   YYYY    -402.3373   XXXZ    -962.6614
      XXYZ     -35.6633   XYYZ    -321.4667   YYYZ    -109.9497
      XXZZ    -719.6861   XYZZ     -27.3753   YYZZ    -507.3900
      XZZZ    -953.2711   YZZZ    -107.1354   ZZZZ   -2592.5692
 -----------------------------------------------------------------
 Calculating analytic gradient of the SCF energy
 Gradient of SCF Energy
            1           2           3           4           5           6
    1   0.0072488  -0.0004141   0.0069023  -0.0018819   0.0076933  -0.0011320
    2  -0.0038042  -0.0000281   0.0053098   0.0051081   0.0005211  -0.0048032
    3  -0.0062887  -0.0023629  -0.0072718   0.0045520   0.0014681   0.0044116
            7           8           9          10          11          12
    1   0.0006808  -0.0029940  -0.0054704   0.0000339   0.0018049  -0.0019205
    2  -0.0020874  -0.0004280  -0.0005888   0.0016205   0.0001576  -0.0026647
    3   0.0007668  -0.0010303   0.0037923   0.0005248  -0.0012729  -0.0003444
           13          14          15          16          17          18
    1  -0.0005542  -0.0036355   0.0016235  -0.0021618  -0.0056881   0.0054243
    2  -0.0000943  -0.0002292  -0.0000445   0.0021914  -0.0001223   0.0005514
    3  -0.0025636   0.0023428  -0.0012125  -0.0004164   0.0040538  -0.0076160
           19          20          21          22
    1  -0.0123442   0.0157954  -0.0046553  -0.0043552
    2  -0.0014525   0.0019516  -0.0005724  -0.0004921
    3   0.0099788  -0.0095418   0.0047775   0.0032529
 Max gradient component =       1.580E-02
 RMS gradient           =       4.480E-03
 Computing fast CPCM-SWIG gradient
 Updating gradient with PCM contributions...
 -- total gradient after adding PCM contribution --
---------------------------------------------------
  Atom         X              Y              Z     
---------------------------------------------------
   1       0.000182      -0.000385      -0.000294
   2       0.000637       0.000033       0.000531
   3       0.000186       0.000440      -0.000296
   4      -0.000061       0.000123       0.000100
   5       0.000284       0.000035       0.000168
   6      -0.000030      -0.000169       0.000118
   7      -0.000025      -0.000045       0.000055
   8      -0.000059       0.000016      -0.000418
   9      -0.000076       0.000063       0.000084
  10      -0.000019       0.000037       0.000045
  11       0.000035      -0.000037      -0.000109
  12      -0.000013       0.000007      -0.000045
  13      -0.000053       0.000000      -0.000018
  14      -0.000081      -0.000003      -0.000022
  15       0.000028       0.000046      -0.000103
  16      -0.000013      -0.000003      -0.000044
  17      -0.000064      -0.000054       0.000093
  18      -0.005223      -0.000634      -0.000548
  19       0.000389       0.000077       0.000170
  20       0.009957       0.001147      -0.002587
  21      -0.000916      -0.000071       0.000331
  22      -0.005067      -0.000621       0.002790
---------------------------------------------------
 Number of fixed atoms: 0
 Gradient time:  CPU 127.84 s  wall 12.11 s
 Geometry Optimization Parameters
   NAtoms,    NIC,     NZ,  NCons,   NDum,   NFix, NCnnct, MaxDiis
       22     172       0       0       0       0       0       0

 Cartesian Hessian Update
 Hessian updated using BFGS update


** GEOMETRY OPTIMIZATION IN DELOCALIZED INTERNAL COORDINATES **
   Searching for a Minimum

   Optimization Cycle:   2

                       Coordinates (Angstroms)
     ATOM                X               Y               Z
      1  C        -2.4000264075    0.9977968343   -2.3699287734
      2  C        -1.5427803434   -0.2122800117   -1.9568699832
      3  C        -2.2313168154   -1.5365350932   -2.3301671447
      4  C        -2.5892384432   -1.5811828649   -3.8249634349
      5  C        -3.4438431350   -0.3731969413   -4.2388382682
      6  C        -2.7562999315    0.9489560053   -3.8648686337
      7  H        -1.5765048281   -2.3764012604   -2.0646024820
      8  H        -0.5784416387   -0.1556123306   -2.4724694739
      9  H        -3.3236416808    0.9971513875   -1.7710702848
     10  H        -1.8623812624    1.9242981381   -2.1307321117
     11  H        -1.6627120744   -1.5903176053   -4.4189183361
     12  H        -3.1160674531   -2.5175832303   -4.0500154576
     13  H        -3.6438550686   -0.4035975990   -5.3181278380
     14  H        -4.4203134998   -0.4296561365   -3.7338856113
     15  H        -1.8372996539    1.0608841302   -4.4600665066
     16  H        -3.4008117500    1.8005936225   -4.1187111525
     17  H        -3.1481606036   -1.6402052013   -1.7296057470
     18  N        -1.2412596486   -0.1734601576   -0.5226960976
     19  H        -2.0131978057   -0.2694959429    0.1294007402
     20  C        -0.0134054696    0.0001998165    0.0120971141
     21  H        -0.0367135432   -0.0009539328    1.1151332589
     22  O         1.0396063539    0.1466309916   -0.6167282962
   Point Group: c1    Number of degrees of freedom:    60


   Energy is   -404.602127119

 Hessian updated using BFGS update

 60 Hessian modes will be used to form the next step
  Hessian Eigenvalues:
     0.005967    0.006022    0.006969    0.007190    0.012603    0.019501
     0.019753    0.020845    0.020863    0.037223    0.038602    0.039416
     0.042016    0.048450    0.048838    0.048939    0.055294    0.055729
     0.056352    0.060782    0.066958    0.081529    0.081578    0.081670
     0.082047    0.082134    0.084063    0.087513    0.120967    0.121205
     0.142977    0.155101    0.160111    0.164902    0.174875    0.207573
     0.211291    0.223892    0.272347    0.272726    0.275535    0.286912
     0.287117    0.287652    0.328430    0.334371    0.334664    0.335757
     0.336546    0.336784    0.339333    0.339446    0.339463    0.340166
     0.340493    0.342312    0.365600    0.444909    0.457355    0.815608

 Minimum search - taking simple RFO step
 Searching for Lamda that Minimizes Along All modes
 Value Taken    Lamda =  -0.00014315
 Step Taken.  Stepsize is  0.028077

                             Maximum     Tolerance    Cnvgd?
         Gradient           0.004487      0.000100      NO
         Displacement       0.015624      0.000100      NO
         Energy change     -0.000537      0.000000      NO


 New Cartesian Coordinates Obtained by Inverse Iteration

 Displacement from previous Coordinates is:  0.037005
 ----------------------------------------------------------------
             Standard Nuclear Orientation (Angstroms)
    I     Atom           X                Y                Z
 ----------------------------------------------------------------
    1      C      -2.3980805370     0.9985889375    -2.3707869134
    2      C      -1.5401116565    -0.2123590326    -1.9600611622
    3      C      -2.2298624095    -1.5373694898    -2.3308772547
    4      C      -2.5906473770    -1.5817197700    -3.8250405365
    5      C      -3.4459215253    -0.3732058313    -4.2377712120
    6      C      -2.7572164665     0.9493170353    -3.8651215201
    7      H      -1.5743089710    -2.3771299382    -2.0669257512
    8      H      -0.5749978561    -0.1560269004    -2.4735817662
    9      H      -3.3202339645     0.9971402309    -1.7702746093
   10      H      -1.8595533772     1.9249358360    -2.1330259383
   11      H      -1.6648564894    -1.5904595940    -4.4198515244
   12      H      -3.1177009233    -2.5182916967    -4.0487906199
   13      H      -3.6473219453    -0.4037481813    -5.3167667278
   14      H      -4.4211441144    -0.4293130061    -3.7306952660
   15      H      -1.8388412308     1.0601765146    -4.4612151986
   16      H      -3.4015858257     1.8013994714    -4.1177309392
   17      H      -3.1453718745    -1.6398826481    -1.7286843878
   18      N      -1.2376630812    -0.1732629378    -0.5258559017
   19      H      -2.0137456380    -0.2717446607     0.1216152088
   20      C      -0.0198592824     0.0026369067     0.0159233180
   21      H      -0.0413973279    -0.0020318647     1.1179299376
   22      O       1.0417571710     0.1483832376    -0.6090457551
 ----------------------------------------------------------------
 Nuclear Repulsion Energy =         466.34093188 hartrees
 There are       35 alpha and       35 beta electrons
 Discretize the solute cavity surface with Lebedev spheres
	Using 302 Lebedev grid points for each H atom
	Using 302 Lebedev grid points for other atoms
	Atomic van der Waals radii will be scaled by 1.20
 Remove points where switching function is < 1.0e-08
 Keep 2734 surface tesserae and discard 3910 interior tesserae
 Molecular Surface Area = 183.114 Angst**2
 Applying Cartesian multipole field
    Component          Value
    ---------          -----
     (2,0,0)        1.00000E-11
     (0,2,0)        2.00000E-11
     (0,0,2)       -3.00000E-12
 Nucleus-field energy     =     0.0000000118 hartrees
 Requested basis set is 6-31+G(d)
 There are 71 shells and 197 basis functions
 A cutoff of  1.0D-14 yielded   2409 shell pairs
 There are     18981 function pairs
 Smallest overlap matrix eigenvalue = 2.45E-05
 Guess MOs from SCF MO coefficient file

 -----------------------------------------------------------------------
  General SCF calculation program by
  Eric Jon Sundstrom, Paul Horn, Yuezhi Mao, Dmitri Zuev, Alec White,
  David Stuck, Shaama M.S., Shane Yost, Joonho Lee, David Small,
  Daniel Levine, Susi Lehtola, Hugh Burton, Evgeny Epifanovsky,
  Bang C. Huynh
 -----------------------------------------------------------------------
 Exchange:     0.2000 Hartree-Fock + 0.0800 Slater + 0.7200 B88
 Correlation:  0.1900 VWN1RPA + 0.8100 LYP
 Using Euler-Maclaurin-Lebedev (99,590) quadrature formula
 using 16 threads for integral computing
 -------------------------------------------------------
 OpenMP Integral computing Module                
 Release: version 2.0, May 2017, Q-Chem Inc. Pleasanton 
 -------------------------------------------------------
 A restricted SCF calculation will be
 performed using Roothaan-Hall, DIIS
 SCF converges when DIIS error is below 1.0e-09
 ---------------------------------------
  Cycle       Energy         DIIS error
 ---------------------------------------
    1    -404.5822640098      6.19e-04  Roothaan Step
 ---------------------------------------
  Cycle       Energy         DIIS error
 ---------------------------------------
    1    -404.5899699515      1.32e-03  
    2    -404.5711528150      2.85e-03  
    3    -404.6019400229      2.26e-04  
    4    -404.6021280626      1.28e-04  
    5    -404.6021907270      3.80e-05  
    6    -404.6021967109      9.77e-06  
    7    -404.6021970776      3.37e-06  
    8    -404.6021971322      6.19e-07  
    9    -404.6021971339      2.62e-07  
   10    -404.6021971342      4.65e-08  
   11    -404.6021971342      1.21e-08  
   12    -404.6021971342      3.41e-09  
   13    -404.6021971342      4.01e-10  Convergence criterion met
 ---------------------------------------
 SCF time:   CPU 953.04s  wall 64.00s 

************** Final PCM Free Energy Summary **************
 G_electrostatic  =      -0.02010645 hartree =     -12.61698911 kcal/mol
 G_cavitation     =       0.00000000 hartree =       0.00000000 kcal/mol
 G_dispersion     =       0.00000000 hartree =       0.00000000 kcal/mol
 G_repulsion      =       0.00000000 hartree =       0.00000000 kcal/mol
 --------------------------------------------------
 Non-electrostatic Free Energy =       0.00000000 hartree =       0.00000000 kcal/mol
 Total                         =      -0.02010645 hartree =     -12.61698911 kcal/mol
 --------------------------------------------------
 SCF Energy (H0 + V/2)                       =    -404.60219713 
 Solute Internal Energy (H0)                 =    -404.58209068 
 Total Free Energy (H0 + V/2 + non-elec)     =    -404.60219713 hartree
                                             = -253891.71068911 kcal/mol
***********************************************************

 SCF   energy in the final basis set =     -404.6021971342
 Total energy in the final basis set =     -404.6021971342
 
 --------------------------------------------------------------
 
                    Orbital Energies (a.u.)
 --------------------------------------------------------------
 
 Alpha MOs
 -- Occupied --
-19.1350 -14.3717 -10.2939 -10.2253 -10.1824 -10.1820 -10.1796 -10.1794
-10.1774  -1.0391  -0.9332  -0.8240  -0.7426  -0.7406  -0.6368  -0.6107
 -0.5916  -0.5630  -0.5262  -0.4837  -0.4607  -0.4417  -0.4372  -0.4193
 -0.4179  -0.3952  -0.3782  -0.3736  -0.3471  -0.3428  -0.3213  -0.3116
 -0.3091  -0.2712  -0.2608
 -- Virtual --
  0.0086   0.0088   0.0179   0.0236   0.0262   0.0416   0.0480   0.0495
  0.0598   0.0700   0.0705   0.0840   0.0871   0.0957   0.1005   0.1054
  0.1128   0.1173   0.1262   0.1343   0.1409   0.1524   0.1570   0.1615
  0.1703   0.1801   0.1837   0.1898   0.1997   0.2029   0.2111   0.2141
  0.2216   0.2268   0.2306   0.2447   0.2484   0.2567   0.2642   0.2705
  0.2768   0.2816   0.2891   0.2907   0.2957   0.3027   0.3108   0.3262
  0.3305   0.3322   0.3595   0.3732   0.3846   0.3877   0.4177   0.4215
  0.4397   0.4609   0.4836   0.6103   0.6401   0.6566   0.6676   0.6681
  0.6845   0.6982   0.7309   0.7337   0.7481   0.7520   0.7760   0.7792
  0.8012   0.8060   0.8217   0.8520   0.8640   0.9126   0.9545   0.9758
  0.9803   0.9940   1.0235   1.0284   1.0310   1.0584   1.0903   1.1049
  1.1192   1.1244   1.1283   1.1430   1.1624   1.1728   1.1822   1.1910
  1.2398   1.2449   1.2820   1.3250   1.3445   1.3740   1.3905   1.4189
  1.4795   1.4882   1.4949   1.5670   1.5744   1.6150   1.6917   1.7330
  1.7342   1.7551   1.7708   1.8058   1.8528   1.8706   1.9031   1.9078
  1.9122   1.9392   1.9835   2.0109   2.0202   2.0452   2.0576   2.0851
  2.0936   2.1286   2.2010   2.2165   2.2780   2.3143   2.3162   2.3481
  2.3967   2.4101   2.4199   2.4252   2.4492   2.5612   2.5851   2.6201
  2.6734   2.6844   2.7052   2.7630   2.7817   2.8339   2.8628   2.9912
  3.1865   4.0943   4.1932   4.2284   4.2965   4.3340   4.4144   4.6045
  4.6112   4.6747
 --------------------------------------------------------------
 
          Ground-State Mulliken Net Atomic Charges

     Atom                 Charge (a.u.)
  ----------------------------------------
      1 C                    -0.269341
      2 C                    -0.430100
      3 C                    -0.290482
      4 C                    -0.452770
      5 C                    -0.381066
      6 C                    -0.456651
      7 H                     0.211198
      8 H                     0.226684
      9 H                     0.214841
     10 H                     0.210039
     11 H                     0.207511
     12 H                     0.203358
     13 H                     0.199307
     14 H                     0.203189
     15 H                     0.207382
     16 H                     0.203250
     17 H                     0.214851
     18 N                    -0.383172
     19 H                     0.452963
     20 C                     0.346403
     21 H                     0.185114
     22 O                    -0.622507
  ----------------------------------------
  Sum of atomic charges =     0.000000

 -----------------------------------------------------------------
                    Cartesian Multipole Moments
 -----------------------------------------------------------------
    Charge (ESU x 10^10)
                -0.0000
    Dipole Moment (Debye)
         X      -5.9553      Y      -0.8037      Z       0.5614
       Tot       6.0355
    Quadrupole Moments (Debye-Ang)
        XX     -53.4969     XY       0.3986     YY     -56.9132
        XZ       4.9062     YZ       0.6981     ZZ     -51.7744
    Octopole Moments (Debye-Ang^2)
       XXX     275.6894    XXY       8.5593    XYY      99.1522
       YYY      34.9109    XXZ     123.9912    XYZ      -0.4468
       YYZ     127.3986    XZZ      88.9367    YZZ      10.0868
       ZZZ     371.9559
    Hexadecapole Moments (Debye-Ang^3)
      XXXX   -1735.0693   XXXY     -83.8098   XXYY    -360.0560
      XYYY     -87.9699   YYYY    -402.2570   XXXZ    -962.1494
      XXYZ     -35.6013   XYYZ    -321.2675   YYYZ    -109.8659
      XXZZ    -719.0182   XYZZ     -27.3304   YYZZ    -507.1087
      XZZZ    -952.6339   YZZZ    -107.0137   ZZZZ   -2591.0948
 -----------------------------------------------------------------
 Calculating analytic gradient of the SCF energy
 Gradient of SCF Energy
            1           2           3           4           5           6
    1   0.0070839  -0.0010770   0.0066991  -0.0018721   0.0075421  -0.0011559
    2  -0.0034788  -0.0001022   0.0049170   0.0050140   0.0004915  -0.0046591
    3  -0.0061547  -0.0026109  -0.0072334   0.0045694   0.0012878   0.0044066
            7           8           9          10          11          12
    1   0.0007622  -0.0029766  -0.0054428   0.0000848   0.0018182  -0.0019462
    2  -0.0021609  -0.0004380  -0.0006743   0.0017036   0.0002163  -0.0027617
    3   0.0007340  -0.0005545   0.0037466   0.0004937  -0.0011747  -0.0002782
           13          14          15          16          17          18
    1  -0.0005131  -0.0035904   0.0016439  -0.0021907  -0.0056838   0.0108852
    2  -0.0000947  -0.0002255  -0.0001101   0.0022765  -0.0000532   0.0011052
    3  -0.0026285   0.0024308  -0.0011192  -0.0003537   0.0040095  -0.0075183
           19          20          21          22
    1  -0.0127768   0.0060536  -0.0039231   0.0005755
    2  -0.0016008   0.0016783  -0.0008352  -0.0002079
    3   0.0099465  -0.0068880   0.0044534   0.0004357
 Max gradient component =       1.278E-02
 RMS gradient           =       4.104E-03
 Computing fast CPCM-SWIG gradient
 Updating gradient with PCM contributions...
 -- total gradient after adding PCM contribution --
---------------------------------------------------
  Atom         X              Y              Z     
---------------------------------------------------
   1      -0.000109       0.000026      -0.000049
   2       0.000060      -0.000047       0.000312
   3      -0.000117      -0.000064      -0.000112
   4      -0.000014      -0.000072       0.000042
   5       0.000002      -0.000001      -0.000018
   6      -0.000022       0.000061       0.000038
   7       0.000023      -0.000059       0.000004
   8      -0.000014       0.000011       0.000073
   9       0.000045      -0.000007      -0.000037
  10       0.000016       0.000073       0.000002
  11       0.000012       0.000018       0.000008
  12      -0.000005      -0.000033       0.000018
  13      -0.000002       0.000002      -0.000038
  14       0.000019       0.000003       0.000012
  15       0.000017      -0.000017       0.000008
  16      -0.000005       0.000037       0.000018
  17       0.000046       0.000013      -0.000038
  18       0.000133      -0.000118      -0.000488
  19       0.000142      -0.000012       0.000157
  20       0.000119       0.000855       0.000051
  21      -0.000119      -0.000309      -0.000007
  22      -0.000228      -0.000362       0.000041
---------------------------------------------------
 Number of fixed atoms: 0
 Gradient time:  CPU 129.86 s  wall 12.49 s
 Geometry Optimization Parameters
   NAtoms,    NIC,     NZ,  NCons,   NDum,   NFix, NCnnct, MaxDiis
       22     172       0       0       0       0       0       0

 Cartesian Hessian Update
 Hessian updated using BFGS update


** GEOMETRY OPTIMIZATION IN DELOCALIZED INTERNAL COORDINATES **
   Searching for a Minimum

   Optimization Cycle:   3

                       Coordinates (Angstroms)
     ATOM                X               Y               Z
      1  C        -2.3980805370    0.9985889375   -2.3707869134
      2  C        -1.5401116565   -0.2123590326   -1.9600611622
      3  C        -2.2298624095   -1.5373694898   -2.3308772547
      4  C        -2.5906473770   -1.5817197700   -3.8250405365
      5  C        -3.4459215253   -0.3732058313   -4.2377712120
      6  C        -2.7572164665    0.9493170353   -3.8651215201
      7  H        -1.5743089710   -2.3771299382   -2.0669257512
      8  H        -0.5749978561   -0.1560269004   -2.4735817662
      9  H        -3.3202339645    0.9971402309   -1.7702746093
     10  H        -1.8595533772    1.9249358360   -2.1330259383
     11  H        -1.6648564894   -1.5904595940   -4.4198515244
     12  H        -3.1177009233   -2.5182916967   -4.0487906199
     13  H        -3.6473219453   -0.4037481813   -5.3167667278
     14  H        -4.4211441144   -0.4293130061   -3.7306952660
     15  H        -1.8388412308    1.0601765146   -4.4612151986
     16  H        -3.4015858257    1.8013994714   -4.1177309392
     17  H        -3.1453718745   -1.6398826481   -1.7286843878
     18  N        -1.2376630812   -0.1732629378   -0.5258559017
     19  H        -2.0137456380   -0.2717446607    0.1216152088
     20  C        -0.0198592824    0.0026369067    0.0159233180
     21  H        -0.0413973279   -0.0020318647    1.1179299376
     22  O         1.0417571710    0.1483832376   -0.6090457551
   Point Group: c1    Number of degrees of freedom:    60


   Energy is   -404.602197134

 Hessian updated using BFGS update

 60 Hessian modes will be used to form the next step
  Hessian Eigenvalues:
     0.005966    0.006018    0.006969    0.007163    0.012590    0.019500
     0.019672    0.020839    0.022223    0.037215    0.038535    0.039417
     0.041966    0.048449    0.048880    0.049132    0.055293    0.055728
     0.056658    0.060788    0.066955    0.081528    0.081576    0.081666
     0.082097    0.082148    0.084014    0.087514    0.120967    0.121197
     0.142997    0.147190    0.160312    0.162810    0.174886    0.210237
     0.215905    0.223989    0.272389    0.272894    0.275535    0.286948
     0.287091    0.289345    0.328356    0.334533    0.334812    0.335763
     0.336546    0.336756    0.339324    0.339442    0.339456    0.340157
     0.340446    0.342416    0.364830    0.447002    0.458873    0.797138

 Minimum search - taking simple RFO step
 Searching for Lamda that Minimizes Along All modes
 Value Taken    Lamda =  -0.00001783
 Step Taken.  Stepsize is  0.027601

                             Maximum     Tolerance    Cnvgd?
         Gradient           0.000467      0.000100      NO
         Displacement       0.019243      0.000100      NO
         Energy change     -0.000070      0.000000      NO


 New Cartesian Coordinates Obtained by Inverse Iteration

 Displacement from previous Coordinates is:  0.039216
 ----------------------------------------------------------------
             Standard Nuclear Orientation (Angstroms)
    I     Atom           X                Y                Z
 ----------------------------------------------------------------
    1      C      -2.3959747260     0.9971797317    -2.3700958941
    2      C      -1.5392813628    -0.2149253646    -1.9606330807
    3      C      -2.2306145530    -1.5388376728    -2.3316815305
    4      C      -2.5921159669    -1.5817896504    -3.8258078508
    5      C      -3.4464092507    -0.3722533129    -4.2373479121
    6      C      -2.7558228741     0.9491319594    -3.8643898098
    7      H      -1.5757279044    -2.3792494475    -2.0685609239
    8      H      -0.5740366310    -0.1593813481    -2.4740576768
    9      H      -3.3178603693     0.9964817089    -1.7690736230
   10      H      -1.8560549446     1.9225068895    -2.1320327159
   11      H      -1.6666462334    -1.5911622663    -4.4210511491
   12      H      -3.1202860404    -2.5175705971    -4.0500232337
   13      H      -3.6483003071    -0.4019787250    -5.3162115494
   14      H      -4.4214557651    -0.4275430127    -3.7298472244
   15      H      -1.8376272297     1.0592108879    -4.4608482066
   16      H      -3.3992976105     1.8020168925    -4.1163698167
   17      H      -3.1459814622    -1.6407143848    -1.7290568529
   18      N      -1.2372687565    -0.1774316244    -0.5259385113
   19      H      -2.0147281050    -0.2767056090     0.1198459404
   20      C      -0.0205859386    -0.0000323014     0.0164386820
   21      H      -0.0424095120     0.0075325809     1.1183147215
   22      O       1.0398208409     0.1615472847    -0.6082063023
 ----------------------------------------------------------------
 Nuclear Repulsion Energy =         466.34807199 hartrees
 There are       35 alpha and       35 beta electrons
 Discretize the solute cavity surface with Lebedev spheres
	Using 302 Lebedev grid points for each H atom
	Using 302 Lebedev grid points for other atoms
	Atomic van der Waals radii will be scaled by 1.20
 Remove points where switching function is < 1.0e-08
 Keep 2735 surface tesserae and discard 3909 interior tesserae
 Molecular Surface Area = 183.115 Angst**2
 Applying Cartesian multipole field
    Component          Value
    ---------          -----
     (2,0,0)        1.00000E-11
     (0,2,0)        2.00000E-11
     (0,0,2)       -3.00000E-12
 Nucleus-field energy     =     0.0000000118 hartrees
 Requested basis set is 6-31+G(d)
 There are 71 shells and 197 basis functions
 A cutoff of  1.0D-14 yielded   2409 shell pairs
 There are     18981 function pairs
 Smallest overlap matrix eigenvalue = 2.45E-05
 Guess MOs from SCF MO coefficient file

 -----------------------------------------------------------------------
  General SCF calculation program by
  Eric Jon Sundstrom, Paul Horn, Yuezhi Mao, Dmitri Zuev, Alec White,
  David Stuck, Shaama M.S., Shane Yost, Joonho Lee, David Small,
  Daniel Levine, Susi Lehtola, Hugh Burton, Evgeny Epifanovsky,
  Bang C. Huynh
 -----------------------------------------------------------------------
 Exchange:     0.2000 Hartree-Fock + 0.0800 Slater + 0.7200 B88
 Correlation:  0.1900 VWN1RPA + 0.8100 LYP
 Using Euler-Maclaurin-Lebedev (99,590) quadrature formula
 using 16 threads for integral computing
 -------------------------------------------------------
 OpenMP Integral computing Module                
 Release: version 2.0, May 2017, Q-Chem Inc. Pleasanton 
 -------------------------------------------------------
 A restricted SCF calculation will be
 performed using Roothaan-Hall, DIIS
 SCF converges when DIIS error is below 1.0e-09
 ---------------------------------------
  Cycle       Energy         DIIS error
 ---------------------------------------
    1    -404.5819365285      6.29e-04  Roothaan Step
 ---------------------------------------
  Cycle       Energy         DIIS error
 ---------------------------------------
    1    -404.5901578249      1.29e-03  
    2    -404.5723737148      2.79e-03  
    3    -404.6019320312      2.23e-04  
    4    -404.6021163635      1.26e-04  
    5    -404.6021769547      3.84e-05  
    6    -404.6021830491      9.94e-06  
    7    -404.6021834264      3.41e-06  
    8    -404.6021834826      6.30e-07  
    9    -404.6021834843      2.65e-07  
   10    -404.6021834846      4.72e-08  
   11    -404.6021834846      1.21e-08  
   12    -404.6021834846      3.45e-09  
   13    -404.6021834846      4.05e-10  Convergence criterion met
 ---------------------------------------
 SCF time:   CPU 930.85s  wall 62.00s 

************** Final PCM Free Energy Summary **************
 G_electrostatic  =      -0.02016747 hartree =     -12.65527671 kcal/mol
 G_cavitation     =       0.00000000 hartree =       0.00000000 kcal/mol
 G_dispersion     =       0.00000000 hartree =       0.00000000 kcal/mol
 G_repulsion      =       0.00000000 hartree =       0.00000000 kcal/mol
 --------------------------------------------------
 Non-electrostatic Free Energy =       0.00000000 hartree =       0.00000000 kcal/mol
 Total                         =      -0.02016747 hartree =     -12.65527671 kcal/mol
 --------------------------------------------------
 SCF Energy (H0 + V/2)                       =    -404.60218348 
 Solute Internal Energy (H0)                 =    -404.58201602 
 Total Free Energy (H0 + V/2 + non-elec)     =    -404.60218348 hartree
                                             = -253891.70212388 kcal/mol
***********************************************************

 SCF   energy in the final basis set =     -404.6021834846
 Total energy in the final basis set =     -404.6021834846
 
 --------------------------------------------------------------
 
                    Orbital Energies (a.u.)
 --------------------------------------------------------------
 
 Alpha MOs
 -- Occupied --
-19.1348 -14.3718 -10.2939 -10.2253 -10.1824 -10.1820 -10.1796 -10.1794
-10.1774  -1.0387  -0.9332  -0.8241  -0.7426  -0.7406  -0.6368  -0.6108
 -0.5918  -0.5630  -0.5263  -0.4837  -0.4607  -0.4417  -0.4371  -0.4194
 -0.4177  -0.3951  -0.3782  -0.3735  -0.3472  -0.3429  -0.3214  -0.3116
 -0.3091  -0.2711  -0.2609
 -- Virtual --
  0.0085   0.0089   0.0179   0.0236   0.0262   0.0416   0.0480   0.0495
  0.0598   0.0700   0.0705   0.0840   0.0871   0.0957   0.1005   0.1054
  0.1128   0.1173   0.1263   0.1343   0.1409   0.1524   0.1570   0.1615
  0.1703   0.1801   0.1837   0.1898   0.1995   0.2031   0.2111   0.2141
  0.2216   0.2268   0.2307   0.2447   0.2484   0.2565   0.2643   0.2704
  0.2767   0.2815   0.2891   0.2907   0.2957   0.3027   0.3108   0.3262
  0.3304   0.3323   0.3595   0.3731   0.3849   0.3877   0.4177   0.4216
  0.4396   0.4608   0.4835   0.6102   0.6402   0.6566   0.6676   0.6679
  0.6845   0.6982   0.7310   0.7337   0.7471   0.7526   0.7757   0.7795
  0.8011   0.8060   0.8215   0.8523   0.8640   0.9128   0.9543   0.9758
  0.9803   0.9940   1.0235   1.0285   1.0311   1.0585   1.0903   1.1050
  1.1191   1.1244   1.1284   1.1429   1.1624   1.1728   1.1822   1.1911
  1.2403   1.2442   1.2821   1.3251   1.3446   1.3738   1.3902   1.4187
  1.4810   1.4863   1.4950   1.5678   1.5740   1.6148   1.6915   1.7330
  1.7343   1.7553   1.7706   1.8060   1.8522   1.8715   1.9030   1.9080
  1.9121   1.9390   1.9835   2.0108   2.0201   2.0451   2.0577   2.0852
  2.0934   2.1286   2.2010   2.2160   2.2784   2.3129   2.3168   2.3481
  2.3964   2.4101   2.4201   2.4252   2.4491   2.5609   2.5852   2.6200
  2.6732   2.6843   2.7054   2.7632   2.7817   2.8338   2.8625   2.9904
  3.1865   4.0943   4.1932   4.2283   4.2965   4.3340   4.4142   4.6045
  4.6113   4.6746
 --------------------------------------------------------------
 
          Ground-State Mulliken Net Atomic Charges

     Atom                 Charge (a.u.)
  ----------------------------------------
      1 C                    -0.269282
      2 C                    -0.430561
      3 C                    -0.289785
      4 C                    -0.452938
      5 C                    -0.381029
      6 C                    -0.456939
      7 H                     0.211258
      8 H                     0.226783
      9 H                     0.214908
     10 H                     0.210114
     11 H                     0.207540
     12 H                     0.203346
     13 H                     0.199334
     14 H                     0.203213
     15 H                     0.207430
     16 H                     0.203281
     17 H                     0.214852
     18 N                    -0.382966
     19 H                     0.453183
     20 C                     0.346129
     21 H                     0.185296
     22 O                    -0.623168
  ----------------------------------------
  Sum of atomic charges =     0.000000

 -----------------------------------------------------------------
                    Cartesian Multipole Moments
 -----------------------------------------------------------------
    Charge (ESU x 10^10)
                 0.0000
    Dipole Moment (Debye)
         X      -5.9632      Y      -0.8389      Z       0.5562
       Tot       6.0476
    Quadrupole Moments (Debye-Ang)
        XX     -53.4680     XY       0.3575     YY     -56.9260
        XZ       4.9148     YZ       0.7313     ZZ     -51.7577
    Octopole Moments (Debye-Ang^2)
       XXX     275.6345    XXY       8.4855    XYY      99.1308
       YYY      34.8648    XXZ     123.9405    XYZ      -0.4191
       YYZ     127.4007    XZZ      88.9044    YZZ      10.0677
       ZZZ     371.8635
    Hexadecapole Moments (Debye-Ang^3)
      XXXX   -1734.4139   XXXY     -84.4417   XXYY    -360.0234
      XYYY     -88.6619   YYYY    -402.5437   XXXZ    -961.9841
      XXYZ     -35.6453   XYYZ    -321.2588   YYYZ    -110.0269
      XXZZ    -718.8042   XYZZ     -27.5731   YYZZ    -507.1331
      XZZZ    -952.4034   YZZZ    -107.1425   ZZZZ   -2590.6026
 -----------------------------------------------------------------
 Calculating analytic gradient of the SCF energy
 Gradient of SCF Energy
            1           2           3           4           5           6
    1   0.0070984  -0.0011698   0.0067968  -0.0018424   0.0075037  -0.0011169
    2  -0.0034632   0.0000435   0.0049579   0.0051101   0.0004767  -0.0046801
    3  -0.0061390  -0.0027897  -0.0071154   0.0045495   0.0012751   0.0043561
            7           8           9          10          11          12
    1   0.0007702  -0.0029448  -0.0054848   0.0000572   0.0018182  -0.0019509
    2  -0.0021261  -0.0004760  -0.0006776   0.0015970   0.0002008  -0.0027309
    3   0.0007341  -0.0005796   0.0037849   0.0004830  -0.0011767  -0.0002863
           13          14          15          16          17          18
    1  -0.0005019  -0.0036081   0.0016236  -0.0021850  -0.0057305   0.0112290
    2  -0.0000953  -0.0002263  -0.0001067   0.0022341  -0.0000546   0.0017464
    3  -0.0025971   0.0024307  -0.0011188  -0.0003701   0.0040563  -0.0072159
           19          20          21          22
    1  -0.0130025   0.0053344  -0.0038472   0.0011536
    2  -0.0014336  -0.0016849   0.0003086   0.0010803
    3   0.0097988  -0.0066493   0.0044271   0.0001424
 Max gradient component =       1.300E-02
 RMS gradient           =       4.100E-03
 Computing fast CPCM-SWIG gradient
 Updating gradient with PCM contributions...
 -- total gradient after adding PCM contribution --
---------------------------------------------------
  Atom         X              Y              Z     
---------------------------------------------------
   1      -0.000080       0.000021      -0.000024
   2      -0.000032       0.000101       0.000129
   3      -0.000056      -0.000083       0.000037
   4       0.000028      -0.000004      -0.000011
   5      -0.000054      -0.000004      -0.000033
   6       0.000012       0.000035      -0.000007
   7       0.000005       0.000002      -0.000004
   8       0.000015      -0.000005       0.000051
   9       0.000015      -0.000009      -0.000009
  10       0.000014      -0.000004      -0.000002
  11      -0.000003       0.000007       0.000013
  12      -0.000001       0.000006       0.000013
  13       0.000011       0.000002       0.000000
  14       0.000010       0.000002       0.000005
  15       0.000002      -0.000008       0.000011
  16       0.000000      -0.000004       0.000002
  17       0.000014       0.000012      -0.000010
  18       0.000449       0.000548      -0.000201
  19      -0.000036       0.000147       0.000035
  20      -0.000613      -0.002551       0.000273
  21      -0.000039       0.000817      -0.000029
  22       0.000339       0.000971      -0.000241
---------------------------------------------------
 Number of fixed atoms: 0
 Gradient time:  CPU 129.05 s  wall 12.46 s
 Geometry Optimization Parameters
   NAtoms,    NIC,     NZ,  NCons,   NDum,   NFix, NCnnct, MaxDiis
       22     172       0       0       0       0       0       0

 Cartesian Hessian Update
 Hessian updated using BFGS update


** GEOMETRY OPTIMIZATION IN DELOCALIZED INTERNAL COORDINATES **
   Searching for a Minimum

   Optimization Cycle:   4

                       Coordinates (Angstroms)
     ATOM                X               Y               Z
      1  C        -2.3959747260    0.9971797317   -2.3700958941
      2  C        -1.5392813628   -0.2149253646   -1.9606330807
      3  C        -2.2306145530   -1.5388376728   -2.3316815305
      4  C        -2.5921159669   -1.5817896504   -3.8258078508
      5  C        -3.4464092507   -0.3722533129   -4.2373479121
      6  C        -2.7558228741    0.9491319594   -3.8643898098
      7  H        -1.5757279044   -2.3792494475   -2.0685609239
      8  H        -0.5740366310   -0.1593813481   -2.4740576768
      9  H        -3.3178603693    0.9964817089   -1.7690736230
     10  H        -1.8560549446    1.9225068895   -2.1320327159
     11  H        -1.6666462334   -1.5911622663   -4.4210511491
     12  H        -3.1202860404   -2.5175705971   -4.0500232337
     13  H        -3.6483003071   -0.4019787250   -5.3162115494
     14  H        -4.4214557651   -0.4275430127   -3.7298472244
     15  H        -1.8376272297    1.0592108879   -4.4608482066
     16  H        -3.3992976105    1.8020168925   -4.1163698167
     17  H        -3.1459814622   -1.6407143848   -1.7290568529
     18  N        -1.2372687565   -0.1774316244   -0.5259385113
     19  H        -2.0147281050   -0.2767056090    0.1198459404
     20  C        -0.0205859386   -0.0000323014    0.0164386820
     21  H        -0.0424095120    0.0075325809    1.1183147215
     22  O         1.0398208409    0.1615472847   -0.6082063023
   Point Group: c1    Number of degrees of freedom:    60


   Energy is   -404.602183485

 Hessian updated using BFGS update

 59 Hessian modes will be used to form the next step
  Hessian Eigenvalues:
     0.005966    0.006017    0.006966    0.007089    0.012616    0.019501
     0.019742    0.020846    0.037209    0.038481    0.041891    0.048449
     0.048859    0.048994    0.055290    0.055718    0.056354    0.060772
     0.066927    0.081389    0.081543    0.081632    0.082005    0.082136
     0.083788    0.084693    0.087602    0.120967    0.121202    0.143005
     0.145052    0.159361    0.162734    0.175096    0.209929    0.211721
     0.223964    0.272255    0.272618    0.275533    0.286690    0.286964
     0.287854    0.328388    0.334348    0.334663    0.335760    0.336546
     0.336749    0.339226    0.339397    0.339449    0.339973    0.340218
     0.342356    0.362563    0.447662    0.458895    0.799756

 Minimum search - taking simple RFO step
 Searching for Lamda that Minimizes Along All modes
 Value Taken    Lamda =  -0.00003372
 Step Taken.  Stepsize is  0.019699

                             Maximum     Tolerance    Cnvgd?
         Gradient           0.001344      0.000100      NO
         Displacement       0.015988      0.000100      NO
         Energy change      0.000014      0.000000      NO


 New Cartesian Coordinates Obtained by Inverse Iteration

 Displacement from previous Coordinates is:  0.021772
 ----------------------------------------------------------------
             Standard Nuclear Orientation (Angstroms)
    I     Atom           X                Y                Z
 ----------------------------------------------------------------
    1      C      -2.3969099414     0.9978857089    -2.3705227568
    2      C      -1.5397080983    -0.2135053420    -1.9603304452
    3      C      -2.2301419925    -1.5378405247    -2.3311362243
    4      C      -2.5913057123    -1.5816142179    -3.8253238920
    5      C      -3.4461553216    -0.3727541230    -4.2374434848
    6      C      -2.7563714997     0.9490807006    -3.8648811807
    7      H      -1.5748642638    -2.3777847333    -2.0675126324
    8      H      -0.5745729058    -0.1575772822    -2.4739985241
    9      H      -3.3189701808     0.9970324595    -1.7696963734
   10      H      -1.8575717443     1.9235980083    -2.1326687581
   11      H      -1.6657599455    -1.5907815144    -4.4204866603
   12      H      -3.1189692110    -2.5177331321    -4.0493268550
   13      H      -3.6478867727    -0.4029949369    -5.3163231442
   14      H      -4.4213081663    -0.4283841029    -3.7301494583
   15      H      -1.8381609039     1.0595086794    -4.4612816334
   16      H      -3.4002983286     1.8014790222    -4.1173541401
   17      H      -3.1456018030    -1.6401161869    -1.7286455617
   18      N      -1.2380693761    -0.1752198697    -0.5255038301
   19      H      -2.0150883386    -0.2754459614     0.1205955525
   20      C      -0.0204916289     0.0029931205     0.0161226443
   21      H      -0.0409698981     0.0011832114     1.1181402148
   22      O       1.0405113309     0.1550236349    -0.6089073769
 ----------------------------------------------------------------
 Nuclear Repulsion Energy =         466.35365863 hartrees
 There are       35 alpha and       35 beta electrons
 Discretize the solute cavity surface with Lebedev spheres
	Using 302 Lebedev grid points for each H atom
	Using 302 Lebedev grid points for other atoms
	Atomic van der Waals radii will be scaled by 1.20
 Remove points where switching function is < 1.0e-08
 Keep 2734 surface tesserae and discard 3910 interior tesserae
 Molecular Surface Area = 183.113 Angst**2
 Applying Cartesian multipole field
    Component          Value
    ---------          -----
     (2,0,0)        1.00000E-11
     (0,2,0)        2.00000E-11
     (0,0,2)       -3.00000E-12
 Nucleus-field energy     =     0.0000000118 hartrees
 Requested basis set is 6-31+G(d)
 There are 71 shells and 197 basis functions
 A cutoff of  1.0D-14 yielded   2409 shell pairs
 There are     18981 function pairs
 Smallest overlap matrix eigenvalue = 2.44E-05
 Guess MOs from SCF MO coefficient file

 -----------------------------------------------------------------------
  General SCF calculation program by
  Eric Jon Sundstrom, Paul Horn, Yuezhi Mao, Dmitri Zuev, Alec White,
  David Stuck, Shaama M.S., Shane Yost, Joonho Lee, David Small,
  Daniel Levine, Susi Lehtola, Hugh Burton, Evgeny Epifanovsky,
  Bang C. Huynh
 -----------------------------------------------------------------------
 Exchange:     0.2000 Hartree-Fock + 0.0800 Slater + 0.7200 B88
 Correlation:  0.1900 VWN1RPA + 0.8100 LYP
 Using Euler-Maclaurin-Lebedev (99,590) quadrature formula
 using 16 threads for integral computing
 -------------------------------------------------------
 OpenMP Integral computing Module                
 Release: version 2.0, May 2017, Q-Chem Inc. Pleasanton 
 -------------------------------------------------------
 A restricted SCF calculation will be
 performed using Roothaan-Hall, DIIS
 SCF converges when DIIS error is below 1.0e-09
 ---------------------------------------
  Cycle       Energy         DIIS error
 ---------------------------------------
    1    -404.5820160522      6.24e-04  Roothaan Step
 ---------------------------------------
  Cycle       Energy         DIIS error
 ---------------------------------------
    1    -404.5902976527      1.28e-03  
    2    -404.5729259047      2.77e-03  
    3    -404.6019525888      2.21e-04  
    4    -404.6021344234      1.25e-04  
    5    -404.6021939076      3.85e-05  
    6    -404.6022000140      9.93e-06  
    7    -404.6022003906      3.40e-06  
    8    -404.6022004465      6.29e-07  
    9    -404.6022004482      2.65e-07  
   10    -404.6022004485      4.73e-08  
   11    -404.6022004485      1.21e-08  
   12    -404.6022004485      3.44e-09  
   13    -404.6022004485      4.03e-10  Convergence criterion met
 ---------------------------------------
 SCF time:   CPU 950.47s  wall 63.00s 

************** Final PCM Free Energy Summary **************
 G_electrostatic  =      -0.02011808 hartree =     -12.62428406 kcal/mol
 G_cavitation     =       0.00000000 hartree =       0.00000000 kcal/mol
 G_dispersion     =       0.00000000 hartree =       0.00000000 kcal/mol
 G_repulsion      =       0.00000000 hartree =       0.00000000 kcal/mol
 --------------------------------------------------
 Non-electrostatic Free Energy =       0.00000000 hartree =       0.00000000 kcal/mol
 Total                         =      -0.02011808 hartree =     -12.62428406 kcal/mol
 --------------------------------------------------
 SCF Energy (H0 + V/2)                       =    -404.60220045 
 Solute Internal Energy (H0)                 =    -404.58208237 
 Total Free Energy (H0 + V/2 + non-elec)     =    -404.60220045 hartree
                                             = -253891.71276890 kcal/mol
***********************************************************

 SCF   energy in the final basis set =     -404.6022004485
 Total energy in the final basis set =     -404.6022004485
 
 --------------------------------------------------------------
 
                    Orbital Energies (a.u.)
 --------------------------------------------------------------
 
 Alpha MOs
 -- Occupied --
-19.1349 -14.3717 -10.2940 -10.2253 -10.1824 -10.1819 -10.1796 -10.1794
-10.1774  -1.0389  -0.9331  -0.8241  -0.7426  -0.7406  -0.6367  -0.6108
 -0.5917  -0.5630  -0.5263  -0.4837  -0.4607  -0.4416  -0.4371  -0.4193
 -0.4178  -0.3951  -0.3781  -0.3736  -0.3472  -0.3428  -0.3213  -0.3116
 -0.3091  -0.2711  -0.2609
 -- Virtual --
  0.0086   0.0087   0.0179   0.0236   0.0262   0.0416   0.0480   0.0495
  0.0598   0.0700   0.0705   0.0840   0.0871   0.0957   0.1005   0.1054
  0.1128   0.1173   0.1262   0.1343   0.1409   0.1524   0.1570   0.1615
  0.1703   0.1801   0.1837   0.1898   0.1996   0.2029   0.2111   0.2141
  0.2216   0.2268   0.2307   0.2447   0.2484   0.2566   0.2643   0.2704
  0.2768   0.2815   0.2891   0.2908   0.2957   0.3027   0.3109   0.3262
  0.3304   0.3323   0.3595   0.3732   0.3847   0.3877   0.4177   0.4216
  0.4396   0.4609   0.4836   0.6103   0.6402   0.6566   0.6676   0.6680
  0.6845   0.6982   0.7309   0.7337   0.7478   0.7521   0.7759   0.7793
  0.8012   0.8061   0.8217   0.8520   0.8640   0.9127   0.9544   0.9758
  0.9803   0.9940   1.0235   1.0284   1.0311   1.0585   1.0903   1.1050
  1.1192   1.1244   1.1284   1.1429   1.1625   1.1728   1.1822   1.1911
  1.2399   1.2448   1.2821   1.3250   1.3445   1.3736   1.3904   1.4188
  1.4799   1.4877   1.4949   1.5672   1.5744   1.6146   1.6914   1.7330
  1.7343   1.7552   1.7706   1.8059   1.8527   1.8708   1.9031   1.9080
  1.9121   1.9392   1.9835   2.0108   2.0201   2.0451   2.0577   2.0853
  2.0935   2.1286   2.2010   2.2164   2.2781   2.3137   2.3161   2.3483
  2.3964   2.4102   2.4201   2.4253   2.4492   2.5610   2.5852   2.6201
  2.6733   2.6845   2.7053   2.7632   2.7816   2.8338   2.8628   2.9907
  3.1862   4.0942   4.1933   4.2283   4.2965   4.3341   4.4143   4.6045
  4.6113   4.6748
 --------------------------------------------------------------
 
          Ground-State Mulliken Net Atomic Charges

     Atom                 Charge (a.u.)
  ----------------------------------------
      1 C                    -0.268895
      2 C                    -0.430295
      3 C                    -0.290503
      4 C                    -0.452850
      5 C                    -0.381029
      6 C                    -0.456853
      7 H                     0.211246
      8 H                     0.226796
      9 H                     0.214843
     10 H                     0.210061
     11 H                     0.207534
     12 H                     0.203345
     13 H                     0.199321
     14 H                     0.203206
     15 H                     0.207408
     16 H                     0.203249
     17 H                     0.214836
     18 N                    -0.383535
     19 H                     0.453166
     20 C                     0.346307
     21 H                     0.185159
[...]

 Mode:                40                     41                     42
 Frequency:      1404.49                1493.63                1495.92
 Force Cnst:      1.7066                 1.4303                 1.4326
 Red. Mass:       1.4684                 1.0881                 1.0866
 IR Active:          YES                    YES                    YES
 IR Intens:        0.583                  0.121                  5.935
 Raman Active:       YES                    YES                    YES
               X      Y      Z        X      Y      Z        X      Y      Z
 C          0.042 -0.050  0.087    0.017 -0.030 -0.036    0.007 -0.009  0.006
 C         -0.051 -0.003 -0.088    0.001 -0.017  0.000   -0.001  0.000 -0.007
 C          0.039  0.059  0.088   -0.012 -0.028  0.035    0.006  0.010  0.006
 C          0.015 -0.040  0.021   -0.010  0.016  0.026   -0.015  0.020  0.011
 C         -0.011  0.001 -0.007   -0.003  0.014 -0.001   -0.066 -0.005 -0.026
 C          0.011  0.041  0.020    0.008  0.017 -0.027   -0.013 -0.025  0.016
 H         -0.114 -0.185 -0.347    0.283  0.130 -0.246   -0.028 -0.014  0.012
 H          0.228  0.002  0.431   -0.006  0.077 -0.003    0.013 -0.001  0.020
 H         -0.171  0.102 -0.253    0.135  0.359  0.165   -0.015  0.053 -0.024
 H         -0.129  0.153 -0.337   -0.321  0.109  0.259   -0.032  0.011  0.014
 H         -0.018  0.043 -0.035   -0.102 -0.225 -0.125   -0.051 -0.233 -0.048
 H         -0.125  0.099 -0.227    0.208 -0.071 -0.174    0.170 -0.054 -0.164
 H         -0.072 -0.010 -0.001    0.017  0.003 -0.004    0.580  0.032 -0.128
 H         -0.042 -0.007 -0.052    0.012 -0.069  0.017    0.244  0.025  0.539
 H         -0.014 -0.046 -0.037    0.131 -0.211  0.136   -0.095  0.257 -0.072
 H         -0.112 -0.120 -0.219   -0.203 -0.094  0.177    0.192  0.081 -0.191
 H         -0.162 -0.129 -0.261   -0.166  0.309 -0.164   -0.009 -0.051 -0.023
 N         -0.004 -0.002 -0.033   -0.001  0.000 -0.000   -0.000 -0.000 -0.001
 H          0.090  0.012  0.081    0.002  0.001  0.002    0.005  0.001  0.005
 C          0.009  0.002  0.025    0.000  0.000  0.000    0.000  0.000  0.001
 H          0.005  0.001  0.037    0.000 -0.001  0.001   -0.000  0.000  0.001
 O          0.002  0.000 -0.006   -0.000 -0.000 -0.000   -0.000 -0.000 -0.000
 TransDip   0.006  0.007  0.023    0.001  0.010  0.004    0.076  0.008 -0.017

 Mode:                43                     44                     45
 Frequency:      1499.07                1499.79                1511.76
 Force Cnst:      1.4545                 1.4500                 1.4829
 Red. Mass:       1.0986                 1.0941                 1.1013
 IR Active:          YES                    YES                    YES
 IR Intens:        7.744                 10.213                  0.725
 Raman Active:       YES                    YES                    YES
               X      Y      Z        X      Y      Z        X      Y      Z
 C          0.011 -0.033 -0.024   -0.017  0.032  0.018   -0.011  0.032  0.018
 C         -0.001  0.005 -0.002    0.005  0.001  0.015   -0.000 -0.000  0.014
 C         -0.004 -0.025  0.019   -0.016 -0.042  0.027   -0.008 -0.033  0.019
 C          0.015 -0.040 -0.037   -0.009  0.022  0.018    0.011 -0.033 -0.022
 C         -0.000  0.002 -0.000    0.024  0.002  0.014   -0.035 -0.002 -0.024
 C         -0.007 -0.033  0.033   -0.008 -0.030  0.025    0.007  0.033 -0.022
 H          0.163  0.057 -0.152    0.316  0.147 -0.244    0.230  0.093 -0.194
 H          0.002 -0.011  0.002   -0.017 -0.001 -0.019   -0.016 -0.001 -0.014
 H          0.086  0.300  0.106   -0.086 -0.308 -0.099   -0.074 -0.290 -0.089
 H         -0.240  0.065  0.203    0.263 -0.095 -0.182    0.232 -0.067 -0.187
 H          0.135  0.398  0.163   -0.083 -0.211 -0.102    0.086  0.290  0.102
 H         -0.326  0.090  0.286    0.194 -0.068 -0.128   -0.241  0.066  0.191
 H          0.000 -0.033 -0.000   -0.187 -0.014  0.051    0.299  0.017 -0.081
 H         -0.001  0.015 -0.001   -0.083 -0.008 -0.178    0.136  0.012  0.290
 H         -0.148  0.308 -0.143   -0.137  0.262 -0.136    0.118 -0.270  0.109
 H          0.256  0.094 -0.242    0.238  0.106 -0.180   -0.229 -0.087  0.189
 H         -0.085  0.206 -0.080   -0.158  0.373 -0.139   -0.111  0.285 -0.097
 N          0.000 -0.001  0.000   -0.000 -0.000 -0.001    0.007  0.001  0.006
 H          0.001  0.000  0.001   -0.009 -0.002 -0.012   -0.036 -0.006 -0.048
 C          0.000 -0.000 -0.000   -0.002 -0.000 -0.000   -0.008 -0.001 -0.004
 H         -0.000  0.001 -0.000    0.000  0.000 -0.001    0.001  0.000 -0.007
 O         -0.000 -0.000  0.000    0.001  0.000 -0.001    0.002  0.000 -0.000
 TransDip  -0.012  0.088  0.011    0.035  0.009 -0.096   -0.019 -0.007 -0.018

 Mode:                46                     47                     48
 Frequency:      1554.01                1666.87                2243.12
 Force Cnst:      2.5248                14.0278                 7.0976
 Red. Mass:       1.7744                 8.5691                 2.3942
 IR Active:          YES                    YES                    YES
 IR Intens:      270.634                925.549                 98.614
 Raman Active:       YES                    YES                    YES
               X      Y      Z        X      Y      Z        X      Y      Z
 C         -0.002  0.002  0.010   -0.002  0.005  0.020   -0.000  0.000 -0.000
 C          0.075  0.011  0.038    0.006  0.000 -0.035    0.001  0.000  0.002
 C         -0.001 -0.004  0.011   -0.002 -0.004  0.021   -0.000 -0.000 -0.000
 C         -0.004 -0.000 -0.008    0.001  0.006 -0.006   -0.000 -0.000 -0.000
 C         -0.002  0.000  0.001   -0.001 -0.000  0.002   -0.000 -0.000 -0.000
 C         -0.004 -0.000 -0.007    0.002 -0.007 -0.006   -0.000  0.000 -0.000
 H          0.025  0.008 -0.007    0.013 -0.010 -0.024    0.001  0.001  0.000
 H         -0.107 -0.013 -0.322    0.067  0.011  0.036    0.002  0.001  0.006
 H         -0.033  0.013 -0.044   -0.032  0.007 -0.019   -0.000 -0.000  0.000
 H          0.034 -0.012 -0.006    0.014  0.011 -0.023    0.001 -0.000  0.000
 H          0.019  0.017  0.025    0.007  0.002 -0.001   -0.000 -0.000 -0.000
 H         -0.015 -0.004  0.030    0.004 -0.011  0.044    0.000  0.000 -0.001
 H          0.025  0.000 -0.005    0.013  0.001 -0.003   -0.000 -0.000  0.000
 H          0.007  0.001  0.018    0.000  0.000  0.005    0.000  0.000 -0.000
 H          0.019 -0.014  0.023    0.009 -0.001  0.002   -0.000 -0.000 -0.000
 H         -0.015  0.002  0.025    0.002  0.012  0.045    0.000 -0.000 -0.000
 H         -0.031 -0.021 -0.045   -0.030 -0.012 -0.016   -0.000 -0.000  0.000
 N         -0.152 -0.024 -0.135   -0.122 -0.020  0.019    0.009  0.002  0.012
 H          0.527  0.088  0.712   -0.368 -0.071 -0.285   -0.029 -0.005 -0.049
 C          0.069  0.012  0.077    0.631  0.110 -0.203    0.006  0.002 -0.194
 H          0.007  0.001  0.137   -0.198 -0.031 -0.324    0.006 -0.006  0.979
 O          0.004  0.001 -0.015   -0.327 -0.058  0.196   -0.012 -0.002  0.013
 TransDip   0.439  0.072  0.283    0.960  0.162 -0.032    0.076  0.015 -0.308

 Mode:                49                     50                     51
 Frequency:      3014.12                3015.20                3018.55
 Force Cnst:      5.7220                 5.7219                 5.7172
 Red. Mass:       1.0690                 1.0682                 1.0650
 IR Active:          YES                    YES                    YES
 IR Intens:       35.197                 51.014                 11.964
 Raman Active:       YES                    YES                    YES
               X      Y      Z        X      Y      Z        X      Y      Z
 C         -0.001 -0.004 -0.001    0.023 -0.009 -0.021    0.010  0.004 -0.003
 C         -0.001 -0.000  0.001    0.000  0.001 -0.000   -0.003 -0.000  0.001
 C          0.005  0.007 -0.007   -0.028 -0.014  0.027    0.025  0.016 -0.026
 C          0.017  0.001 -0.009    0.029 -0.009 -0.025   -0.010  0.001  0.008
 C         -0.064 -0.004  0.010   -0.009  0.000  0.001   -0.016 -0.001 -0.013
 C          0.023  0.004 -0.016   -0.021 -0.012  0.021   -0.031 -0.025  0.036
 H          0.055 -0.068  0.017   -0.108  0.123 -0.034    0.119 -0.141  0.037
 H          0.018  0.001 -0.010   -0.007 -0.002  0.004    0.036  0.001 -0.018
 H         -0.009 -0.001  0.003   -0.350 -0.003  0.225   -0.089  0.002  0.057
 H          0.026  0.045  0.008    0.075  0.110  0.024   -0.032 -0.056 -0.013
 H         -0.197  0.003  0.127   -0.427  0.001  0.273    0.143 -0.002 -0.090
 H         -0.007 -0.012 -0.008    0.068  0.100  0.020   -0.013 -0.017 -0.004
 H          0.033  0.007  0.273    0.005 -0.004  0.038    0.039  0.005  0.244
 H          0.740  0.039 -0.396    0.106  0.004 -0.056    0.148  0.008 -0.085
 H         -0.300 -0.033  0.194    0.351  0.036 -0.226    0.570  0.057 -0.364
 H          0.015 -0.016 -0.002   -0.091  0.107 -0.029   -0.198  0.244 -0.065
 H         -0.111 -0.010  0.069    0.452  0.044 -0.292   -0.427 -0.042  0.274
 N         -0.000  0.000 -0.000   -0.000 -0.000 -0.000    0.000  0.000  0.000
 H          0.000  0.000  0.001   -0.000 -0.001 -0.001    0.001  0.001  0.002
 C          0.000  0.000  0.000    0.000 -0.000 -0.000   -0.000 -0.000  0.000
 H         -0.000 -0.000 -0.000   -0.000  0.000 -0.000    0.000  0.000  0.000
 O         -0.000 -0.000  0.000   -0.000 -0.000  0.000    0.000  0.000 -0.000
 TransDip  -0.126  0.020 -0.141   -0.024 -0.227  0.013   -0.103 -0.032  0.024

 Mode:                52                     53                     54
 Frequency:      3019.44                3021.29                3061.96
 Force Cnst:      5.7045                 5.7150                 6.0475
 Red. Mass:       1.0620                 1.0626                 1.0948
 IR Active:          YES                    YES                    YES
 IR Intens:       22.073                139.201                121.272
 Raman Active:       YES                    YES                    YES
               X      Y      Z        X      Y      Z        X      Y      Z
 C          0.021 -0.013 -0.022   -0.032  0.023  0.035   -0.014 -0.011  0.003
 C         -0.000 -0.000 -0.000    0.006  0.000 -0.002    0.006  0.000 -0.003
 C         -0.007 -0.016  0.016   -0.019 -0.016  0.022   -0.016  0.011  0.002
 C         -0.031  0.027  0.036   -0.002  0.013  0.008   -0.005 -0.016 -0.006
 C         -0.014 -0.001 -0.010   -0.015 -0.001 -0.006    0.009 -0.001 -0.080
 C         -0.000  0.004 -0.003   -0.001 -0.018  0.013   -0.010  0.017 -0.007
 H         -0.140  0.174 -0.048   -0.122  0.150 -0.040    0.105 -0.138  0.041
 H          0.005  0.002 -0.002   -0.081 -0.005  0.043   -0.074 -0.004  0.040
 H         -0.354 -0.004  0.226    0.564  0.006 -0.359    0.087 -0.002 -0.057
 H          0.104  0.161  0.036   -0.174 -0.275 -0.061    0.077  0.132  0.032
 H          0.562  0.002 -0.357    0.106  0.002 -0.066   -0.039 -0.001  0.023
 H         -0.197 -0.319 -0.068   -0.090 -0.153 -0.033    0.107  0.186  0.044
 H          0.031  0.007  0.195    0.026  0.004  0.157    0.152  0.022  0.827
 H          0.129  0.005 -0.073    0.161  0.009 -0.088   -0.265 -0.014  0.127
 H         -0.033 -0.001  0.022    0.162  0.013 -0.102   -0.030 -0.001  0.016
 H          0.037 -0.048  0.012   -0.154  0.200 -0.053    0.146 -0.194  0.056
 H          0.228  0.019 -0.146    0.356  0.035 -0.228    0.085  0.011 -0.056
 N          0.000  0.000  0.000   -0.000 -0.000 -0.000   -0.000 -0.000 -0.000
 H          0.000 -0.001 -0.000   -0.001  0.000 -0.003    0.000  0.000 -0.001
 C         -0.000 -0.000  0.000    0.000  0.000 -0.000    0.000  0.000 -0.000
 H          0.000  0.000  0.000   -0.000 -0.000 -0.000   -0.000 -0.000 -0.000
 O          0.000  0.000 -0.000   -0.000 -0.000  0.000   -0.000 -0.000  0.000
 TransDip  -0.127  0.016  0.080   -0.250  0.005  0.283   -0.121 -0.001 -0.331

 Mode:                55                     56                     57
 Frequency:      3063.37                3066.96                3068.36
 Force Cnst:      6.0637                 6.0767                 6.0877
 Red. Mass:       1.0967                 1.0965                 1.0975
 IR Active:          YES                    YES                    YES
 IR Intens:      132.206                 75.600                105.016
 Raman Active:       YES                    YES                    YES
               X      Y      Z        X      Y      Z        X      Y      Z
 C         -0.006 -0.014 -0.005    0.008  0.017  0.005    0.034  0.034 -0.000
 C          0.000  0.001 -0.000   -0.003 -0.000  0.003   -0.022 -0.001  0.013
 C          0.007 -0.011  0.005    0.012 -0.018  0.006    0.046 -0.036  0.001
 C         -0.041 -0.042  0.000   -0.042 -0.043  0.001    0.020  0.008 -0.008
 C          0.001 -0.000 -0.003   -0.018 -0.001  0.017    0.009  0.000 -0.030
 C          0.050 -0.040  0.001   -0.042  0.034  0.000    0.017 -0.004 -0.007
 H         -0.103  0.132 -0.040   -0.164  0.212 -0.065   -0.352  0.452 -0.139
 H         -0.002  0.001  0.001    0.054  0.003 -0.029    0.284  0.015 -0.156
 H         -0.023 -0.002  0.015    0.017  0.002 -0.011   -0.166  0.006  0.113
 H          0.098  0.165  0.042   -0.119 -0.201 -0.051   -0.243 -0.409 -0.105
 H          0.197 -0.009 -0.131    0.213 -0.010 -0.140   -0.173  0.005  0.112
 H          0.296  0.514  0.124    0.295  0.513  0.122   -0.058 -0.101 -0.024
 H          0.005 -0.000  0.029   -0.018 -0.003 -0.096    0.051  0.007  0.275
 H         -0.020 -0.003  0.010    0.223  0.012 -0.114   -0.159 -0.008  0.078
 H         -0.219 -0.032  0.147    0.192  0.029 -0.128   -0.146 -0.019  0.095
 H         -0.383  0.508 -0.149    0.319 -0.425  0.123   -0.051  0.069 -0.020
 H          0.021  0.000 -0.013    0.012 -0.002 -0.007   -0.197 -0.028  0.135
 N          0.000 -0.000  0.000   -0.000 -0.000 -0.000    0.000  0.000 -0.000
 H          0.000 -0.000  0.000   -0.001 -0.000 -0.000   -0.003 -0.000  0.003
 C         -0.000 -0.000  0.000    0.000  0.000 -0.000   -0.000 -0.000  0.000
 H         -0.000  0.000 -0.000   -0.000 -0.000 -0.000    0.000  0.000  0.000
 O          0.000  0.000 -0.000   -0.000 -0.000  0.000   -0.000 -0.000 -0.000
 TransDip   0.036 -0.366 -0.009   -0.264 -0.036  0.081    0.317  0.004 -0.086

 Mode:                58                     59                     60
 Frequency:      3070.23                3096.94                3578.45
 Force Cnst:      6.1132                 6.1471                 8.1368
 Red. Mass:       1.1007                 1.0878                 1.0785
 IR Active:          YES                    YES                    YES
 IR Intens:       46.385                 66.205                 70.685
 Raman Active:       YES                    YES                    YES
               X      Y      Z        X      Y      Z        X      Y      Z
 C         -0.050 -0.046  0.002   -0.019 -0.013  0.004    0.000  0.000 -0.000
 C          0.002 -0.001 -0.001   -0.069 -0.004  0.037   -0.001 -0.000 -0.001
 C          0.047 -0.034 -0.001   -0.020  0.011  0.003    0.000  0.000 -0.000
 C          0.014  0.007 -0.004   -0.004 -0.000  0.002    0.000  0.000 -0.000
 C         -0.000  0.001  0.002   -0.000 -0.000  0.002    0.000  0.000 -0.000
 C         -0.016  0.005  0.005   -0.004 -0.000  0.002    0.000 -0.000 -0.000
 H         -0.337  0.434 -0.134    0.110 -0.145  0.043   -0.000  0.000  0.000
 H         -0.027 -0.003  0.015    0.822  0.045 -0.439    0.008  0.000 -0.008
 H          0.262 -0.008 -0.175    0.133 -0.006 -0.084    0.000 -0.001  0.001
 H          0.329  0.555  0.142    0.092  0.158  0.039   -0.000 -0.000 -0.000
 H         -0.108  0.002  0.072    0.040 -0.001 -0.028   -0.000 -0.000 -0.000
 H         -0.052 -0.091 -0.022    0.004  0.005  0.000   -0.000 -0.000  0.000
 H         -0.003 -0.002 -0.015   -0.003 -0.000 -0.016    0.000  0.000  0.000
 H          0.008  0.002 -0.004    0.010  0.001 -0.004   -0.000 -0.000  0.000
 H          0.125  0.015 -0.083    0.039  0.005 -0.028   -0.000  0.000 -0.000
 H          0.064 -0.086  0.025    0.004 -0.004  0.000   -0.000  0.000 -0.000
 H         -0.219 -0.030  0.148    0.128  0.019 -0.081    0.000  0.001  0.001
 N          0.000  0.000 -0.000    0.002  0.000  0.000   -0.057 -0.009  0.046
 H          0.000  0.001 -0.000   -0.010 -0.001  0.002    0.760  0.123 -0.633
 C          0.000 -0.000  0.000   -0.002 -0.000  0.000    0.001  0.000  0.002
 H         -0.000  0.000 -0.000    0.001  0.000  0.001   -0.001 -0.000 -0.002
 O          0.000  0.000  0.000    0.000  0.000 -0.001    0.001  0.000 -0.000
 TransDip  -0.010 -0.218  0.008   -0.218 -0.004  0.143    0.245  0.042 -0.103

 STANDARD THERMODYNAMIC QUANTITIES AT   298.18 K  AND     1.00 ATM

   This Molecule has  1 Imaginary Frequencies
   Zero point vibrational energy:      121.833 kcal/mol

   Atom    1 Element C  Has Mass   12.00000
   Atom    2 Element C  Has Mass   12.00000
   Atom    3 Element C  Has Mass   12.00000
   Atom    4 Element C  Has Mass   12.00000
   Atom    5 Element C  Has Mass   12.00000
   Atom    6 Element C  Has Mass   12.00000
   Atom    7 Element H  Has Mass    1.00783
   Atom    8 Element H  Has Mass    1.00783
   Atom    9 Element H  Has Mass    1.00783
   Atom   10 Element H  Has Mass    1.00783
   Atom   11 Element H  Has Mass    1.00783
   Atom   12 Element H  Has Mass    1.00783
   Atom   13 Element H  Has Mass    1.00783
   Atom   14 Element H  Has Mass    1.00783
   Atom   15 Element H  Has Mass    1.00783
   Atom   16 Element H  Has Mass    1.00783
   Atom   17 Element H  Has Mass    1.00783
   Atom   18 Element N  Has Mass   14.00307
   Atom   19 Element H  Has Mass    1.00783
   Atom   20 Element C  Has Mass   12.00000
   Atom   21 Element H  Has Mass    2.01410
   Atom   22 Element O  Has Mass   15.99491
   Molecular Mass:   128.106042 amu
   Principal axes and moments of inertia in amu*Bohr^2:
                             1           2           3
    Eigenvalues --      537.69441  2026.75048  2231.05219
          X               0.65880    -0.03546     0.75149
          Y               0.09022     0.99540    -0.03212
          Z               0.74689    -0.08896    -0.65897
   Rotational Symmetry Number is   1
   The Molecule is an Asymmetric Top
   Translational Enthalpy:        0.889 kcal/mol
   Rotational Enthalpy:           0.889 kcal/mol
   Vibrational Enthalpy:        125.114 kcal/mol
   gas constant (RT):             0.593 kcal/mol
   Translational Entropy:        40.457  cal/mol.K
   Rotational Entropy:           29.276  cal/mol.K
   Vibrational Entropy:          18.096  cal/mol.K

   Total Enthalpy:              127.484 kcal/mol
   Total Entropy:                87.830  cal/mol.K
Archival summary:
1\1\node026\FREQ\ProcedureUnspecified\6-31+G*\11713\ymao90\SunAug822:55:162021SunAug822:55:162021\0\\#,FREQ,ProcedureUnspecified,6-31+G*,\\0,1\N\H,1,1.01547\C,1,1.34437,2,116.756\H,3,1.10221,1,112.701,2,1.08382,0\O,3,1.24073,1,125.967,2,-179.104,0\C,1,1.46703,2,117.556,3,-178.564,0\H,6,1.09476,1,106.028,2,-174.571,0\C,6,1.53858,1,110.444,2,-56.5453,0\H,8,1.09746,6,109.458,1,-59.0116,0\H,8,1.10072,6,108.757,1,57.6809,0\C,8,1.53786,6,111.344,1,178.405,0\H,11,1.09769,8,109.592,6,-177.589,0\H,11,1.10042,8,109.154,6,65.929,0\C,11,1.53689,8,111.651,6,-54.9339,0\H,14,1.09801,11,110.117,8,177.236,0\H,14,1.10062,11,109.234,8,-65.8043,0\C,14,1.53685,11,111.224,8,54.8392,0\H,17,1.09772,14,110.422,11,-177.077,0\H,17,1.10046,14,109.236,11,65.9153,0\C,17,1.53777,14,111.566,11,-54.8828,0\H,20,1.09746,17,110.632,14,176.953,0\H,20,1.10049,17,109.554,14,-65.1939,0\\\@

 Total job time:  899.37s(wall), 12309.63s(cpu) 
 Sun Aug  8 22:55:16 2021

        *************************************************************
        *                                                           *
        *  Thank you very much for using Q-Chem.  Have a nice day.  *
        *                                                           *
        *************************************************************


