                  Welcome to Q-Chem
     A Quantum Leap Into The Future Of Chemistry


 Q-Chem 5.2 (devel), Q-Chem, Inc., Pleasanton, CA (2019)

 Yihan Shao,  Zhengting Gan,  E. Epifanovsky,  A. T. B. Gilbert,  M. Wormit,  
 J. Kussmann,  A. W. Lange,  A. Behn,  Jia Deng,  Xintian Feng,  D. Ghosh,  
 M. Goldey,  P. R. Horn,  L. D. Jacobson,  I. Kaliman,  T. Kus,  A. Landau,  
 Jie Liu,  E. I. Proynov,  R. M. Richard,  R. P. Steele,  E. J. Sundstrom,  
 H. L. Woodcock III,  P. M. Zimmerman,  D. Zuev,  B. Alam,  B. Albrecht,  
 E. Alguire,  S. A. Baeppler,  D. Barton,  Z. Benda,  Y. A. Bernard,  
 E. J. Berquist,  K. B. Bravaya,  H. Burton,  K. Carter-Fenk,  D. Casanova,  
 Chun-Min Chang,  Yunqing Chen,  A. Chien,  K. D. Closser,  M. P. Coons,  
 S. Coriani,  S. Dasgupta,  A. L. Dempwolff,  M. Diedenhofen,  Hainam Do,  
 R. G. Edgar,  Po-Tung Fang,  S. Faraji,  S. Fatehi,  Qingguo Feng,  
 J. Fosso-Tande,  J. Gayvert,  Qinghui Ge,  A. Ghysels,  G. Gidofalvi,  
 J. Gomes,  J. Gonthier,  A. Gunina,  D. Hait,  M. W. D. Hanson-Heine,  
 P. H. P. Harbach,  A. W. Hauser,  M. F. Herbst,  J. E. Herr,  
 E. G. Hohenstein,  Z. C. Holden,  Kerwin Hui,  B. C. Huynh,  T.-C. Jagau,  
 Hyunjun Ji,  B. Kaduk,  K. Khistyaev,  Jaehoon Kim,  P. Klunzinger,  K. Koh,  
 D. Kosenkov,  L. Koulias,  T. Kowalczyk,  C. M. Krauter,  A. Kunitsa,  
 Ka Un Lao,  A. Laurent,  K. V. Lawler,  Joonho Lee,  D. Lefrancois,  
 S. Lehtola,  D. S. Levine,  Yi-Pei Li,  You-Sheng Lin,  Fenglai Liu,  
 Kuan-Yu Liu,  E. Livshits,  M. Loipersberger,  A. Luenser,  P. Manohar,  
 E. Mansoor,  S. F. Manzer,  Shan-Ping Mao,  Yuezhi Mao,  N. Mardirossian,  
 A. V. Marenich,  T. Markovich,  L. A. Martinez-Martinez,  S. A. Maurer,  
 N. J. Mayhall,  S. C. McKenzie,  J.-M. Mewes,  P. Morgante,  A. F. Morrison,  
 J. W. Mullinax,  K. Nanda,  T. S. Nguyen-Beck,  R. Olivares-Amaya,  
 J. A. Parkhill,  S. K. Paul,  F. Pavosevic,  Zheng Pei,  T. M. Perrine,  
 F. Plasser,  P. Pokhilko,  S. Prager,  A. Prociuk,  E. Ramos,  B. Rana,  
 D. R. Rehn,  F. Rob,  M. Scheurer,  M. Schneider,  N. Sergueev,  
 S. M. Sharada,  S. Sharma,  D. W. Small,  T. Stauch,  C. J. Stein,  
 T. Stein,  Yu-Chuan Su,  S. P. Veccham,  Zhen Tao,  A. J. W. Thom,  
 A. Tkatchenko,  T. Tsuchimochi,  N. M. Tubman,  L. Vogt,  M. L. Vidal,  
 O. Vydrov,  M. A. Watson,  J. Wenzel,  M. de Wergifosse,  T. A. Wesolowski,  
 A. White,  J. Witte,  A. Yamada,  Jun Yang,  K. Yao,  S. Yeganeh,  
 S. R. Yost,  Zhi-Qiang You,  A. Zech,  Igor Ying Zhang,  Xing Zhang,  
 Yan Zhao,  Ying Zhu,  B. R. Brooks,  G. K. L. Chan,  C. J. Cramer,  
 M. S. Gordon,  W. J. Hehre,  A. Klamt,  M. W. Schmidt,  C. D. Sherrill,  
 D. G. Truhlar,  A. Aspuru-Guzik,  R. Baer,  A. T. Bell,  N. A. Besley,  
 Jeng-Da Chai,  A. E. DePrince, III,  R. A. DiStasio Jr.,  A. Dreuw,  
 B. D. Dunietz,  T. R. Furlani,  Chao-Ping Hsu,  Yousung Jung,  Jing Kong,  
 D. S. Lambrecht,  WanZhen Liang,  C. Ochsenfeld,  V. A. Rassolov,  
 L. V. Slipchenko,  J. E. Subotnik,  T. Van Voorhis,  J. M. Herbert,  
 A. I. Krylov,  P. M. W. Gill,  M. Head-Gordon

 Contributors to earlier versions of Q-Chem not listed above: 
 R. D. Adamson,  B. Austin,  J. Baker,  G. J. O. Beran,  K. Brandhorst,  
 S. T. Brown,  E. F. C. Byrd,  A. K. Chakraborty,  C.-L. Cheng,  
 Siu Hung Chien,  D. M. Chipman,  D. L. Crittenden,  H. Dachsel,  
 R. J. Doerksen,  A. D. Dutoi,  L. Fusti-Molnar,  W. A. Goddard III,  
 A. Golubeva-Zadorozhnaya,  S. R. Gwaltney,  G. Hawkins,  A. Heyden,  
 S. Hirata,  G. Kedziora,  F. J. Keil,  C. Kelley,  Jihan Kim,  R. A. King,  
 R. Z. Khaliullin,  P. P. Korambath,  W. Kurlancheek,  A. M. Lee,  M. S. Lee,  
 S. V. Levchenko,  Ching Yeh Lin,  D. Liotard,  R. C. Lochan,  I. Lotan,  
 P. E. Maslen,  N. Nair,  D. P. O'Neill,  D. Neuhauser,  E. Neuscamman,  
 C. M. Oana,  R. Olson,  B. Peters,  R. Peverati,  P. A. Pieniazek,  
 Y. M. Rhee,  J. Ritchie,  M. A. Rohrdanz,  E. Rosta,  N. J. Russ,  
 H. F. Schaefer III,  N. E. Schultz,  N. Shenvi,  A. C. Simmonett,  A. Sodt,  
 D. Stuck,  K. S. Thanthiriwatte,  V. Vanovschi,  Tao Wang,  A. Warshel,  
 C. F. Williams,  Q. Wu,  X. Xu,  W. Zhang

 Please cite Q-Chem as follows:
 Y. Shao et al., Mol. Phys. 113, 184-215 (2015)
 DOI: 10.1080/00268976.2014.952696

 Q-Chem 5.2.2 for Intel X86 EM64T Linux

 Parts of Q-Chem use Armadillo 9.800.1 (Horizon Scraper).
 http://arma.sourceforge.net/

 Q-Chem begins on Tue Jul 27 17:47:55 2021  

Host: node024
0

     Scratch files written to /home/ymao90/scratch/CCX_CD_0_MeTHF20210727174754//
Symmetry turned off for PCM/SM12/SMD calculation

Checking the input file for inconsistencies... 	...done.

--------------------------------------------------------------
User input:
--------------------------------------------------------------
$molecule
0 1
C     -2.4083508923    0.9984834764   -2.3662547437
C     -1.5543120384   -0.2118403749   -1.9459885704
C     -2.2384976761   -1.5367925874   -2.3261896725
C     -2.5867463449   -1.5816552836   -3.8234193167
C     -3.4377297730   -0.3731774783   -4.2445934317
C     -2.7551397527    0.9499468362   -3.8636626912
H     -1.5849547626   -2.3750094827   -2.0545927530
H     -0.5831065672   -0.1532425547   -2.4485260558
H     -3.3388117820    1.0024650072   -1.7759883684
H     -1.8720534969    1.9234708349   -2.1213670712
H     -1.6555784977   -1.5918293252   -4.4093866053
H     -3.1102152921   -2.5181807775   -4.0551406051
H     -3.6290653549   -0.4033428377   -5.3251377272
H     -4.4201020066   -0.4306546907   -3.7508934023
H     -1.8320207629    1.0648782183   -4.4511997179
H     -3.3973970401    1.8010825553   -4.1242295555
H     -3.1618885583   -1.6469527918   -1.7346449512
N     -1.2474445251   -0.1731895513   -0.5151412109
H     -2.0131265263   -0.2687147311    0.1418849346
C      0.0000000000    0.0000000000    0.0000000000
H      0.0000000000    0.0000000000    1.1070732462
O      1.0278769477    0.1402881570   -0.6492362509
$end

$rem
JOBTYPE  OPT
METHOD  B3LYP
BASIS  6-31+G(D)
SYMMETRY  FALSE
SYM_IGNORE  TRUE
MEM_TOTAL  8000
MEM_STATIC  2000
MAX_SUB_FILE_NUM  16000
BASIS_LIN_DEP_THRESH  6
THRESH  14
SCF_CONVERGENCE  9
GEN_SCFMAN  TRUE
SCF_GUESS  SAD
FD_MAT_VEC_PROD  FALSE
XC_GRID  000099000590
NL_GRID  1
MAX_SCF_CYCLES  200
GEOM_OPT_TOL_GRADIENT  100
GEOM_OPT_TOL_DISPLACEMENT  100
GEOM_OPT_TOL_ENERGY  10
SOLVENT_METHOD       PCM
$end

$PCM
THEORY                     CPCM
METHOD                     SWIG
SOLVER                     INVERSION
HPOINTS                    302
HEAVYPOINTS                302
$END

$SOLVENT
DIELECTRIC                 6.97
$END

--------------------------------------------------------------
 ----------------------------------------------------------------
             Standard Nuclear Orientation (Angstroms)
    I     Atom           X                Y                Z
 ----------------------------------------------------------------
    1      C      -2.4083508923     0.9984834764    -2.3662547437
    2      C      -1.5543120384    -0.2118403749    -1.9459885704
    3      C      -2.2384976761    -1.5367925874    -2.3261896725
    4      C      -2.5867463449    -1.5816552836    -3.8234193167
    5      C      -3.4377297730    -0.3731774783    -4.2445934317
    6      C      -2.7551397527     0.9499468362    -3.8636626912
    7      H      -1.5849547626    -2.3750094827    -2.0545927530
    8      H      -0.5831065672    -0.1532425547    -2.4485260558
    9      H      -3.3388117820     1.0024650072    -1.7759883684
   10      H      -1.8720534969     1.9234708349    -2.1213670712
   11      H      -1.6555784977    -1.5918293252    -4.4093866053
   12      H      -3.1102152921    -2.5181807775    -4.0551406051
   13      H      -3.6290653549    -0.4033428377    -5.3251377272
   14      H      -4.4201020066    -0.4306546907    -3.7508934023
   15      H      -1.8320207629     1.0648782183    -4.4511997179
   16      H      -3.3973970401     1.8010825553    -4.1242295555
   17      H      -3.1618885583    -1.6469527918    -1.7346449512
   18      N      -1.2474445251    -0.1731895513    -0.5151412109
   19      H      -2.0131265263    -0.2687147311     0.1418849346
   20      C       0.0000000000     0.0000000000     0.0000000000
   21      H       0.0000000000     0.0000000000     1.1070732462
   22      O       1.0278769477     0.1402881570    -0.6492362509
 ----------------------------------------------------------------
 Nuclear Repulsion Energy =         466.63298041 hartrees
 There are       35 alpha and       35 beta electrons
 Requested basis set is 6-31+G(d)
 There are 71 shells and 197 basis functions

 Total QAlloc Memory Limit   8000 MB
 Mega-Array Size      1956 MB
 MEM_STATIC part      2000 MB
 Discretize the solute cavity surface with Lebedev spheres
	Using 302 Lebedev grid points for each H atom
	Using 302 Lebedev grid points for other atoms
	Atomic van der Waals radii will be scaled by 1.20
 Remove points where switching function is < 1.0e-08
 Keep 2742 surface tesserae and discard 3902 interior tesserae
 Molecular Surface Area = 182.898 Angst**2
 A cutoff of  1.0D-14 yielded   2413 shell pairs
 There are     18998 function pairs
 Smallest overlap matrix eigenvalue = 2.48E-05

 Scale SEOQF with 1.000000e-01/1.000000e-01/1.000000e-02

 Standard Electronic Orientation quadrupole field applied
 Nucleus-field energy     =     0.0000000118 hartrees
 Guess from superposition of atomic densities
 Warning:  Energy on first SCF cycle will be non-variational
 SAD guess density has 70.000000 electrons

 -----------------------------------------------------------------------
  General SCF calculation program by
  Eric Jon Sundstrom, Paul Horn, Yuezhi Mao, Dmitri Zuev, Alec White,
  David Stuck, Shaama M.S., Shane Yost, Joonho Lee, David Small,
  Daniel Levine, Susi Lehtola, Hugh Burton, Evgeny Epifanovsky,
  Bang C. Huynh
 -----------------------------------------------------------------------
 Exchange:     0.2000 Hartree-Fock + 0.0800 Slater + 0.7200 B88
 Correlation:  0.1900 VWN1RPA + 0.8100 LYP
 Using Euler-Maclaurin-Lebedev (99,590) quadrature formula
 using 16 threads for integral computing
 -------------------------------------------------------
 OpenMP Integral computing Module                
 Release: version 2.0, May 2017, Q-Chem Inc. Pleasanton 
 -------------------------------------------------------
 A restricted SCF calculation will be
 performed using DIIS
 SCF converges when DIIS error is below 1.0e-09
 ---------------------------------------
  Cycle       Energy         DIIS error
 ---------------------------------------
    1    -406.2319617768      5.08e-02  
    2    -404.4088828700      6.40e-03  
    3    -404.1801978173      1.00e-02  
    4    -404.5825739724      2.03e-03  
    5    -404.5980746035      5.33e-04  
    6    -404.5991834608      1.53e-04  
    7    -404.5992738288      5.50e-05  
    8    -404.5992865183      9.85e-06  
    9    -404.5992869207      2.46e-06  
   10    -404.5992869464      5.31e-07  
   11    -404.5992869475      1.92e-07  
   12    -404.5992869477      2.56e-08  
   13    -404.5992869477      6.43e-09  
   14    -404.5992869477      3.15e-09  
   15    -404.5992869477      5.51e-10  Convergence criterion met
 ---------------------------------------
 SCF time:   CPU 917.65s  wall 61.00s 

************** Final PCM Free Energy Summary **************
 G_electrostatic  =      -0.01495218 hartree =      -9.38263149 kcal/mol
 G_cavitation     =       0.00000000 hartree =       0.00000000 kcal/mol
 G_dispersion     =       0.00000000 hartree =       0.00000000 kcal/mol
 G_repulsion      =       0.00000000 hartree =       0.00000000 kcal/mol
 --------------------------------------------------
 Non-electrostatic Free Energy =       0.00000000 hartree =       0.00000000 kcal/mol
 Total                         =      -0.01495218 hartree =      -9.38263149 kcal/mol
 --------------------------------------------------
 SCF Energy (H0 + V/2)                       =    -404.59928695 
 Solute Internal Energy (H0)                 =    -404.58433477 
 Total Free Energy (H0 + V/2 + non-elec)     =    -404.59928695 hartree
                                             = -253889.88451952 kcal/mol
***********************************************************

 SCF   energy in the final basis set =     -404.5992869477
 Total energy in the final basis set =     -404.5992869477
 
 --------------------------------------------------------------
 
                    Orbital Energies (a.u.)
 --------------------------------------------------------------
 
 Alpha MOs
 -- Occupied --
-19.1357 -14.3695 -10.2941 -10.2247 -10.1837 -10.1832 -10.1811 -10.1809
-10.1792  -1.0461  -0.9309  -0.8243  -0.7421  -0.7418  -0.6362  -0.6121
 -0.5920  -0.5641  -0.5257  -0.4839  -0.4612  -0.4427  -0.4384  -0.4210
 -0.4190  -0.3966  -0.3794  -0.3760  -0.3477  -0.3439  -0.3225  -0.3133
 -0.3105  -0.2712  -0.2597
 -- Virtual --
  0.0078   0.0099   0.0160   0.0242   0.0250   0.0401   0.0481   0.0488
  0.0581   0.0687   0.0693   0.0830   0.0870   0.0947   0.0995   0.1041
  0.1113   0.1167   0.1245   0.1335   0.1403   0.1514   0.1556   0.1614
  0.1702   0.1803   0.1819   0.1886   0.1989   0.2017   0.2108   0.2145
  0.2212   0.2256   0.2313   0.2448   0.2475   0.2552   0.2625   0.2694
  0.2794   0.2807   0.2883   0.2897   0.2944   0.3045   0.3104   0.3263
  0.3290   0.3311   0.3594   0.3715   0.3802   0.3862   0.4163   0.4189
  0.4385   0.4599   0.4898   0.6101   0.6388   0.6567   0.6662   0.6674
  0.6845   0.6979   0.7298   0.7324   0.7475   0.7510   0.7753   0.7816
  0.8025   0.8048   0.8217   0.8506   0.8604   0.9070   0.9530   0.9749
  0.9789   0.9921   1.0217   1.0265   1.0314   1.0552   1.0883   1.1027
  1.1177   1.1226   1.1267   1.1447   1.1613   1.1708   1.1797   1.1889
  1.2380   1.2472   1.2828   1.3267   1.3428   1.3694   1.3917   1.4181
  1.4788   1.4892   1.4916   1.5676   1.5715   1.6116   1.6999   1.7299
  1.7341   1.7543   1.7702   1.8045   1.8505   1.8687   1.9022   1.9069
  1.9117   1.9371   1.9836   2.0120   2.0179   2.0460   2.0555   2.0879
  2.0935   2.1292   2.2016   2.2216   2.2767   2.3103   2.3148   2.3495
  2.4014   2.4101   2.4189   2.4233   2.4510   2.5622   2.5870   2.6238
  2.6729   2.6840   2.7044   2.7616   2.7771   2.8338   2.8682   3.0070
  3.1852   4.0910   4.1942   4.2317   4.2945   4.3334   4.4161   4.6032
  4.6081   4.6739
 --------------------------------------------------------------
 
          Ground-State Mulliken Net Atomic Charges

     Atom                 Charge (a.u.)
  ----------------------------------------
      1 C                    -0.272581
      2 C                    -0.425856
      3 C                    -0.294542
      4 C                    -0.446166
      5 C                    -0.382963
      6 C                    -0.449351
      7 H                     0.210810
      8 H                     0.228708
      9 H                     0.209961
     10 H                     0.210087
     11 H                     0.207154
     12 H                     0.202222
     13 H                     0.199054
     14 H                     0.201499
     15 H                     0.207112
     16 H                     0.202188
     17 H                     0.209932
     18 N                    -0.398516
     19 H                     0.442234
     20 C                     0.343800
     21 H                     0.176507
     22 O                    -0.581293
  ----------------------------------------
  Sum of atomic charges =     0.000000

 -----------------------------------------------------------------
                    Cartesian Multipole Moments
 -----------------------------------------------------------------
    Charge (ESU x 10^10)
                -0.0000
    Dipole Moment (Debye)
         X      -5.3505      Y      -0.7090      Z       0.6168
       Tot       5.4324
    Quadrupole Moments (Debye-Ang)
        XX     -53.9770     XY       0.3607     YY     -56.9684
        XZ       4.5767     YZ       0.6339     ZZ     -52.0746
    Octopole Moments (Debye-Ang^2)
       XXX     279.6063    XXY       8.9554    XYY      99.9426
       YYY      35.3098    XXZ     125.2092    XYZ      -0.3282
       YYZ     127.6238    XZZ      89.8976    YZZ      10.2969
       ZZZ     372.8331
    Hexadecapole Moments (Debye-Ang^3)
      XXXX   -1744.6317   XXXY     -84.1829   XXYY    -361.5125
      XYYY     -88.0345   YYYY    -402.9112   XXXZ    -965.6749
      XXYZ     -35.9226   XYYZ    -321.7580   YYYZ    -109.9437
      XXZZ    -721.3606   XYZZ     -27.5121   YYZZ    -507.2423
      XZZZ    -953.6467   YZZZ    -107.2338   ZZZZ   -2592.5713
 -----------------------------------------------------------------
 Calculating analytic gradient of the SCF energy
 Gradient of SCF Energy
            1           2           3           4           5           6
    1   0.0064856  -0.0004382   0.0062454  -0.0021116   0.0063468  -0.0014784
    2  -0.0030384   0.0000023   0.0044705   0.0039637   0.0004621  -0.0038782
    3  -0.0053892  -0.0014766  -0.0061169   0.0039358   0.0010790   0.0037875
            7           8           9          10          11          12
    1   0.0003152  -0.0016792  -0.0048919  -0.0001457   0.0013637  -0.0013250
    2  -0.0013974  -0.0001918  -0.0000273   0.0009420  -0.0000960  -0.0021343
    3   0.0007969   0.0006443   0.0028907   0.0006212  -0.0008468  -0.0005742
           13          14          15          16          17          18
    1  -0.0006288  -0.0030655   0.0011860  -0.0015247  -0.0050761  -0.0003192
    2  -0.0000958  -0.0002015   0.0002014   0.0017653  -0.0006648  -0.0003122
    3  -0.0019049   0.0015756  -0.0008266  -0.0006195   0.0030769  -0.0079967
           19          20          21          22
    1  -0.0096908   0.0274820  -0.0029818  -0.0140678
    2  -0.0012058   0.0037739  -0.0004186  -0.0019191
    3   0.0068479  -0.0139654   0.0057396   0.0087214
 Max gradient component =       2.748E-02
 RMS gradient           =       5.347E-03
 Computing fast CPCM-SWIG gradient
 Updating gradient with PCM contributions...
 -- total gradient after adding PCM contribution --
---------------------------------------------------
  Atom         X              Y              Z     
---------------------------------------------------
   1       0.001042      -0.000193      -0.000723
   2       0.000070       0.000046       0.000889
   3       0.001062       0.000498      -0.000650
   4      -0.000507      -0.000079       0.000269
   5       0.000396       0.000064      -0.000107
   6      -0.000463      -0.000083       0.000241
   7      -0.000273       0.000247       0.000230
   8       0.000692       0.000164       0.001162
   9      -0.000634       0.000435       0.000065
  10      -0.000230      -0.000362       0.000237
  11      -0.000129      -0.000247       0.000113
  12       0.000200       0.000041      -0.000284
  13      -0.000234      -0.000019       0.000213
  14      -0.000214      -0.000019      -0.000241
  15      -0.000172       0.000255       0.000095
  16       0.000205      -0.000032      -0.000271
  17      -0.000636      -0.000550       0.000060
  18      -0.008918      -0.001294      -0.002283
  19       0.000486       0.000024      -0.001128
  20       0.022894       0.003150      -0.008105
  21      -0.000143      -0.000039       0.002019
  22      -0.014494      -0.002008       0.008198
---------------------------------------------------
 Number of fixed atoms: 0
 Gradient time:  CPU 119.26 s  wall 11.31 s
 Geometry Optimization Parameters
   NAtoms,    NIC,     NZ,  NCons,   NDum,   NFix, NCnnct, MaxDiis
       22     172       0       0       0       0       0       0


** GEOMETRY OPTIMIZATION IN DELOCALIZED INTERNAL COORDINATES **
   Searching for a Minimum

   Optimization Cycle:   1

                       Coordinates (Angstroms)
     ATOM                X               Y               Z
      1  C        -2.4083508923    0.9984834764   -2.3662547437
      2  C        -1.5543120384   -0.2118403749   -1.9459885704
      3  C        -2.2384976761   -1.5367925874   -2.3261896725
      4  C        -2.5867463449   -1.5816552836   -3.8234193167
      5  C        -3.4377297730   -0.3731774783   -4.2445934317
      6  C        -2.7551397527    0.9499468362   -3.8636626912
      7  H        -1.5849547626   -2.3750094827   -2.0545927530
      8  H        -0.5831065672   -0.1532425547   -2.4485260558
      9  H        -3.3388117820    1.0024650072   -1.7759883684
     10  H        -1.8720534969    1.9234708349   -2.1213670712
     11  H        -1.6555784977   -1.5918293252   -4.4093866053
     12  H        -3.1102152921   -2.5181807775   -4.0551406051
     13  H        -3.6290653549   -0.4033428377   -5.3251377272
     14  H        -4.4201020066   -0.4306546907   -3.7508934023
     15  H        -1.8320207629    1.0648782183   -4.4511997179
     16  H        -3.3973970401    1.8010825553   -4.1242295555
     17  H        -3.1618885583   -1.6469527918   -1.7346449512
     18  N        -1.2474445251   -0.1731895513   -0.5151412109
     19  H        -2.0131265263   -0.2687147311    0.1418849346
     20  C         0.0000000000    0.0000000000    0.0000000000
     21  H         0.0000000000    0.0000000000    1.1070732462
     22  O         1.0278769477    0.1402881570   -0.6492362509
   Point Group: c1    Number of degrees of freedom:    60


   Energy is   -404.599286948


 Attempting to generate delocalized internal coordinates
 Initial Hessian constructed with Jon Baker's OPTIMIZE code

 60 Hessian modes will be used to form the next step
  Hessian Eigenvalues:
     0.005967    0.006024    0.006964    0.007193    0.012605    0.019501
     0.019786    0.020845    0.020845    0.037215    0.038526    0.039417
     0.041724    0.048166    0.048450    0.048891    0.055292    0.055631
     0.055746    0.059934    0.066958    0.081508    0.081536    0.081616
     0.082032    0.082133    0.084029    0.087513    0.120967    0.121178
     0.142989    0.159989    0.160000    0.160554    0.174868    0.210947
     0.220000    0.220003    0.272263    0.272658    0.275535    0.286789
     0.287121    0.287175    0.329119    0.334466    0.334727    0.335769
     0.336541    0.336553    0.339301    0.339441    0.339454    0.340119
     0.340274    0.342312    0.364811    0.454000    0.528079    0.937134

 Minimum search - taking simple RFO step
 Searching for Lamda that Minimizes Along All modes
 Value Taken    Lamda =  -0.00059898
 Step Taken.  Stepsize is  0.049590

                             Maximum     Tolerance    Cnvgd?
         Gradient           0.009728      0.000100      NO
         Displacement       0.022229      0.000100      NO
         Energy change     *********      0.000000      NO


 New Cartesian Coordinates Obtained by Inverse Iteration

 Displacement from previous Coordinates is:  0.124650
 ----------------------------------------------------------------
             Standard Nuclear Orientation (Angstroms)
    I     Atom           X                Y                Z
 ----------------------------------------------------------------
    1      C      -2.4013085379     0.9977944911    -2.3692997608
    2      C      -1.5446139961    -0.2123640282    -1.9551626346
    3      C      -2.2325465520    -1.5366905982    -2.3296053956
    4      C      -2.5889620037    -1.5812540165    -3.8247860191
    5      C      -3.4429564095    -0.3731394148    -4.2397481435
    6      C      -2.7560565231     0.9490904822    -3.8646273664
    7      H      -1.5778619466    -2.3763118778    -2.0633038104
    8      H      -0.5793254595    -0.1554249168    -2.4688654463
    9      H      -3.3260867306     0.9979905058    -1.7718193217
   10      H      -1.8637159126     1.9239872319    -2.1293178881
   11      H      -1.6616502714    -1.5904268946    -4.4173386696
   12      H      -3.1152418930    -2.5176800812    -4.0509972607
   13      H      -3.6415101429    -0.4034526474    -5.3192526612
   14      H      -4.4204371993    -0.4297273309    -3.7366204394
   15      H      -1.8362980281     1.0612793573    -4.4584275254
   16      H      -3.4000577295     1.8007665913    -4.1195911433
   17      H      -3.1504869521    -1.6414736951    -1.7304727131
   18      N      -1.2422389196    -0.1735734516    -0.5214218006
   19      H      -2.0130788527    -0.2695135693     0.1314768386
   20      C      -0.0112304884     0.0003636833     0.0103083760
   21      H      -0.0306849744    -0.0003415720     1.1139699598
   22      O       1.0376848206     0.1461343699    -0.6217316948
 ----------------------------------------------------------------
 Nuclear Repulsion Energy =         466.44366317 hartrees
 There are       35 alpha and       35 beta electrons
 Discretize the solute cavity surface with Lebedev spheres
	Using 302 Lebedev grid points for each H atom
	Using 302 Lebedev grid points for other atoms
	Atomic van der Waals radii will be scaled by 1.20
 Remove points where switching function is < 1.0e-08
 Keep 2744 surface tesserae and discard 3900 interior tesserae
 Molecular Surface Area = 183.045 Angst**2
 Applying Cartesian multipole field
    Component          Value
    ---------          -----
     (2,0,0)        1.00000E-11
     (0,2,0)        2.00000E-11
     (0,0,2)       -3.00000E-12
 Nucleus-field energy     =     0.0000000118 hartrees
 Requested basis set is 6-31+G(d)
 There are 71 shells and 197 basis functions
 A cutoff of  1.0D-14 yielded   2411 shell pairs
 There are     18991 function pairs
 Smallest overlap matrix eigenvalue = 2.45E-05
 Guess MOs from SCF MO coefficient file

 -----------------------------------------------------------------------
  General SCF calculation program by
  Eric Jon Sundstrom, Paul Horn, Yuezhi Mao, Dmitri Zuev, Alec White,
  David Stuck, Shaama M.S., Shane Yost, Joonho Lee, David Small,
  Daniel Levine, Susi Lehtola, Hugh Burton, Evgeny Epifanovsky,
  Bang C. Huynh
 -----------------------------------------------------------------------
 Exchange:     0.2000 Hartree-Fock + 0.0800 Slater + 0.7200 B88
 Correlation:  0.1900 VWN1RPA + 0.8100 LYP
 Using Euler-Maclaurin-Lebedev (99,590) quadrature formula
 using 16 threads for integral computing
 -------------------------------------------------------
 OpenMP Integral computing Module                
 Release: version 2.0, May 2017, Q-Chem Inc. Pleasanton 
 -------------------------------------------------------
 A restricted SCF calculation will be
 performed using Roothaan-Hall, DIIS
 SCF converges when DIIS error is below 1.0e-09
 ---------------------------------------
  Cycle       Energy         DIIS error
 ---------------------------------------
    1    -404.5836937591      5.63e-04  Roothaan Step
 ---------------------------------------
  Cycle       Energy         DIIS error
 ---------------------------------------
    1    -404.5911404339      1.11e-03  
    2    -404.5770370931      2.43e-03  
    3    -404.5994808079      1.88e-04  
    4    -404.5996127954      1.05e-04  
    5    -404.5996552554      3.04e-05  
    6    -404.5996589805      8.06e-06  
    7    -404.5996592306      2.69e-06  
    8    -404.5996592654      5.23e-07  
    9    -404.5996592666      2.17e-07  
   10    -404.5996592668      3.80e-08  
   11    -404.5996592668      9.66e-09  
   12    -404.5996592668      2.79e-09  
   13    -404.5996592668      3.52e-10  Convergence criterion met
 ---------------------------------------
 SCF time:   CPU 864.29s  wall 57.00s 

************** Final PCM Free Energy Summary **************
 G_electrostatic  =      -0.01572676 hartree =      -9.86869253 kcal/mol
 G_cavitation     =       0.00000000 hartree =       0.00000000 kcal/mol
 G_dispersion     =       0.00000000 hartree =       0.00000000 kcal/mol
 G_repulsion      =       0.00000000 hartree =       0.00000000 kcal/mol
 --------------------------------------------------
 Non-electrostatic Free Energy =       0.00000000 hartree =       0.00000000 kcal/mol
 Total                         =      -0.01572676 hartree =      -9.86869253 kcal/mol
 --------------------------------------------------
 SCF Energy (H0 + V/2)                       =    -404.59965927 
 Solute Internal Energy (H0)                 =    -404.58393250 
 Total Free Energy (H0 + V/2 + non-elec)     =    -404.59965927 hartree
                                             = -253890.11815328 kcal/mol
***********************************************************

 SCF   energy in the final basis set =     -404.5996592668
 Total energy in the final basis set =     -404.5996592668
 
 --------------------------------------------------------------
 
                    Orbital Energies (a.u.)
 --------------------------------------------------------------
 
 Alpha MOs
 -- Occupied --
-19.1342 -14.3712 -10.2937 -10.2258 -10.1841 -10.1835 -10.1813 -10.1811
-10.1793  -1.0409  -0.9325  -0.8254  -0.7433  -0.7423  -0.6372  -0.6124
 -0.5925  -0.5643  -0.5266  -0.4841  -0.4615  -0.4430  -0.4385  -0.4199
 -0.4185  -0.3967  -0.3797  -0.3749  -0.3483  -0.3446  -0.3231  -0.3132
 -0.3105  -0.2701  -0.2604
 -- Virtual --
  0.0075   0.0095   0.0157   0.0240   0.0250   0.0402   0.0479   0.0487
  0.0583   0.0687   0.0693   0.0828   0.0867   0.0943   0.0995   0.1040
  0.1112   0.1164   0.1246   0.1335   0.1400   0.1511   0.1556   0.1610
  0.1700   0.1803   0.1820   0.1883   0.1987   0.2016   0.2107   0.2136
  0.2208   0.2256   0.2310   0.2444   0.2472   0.2554   0.2632   0.2691
  0.2790   0.2811   0.2879   0.2893   0.2943   0.3042   0.3099   0.3257
  0.3289   0.3307   0.3592   0.3714   0.3832   0.3860   0.4162   0.4192
  0.4385   0.4597   0.4866   0.6093   0.6385   0.6556   0.6659   0.6668
  0.6836   0.6973   0.7297   0.7323   0.7472   0.7509   0.7754   0.7799
  0.8012   0.8046   0.8210   0.8504   0.8613   0.9101   0.9538   0.9741
  0.9785   0.9921   1.0217   1.0269   1.0309   1.0561   1.0882   1.1021
  1.1173   1.1224   1.1265   1.1439   1.1608   1.1708   1.1803   1.1900
  1.2392   1.2468   1.2837   1.3272   1.3433   1.3730   1.3898   1.4181
  1.4792   1.4887   1.4927   1.5673   1.5722   1.6130   1.6930   1.7313
  1.7334   1.7549   1.7699   1.8056   1.8524   1.8697   1.9021   1.9068
  1.9109   1.9392   1.9828   2.0100   2.0181   2.0444   2.0555   2.0857
  2.0926   2.1277   2.2005   2.2177   2.2766   2.3122   2.3144   2.3480
  2.3984   2.4094   2.4188   2.4235   2.4494   2.5620   2.5847   2.6217
  2.6725   2.6839   2.7033   2.7618   2.7782   2.8330   2.8655   2.9988
  3.1855   4.0921   4.1940   4.2301   4.2945   4.3330   4.4159   4.6029
  4.6092   4.6737
 --------------------------------------------------------------
 
          Ground-State Mulliken Net Atomic Charges

     Atom                 Charge (a.u.)
  ----------------------------------------
      1 C                    -0.267948
      2 C                    -0.438846
      3 C                    -0.288479
      4 C                    -0.447697
      5 C                    -0.382483
      6 C                    -0.451066
      7 H                     0.211340
      8 H                     0.229957
      9 H                     0.210554
     10 H                     0.210614
     11 H                     0.207476
     12 H                     0.202458
     13 H                     0.199088
     14 H                     0.201592
     15 H                     0.207417
     16 H                     0.202409
     17 H                     0.210438
     18 N                    -0.388639
     19 H                     0.443396
     20 C                     0.344623
     21 H                     0.177252
     22 O                    -0.593457
  ----------------------------------------
  Sum of atomic charges =     0.000000

 -----------------------------------------------------------------
                    Cartesian Multipole Moments
 -----------------------------------------------------------------
    Charge (ESU x 10^10)
                 0.0000
    Dipole Moment (Debye)
         X      -5.5438      Y      -0.7431      Z       0.5188
       Tot       5.6174
    Quadrupole Moments (Debye-Ang)
        XX     -53.9443     XY       0.3457     YY     -56.9469
        XZ       4.6248     YZ       0.6558     ZZ     -51.7904
    Octopole Moments (Debye-Ang^2)
       XXX     278.6365    XXY       8.8730    XYY      99.6505
       YYY      35.1667    XXZ     124.8558    XYZ      -0.3490
       YYZ     127.4492    XZZ      89.5468    YZZ      10.2116
       ZZZ     371.6555
    Hexadecapole Moments (Debye-Ang^3)
      XXXX   -1742.8219   XXXY     -84.3981   XXYY    -361.0573
      XYYY     -88.2198   YYYY    -402.3491   XXXZ    -965.6791
      XXYZ     -35.9584   XYYZ    -321.7012   YYYZ    -110.0433
      XXZZ    -720.8922   XYZZ     -27.5453   YYZZ    -507.0585
      XZZZ    -953.1324   YZZZ    -107.1650   ZZZZ   -2589.3060
 -----------------------------------------------------------------
 Calculating analytic gradient of the SCF energy
 Gradient of SCF Energy
            1           2           3           4           5           6
    1   0.0057814  -0.0002295   0.0054890  -0.0017432   0.0063991  -0.0011132
    2  -0.0033190  -0.0000366   0.0045297   0.0043121   0.0004353  -0.0040957
    3  -0.0051437  -0.0019118  -0.0059590   0.0039167   0.0013313   0.0038103
            7           8           9          10          11          12
    1   0.0006315  -0.0023547  -0.0044523   0.0000979   0.0016309  -0.0015998
    2  -0.0017716  -0.0003477  -0.0004643   0.0014114   0.0001423  -0.0022495
    3   0.0006181  -0.0010023   0.0030581   0.0004203  -0.0011272  -0.0003115
           13          14          15          16          17          18
    1  -0.0004458  -0.0029950   0.0014852  -0.0018086  -0.0046283   0.0043981
    2  -0.0000772  -0.0001881  -0.0000303   0.0018627  -0.0001128   0.0004746
    3  -0.0022189   0.0019114  -0.0010780  -0.0003714   0.0032707  -0.0061728
           19          20          21          22
    1  -0.0101458   0.0130463  -0.0037913  -0.0036519
    2  -0.0011937   0.0015759  -0.0004546  -0.0004030
    3   0.0082444  -0.0080002   0.0039699   0.0027456
 Max gradient component =       1.305E-02
 RMS gradient           =       3.703E-03
 Computing fast CPCM-SWIG gradient
 Updating gradient with PCM contributions...
 -- total gradient after adding PCM contribution --
---------------------------------------------------
  Atom         X              Y              Z     
---------------------------------------------------
   1       0.000140      -0.000324      -0.000251
   2       0.000545       0.000024       0.000440
   3       0.000146       0.000366      -0.000258
   4      -0.000043       0.000105       0.000088
   5       0.000232       0.000029       0.000148
   6      -0.000015      -0.000146       0.000102
   7      -0.000020      -0.000038       0.000045
   8      -0.000046       0.000014      -0.000372
   9      -0.000063       0.000051       0.000072
  10      -0.000016       0.000033       0.000037
  11       0.000030      -0.000030      -0.000091
  12      -0.000013       0.000004      -0.000036
  13      -0.000040       0.000001      -0.000016
  14      -0.000066      -0.000003      -0.000015
  15       0.000024       0.000037      -0.000086
  16      -0.000013       0.000000      -0.000035
  17      -0.000053      -0.000042       0.000081
  18      -0.004329      -0.000504      -0.000433
  19       0.000316       0.000063       0.000151
  20       0.008125       0.000895      -0.002112
  21      -0.000761      -0.000048       0.000277
  22      -0.004080      -0.000486       0.002264
---------------------------------------------------
 Number of fixed atoms: 0
 Gradient time:  CPU 119.48 s  wall 12.11 s
 Geometry Optimization Parameters
   NAtoms,    NIC,     NZ,  NCons,   NDum,   NFix, NCnnct, MaxDiis
       22     172       0       0       0       0       0       0

 Cartesian Hessian Update
 Hessian updated using BFGS update


** GEOMETRY OPTIMIZATION IN DELOCALIZED INTERNAL COORDINATES **
   Searching for a Minimum

   Optimization Cycle:   2

                       Coordinates (Angstroms)
     ATOM                X               Y               Z
      1  C        -2.4013085379    0.9977944911   -2.3692997608
      2  C        -1.5446139961   -0.2123640282   -1.9551626346
      3  C        -2.2325465520   -1.5366905982   -2.3296053956
      4  C        -2.5889620037   -1.5812540165   -3.8247860191
      5  C        -3.4429564095   -0.3731394148   -4.2397481435
      6  C        -2.7560565231    0.9490904822   -3.8646273664
      7  H        -1.5778619466   -2.3763118778   -2.0633038104
      8  H        -0.5793254595   -0.1554249168   -2.4688654463
      9  H        -3.3260867306    0.9979905058   -1.7718193217
     10  H        -1.8637159126    1.9239872319   -2.1293178881
     11  H        -1.6616502714   -1.5904268946   -4.4173386696
     12  H        -3.1152418930   -2.5176800812   -4.0509972607
     13  H        -3.6415101429   -0.4034526474   -5.3192526612
     14  H        -4.4204371993   -0.4297273309   -3.7366204394
     15  H        -1.8362980281    1.0612793573   -4.4584275254
     16  H        -3.4000577295    1.8007665913   -4.1195911433
     17  H        -3.1504869521   -1.6414736951   -1.7304727131
     18  N        -1.2422389196   -0.1735734516   -0.5214218006
     19  H        -2.0130788527   -0.2695135693    0.1314768386
     20  C        -0.0112304884    0.0003636833    0.0103083760
     21  H        -0.0306849744   -0.0003415720    1.1139699598
     22  O         1.0376848206    0.1461343699   -0.6217316948
   Point Group: c1    Number of degrees of freedom:    60


   Energy is   -404.599659267

 Hessian updated using BFGS update

 60 Hessian modes will be used to form the next step
  Hessian Eigenvalues:
     0.005967    0.006022    0.006969    0.007189    0.012602    0.019501
     0.019753    0.020845    0.020869    0.037221    0.038613    0.039416
     0.042038    0.048450    0.048841    0.048950    0.055294    0.055729
     0.056374    0.060838    0.066958    0.081529    0.081576    0.081666
     0.082040    0.082134    0.084059    0.087513    0.120967    0.121205
     0.142976    0.155090    0.160121    0.164841    0.174878    0.207639
     0.211312    0.223868    0.272349    0.272725    0.275535    0.286914
     0.287119    0.287661    0.328407    0.334351    0.334661    0.335761
     0.336546    0.336748    0.339330    0.339447    0.339467    0.340166
     0.340484    0.342289    0.365756    0.446187    0.457449    0.819944

 Minimum search - taking simple RFO step
 Searching for Lamda that Minimizes Along All modes
 Value Taken    Lamda =  -0.00009588
 Step Taken.  Stepsize is  0.023704

                             Maximum     Tolerance    Cnvgd?
         Gradient           0.003675      0.000100      NO
         Displacement       0.012734      0.000100      NO
         Energy change     -0.000372      0.000000      NO


 New Cartesian Coordinates Obtained by Inverse Iteration

 Displacement from previous Coordinates is:  0.029774
 ----------------------------------------------------------------
             Standard Nuclear Orientation (Angstroms)
    I     Atom           X                Y                Z
 ----------------------------------------------------------------
    1      C      -2.3997461559     0.9984556706    -2.3699638977
    2      C      -1.5425414057    -0.2124658191    -1.9576879861
    3      C      -2.2314346524    -1.5374232171    -2.3301419021
    4      C      -2.5901465631    -1.5817094609    -3.8248496525
    5      C      -3.4446310192    -0.3731351553    -4.2389666139
    6      C      -2.7568111892     0.9494074301    -3.8648366165
    7      H      -1.5761289763    -2.3769510939    -2.0651724915
    8      H      -0.5765748553    -0.1558148091    -2.4695311046
    9      H      -3.3233603011     0.9980614269    -1.7711752917
   10      H      -1.8613732660     1.9244863348    -2.1311559289
   11      H      -1.6633962822    -1.5905730448    -4.4180351750
   12      H      -3.1166047599    -2.5182659218    -4.0500406949
   13      H      -3.6442353920    -0.4035679222    -5.3182471804
   14      H      -4.4211524320    -0.4294293813    -3.7342105377
   15      H      -1.8375301716     1.0607177776    -4.4593141272
   16      H      -3.4006714825     1.8014495542    -4.1188308960
   17      H      -3.1483178706    -1.6413085757    -1.7297329086
   18      N      -1.2392613138    -0.1734522141    -0.5239678539
   19      H      -2.0134196596    -0.2715008878     0.1252000505
   20      C      -0.0164781399     0.0027925171     0.0134060441
   21      H      -0.0342470203    -0.0013802113     1.1162124444
   22      O       1.0393982059     0.1476396216    -0.6155921997
 ----------------------------------------------------------------
 Nuclear Repulsion Energy =         466.38437109 hartrees
 There are       35 alpha and       35 beta electrons
 Discretize the solute cavity surface with Lebedev spheres
	Using 302 Lebedev grid points for each H atom
	Using 302 Lebedev grid points for other atoms
	Atomic van der Waals radii will be scaled by 1.20
 Remove points where switching function is < 1.0e-08
 Keep 2738 surface tesserae and discard 3906 interior tesserae
 Molecular Surface Area = 183.081 Angst**2
 Applying Cartesian multipole field
    Component          Value
    ---------          -----
     (2,0,0)        1.00000E-11
     (0,2,0)        2.00000E-11
     (0,0,2)       -3.00000E-12
 Nucleus-field energy     =     0.0000000118 hartrees
 Requested basis set is 6-31+G(d)
 There are 71 shells and 197 basis functions
 A cutoff of  1.0D-14 yielded   2409 shell pairs
 There are     18981 function pairs
 Smallest overlap matrix eigenvalue = 2.45E-05
 Guess MOs from SCF MO coefficient file

 -----------------------------------------------------------------------
  General SCF calculation program by
  Eric Jon Sundstrom, Paul Horn, Yuezhi Mao, Dmitri Zuev, Alec White,
  David Stuck, Shaama M.S., Shane Yost, Joonho Lee, David Small,
  Daniel Levine, Susi Lehtola, Hugh Burton, Evgeny Epifanovsky,
  Bang C. Huynh
 -----------------------------------------------------------------------
 Exchange:     0.2000 Hartree-Fock + 0.0800 Slater + 0.7200 B88
 Correlation:  0.1900 VWN1RPA + 0.8100 LYP
 Using Euler-Maclaurin-Lebedev (99,590) quadrature formula
 using 16 threads for integral computing
 -------------------------------------------------------
 OpenMP Integral computing Module                
 Release: version 2.0, May 2017, Q-Chem Inc. Pleasanton 
 -------------------------------------------------------
 A restricted SCF calculation will be
 performed using Roothaan-Hall, DIIS
 SCF converges when DIIS error is below 1.0e-09
 ---------------------------------------
  Cycle       Energy         DIIS error
 ---------------------------------------
    1    -404.5837569426      5.13e-04  Roothaan Step
 ---------------------------------------
  Cycle       Energy         DIIS error
 ---------------------------------------
    1    -404.5910988791      1.11e-03  
    2    -404.5770339129      2.43e-03  
    3    -404.5995263777      1.87e-04  
    4    -404.5996625595      1.01e-04  
    5    -404.5997011644      3.10e-05  
    6    -404.5997050484      8.04e-06  
    7    -404.5997052953      2.70e-06  
    8    -404.5997053303      5.20e-07  
    9    -404.5997053315      2.18e-07  
   10    -404.5997053317      3.96e-08  
   11    -404.5997053317      9.69e-09  
   12    -404.5997053317      2.85e-09  
   13    -404.5997053317      3.59e-10  Convergence criterion met
 ---------------------------------------
 SCF time:   CPU 872.91s  wall 58.00s 

************** Final PCM Free Energy Summary **************
 G_electrostatic  =      -0.01605038 hartree =     -10.07176472 kcal/mol
 G_cavitation     =       0.00000000 hartree =       0.00000000 kcal/mol
 G_dispersion     =       0.00000000 hartree =       0.00000000 kcal/mol
 G_repulsion      =       0.00000000 hartree =       0.00000000 kcal/mol
 --------------------------------------------------
 Non-electrostatic Free Energy =       0.00000000 hartree =       0.00000000 kcal/mol
 Total                         =      -0.01605038 hartree =     -10.07176472 kcal/mol
 --------------------------------------------------
 SCF Energy (H0 + V/2)                       =    -404.59970533 
 Solute Internal Energy (H0)                 =    -404.58365495 
 Total Free Energy (H0 + V/2 + non-elec)     =    -404.59970533 hartree
                                             = -253890.14705945 kcal/mol
***********************************************************

 SCF   energy in the final basis set =     -404.5997053317
 Total energy in the final basis set =     -404.5997053317
 
 --------------------------------------------------------------
 
                    Orbital Energies (a.u.)
 --------------------------------------------------------------
 
 Alpha MOs
 -- Occupied --
-19.1333 -14.3719 -10.2934 -10.2262 -10.1844 -10.1838 -10.1815 -10.1812
-10.1795  -1.0387  -0.9333  -0.8256  -0.7438  -0.7425  -0.6378  -0.6126
 -0.5928  -0.5645  -0.5271  -0.4843  -0.4615  -0.4432  -0.4385  -0.4194
 -0.4180  -0.3967  -0.3799  -0.3744  -0.3486  -0.3448  -0.3232  -0.3134
 -0.3106  -0.2694  -0.2607
 -- Virtual --
  0.0074   0.0095   0.0156   0.0239   0.0250   0.0403   0.0479   0.0487
  0.0583   0.0687   0.0693   0.0828   0.0867   0.0942   0.0995   0.1040
  0.1112   0.1164   0.1247   0.1335   0.1401   0.1509   0.1556   0.1609
  0.1698   0.1799   0.1821   0.1883   0.1987   0.2017   0.2104   0.2134
  0.2207   0.2254   0.2311   0.2441   0.2470   0.2552   0.2634   0.2691
  0.2788   0.2810   0.2877   0.2891   0.2943   0.3043   0.3096   0.3254
  0.3289   0.3307   0.3591   0.3713   0.3844   0.3861   0.4160   0.4199
  0.4387   0.4596   0.4852   0.6088   0.6386   0.6552   0.6658   0.6668
  0.6833   0.6970   0.7296   0.7323   0.7473   0.7508   0.7752   0.7792
  0.8007   0.8043   0.8204   0.8503   0.8618   0.9107   0.9533   0.9741
  0.9784   0.9921   1.0217   1.0270   1.0306   1.0564   1.0885   1.1019
  1.1172   1.1223   1.1263   1.1435   1.1607   1.1706   1.1801   1.1899
  1.2395   1.2471   1.2838   1.3278   1.3435   1.3730   1.3892   1.4174
  1.4788   1.4886   1.4933   1.5667   1.5725   1.6145   1.6929   1.7312
  1.7328   1.7555   1.7696   1.8059   1.8526   1.8703   1.9018   1.9063
  1.9106   1.9391   1.9822   2.0099   2.0181   2.0441   2.0558   2.0849
  2.0922   2.1279   2.1997   2.2163   2.2775   2.3129   2.3149   2.3470
  2.3967   2.4085   2.4181   2.4233   2.4487   2.5609   2.5843   2.6206
  2.6719   2.6835   2.7039   2.7613   2.7798   2.8326   2.8632   2.9955
  3.1868   4.0927   4.1937   4.2295   4.2945   4.3328   4.4151   4.6026
  4.6090   4.6733
 --------------------------------------------------------------
 
          Ground-State Mulliken Net Atomic Charges

     Atom                 Charge (a.u.)
  ----------------------------------------
      1 C                    -0.266097
      2 C                    -0.442085
      3 C                    -0.287509
      4 C                    -0.448126
      5 C                    -0.382401
      6 C                    -0.451723
      7 H                     0.211677
      8 H                     0.230231
      9 H                     0.210813
     10 H                     0.210900
     11 H                     0.207617
     12 H                     0.202595
     13 H                     0.199199
     14 H                     0.201646
     15 H                     0.207543
     16 H                     0.202533
     17 H                     0.210698
     18 N                    -0.384424
     19 H                     0.443596
     20 C                     0.344094
     21 H                     0.178302
     22 O                    -0.599079
  ----------------------------------------
  Sum of atomic charges =     0.000000

 -----------------------------------------------------------------
                    Cartesian Multipole Moments
 -----------------------------------------------------------------
    Charge (ESU x 10^10)
                -0.0000
    Dipole Moment (Debye)
         X      -5.6248      Y      -0.7577      Z       0.4925
       Tot       5.6969
    Quadrupole Moments (Debye-Ang)
        XX     -53.9033     XY       0.3512     YY     -56.9142
        XZ       4.6961     YZ       0.6672     ZZ     -51.7034
    Octopole Moments (Debye-Ang^2)
       XXX     278.2404    XXY       8.8027    XYY      99.4986
       YYY      35.0540    XXZ     124.6308    XYZ      -0.3675
       YYZ     127.3452    XZZ      89.3484    YZZ      10.1545
       ZZZ     371.3217
    Hexadecapole Moments (Debye-Ang^3)
      XXXX   -1742.0972   XXXY     -84.3865   XXYY    -360.8465
      XYYY     -88.2176   YYYY    -402.2996   XXXZ    -965.2905
      XXYZ     -35.9081   XYYZ    -321.5451   YYYZ    -109.9762
      XXZZ    -720.3467   XYZZ     -27.5096   YYZZ    -506.8307
      XZZZ    -952.5955   YZZZ    -107.0617   ZZZZ   -2588.0608
 -----------------------------------------------------------------
 Calculating analytic gradient of the SCF energy
 Gradient of SCF Energy
            1           2           3           4           5           6
    1   0.0056332  -0.0007749   0.0053084  -0.0017368   0.0062562  -0.0011396
    2  -0.0030283  -0.0001041   0.0041799   0.0042153   0.0004097  -0.0039572
    3  -0.0050034  -0.0021194  -0.0058946   0.0039151   0.0011676   0.0037914
            7           8           9          10          11          12
    1   0.0006943  -0.0023491  -0.0044134   0.0001391   0.0016352  -0.0016139
    2  -0.0018238  -0.0003543  -0.0005317   0.0014728   0.0001905  -0.0023199
    3   0.0005884  -0.0005759   0.0030043   0.0003935  -0.0010427  -0.0002579
           13          14          15          16          17          18
    1  -0.0004143  -0.0029488   0.0014960  -0.0018246  -0.0046062   0.0088708
    2  -0.0000783  -0.0001845  -0.0000851   0.0019245  -0.0000574   0.0008891
    3  -0.0022661   0.0019724  -0.0009973  -0.0003214   0.0032161  -0.0061236
           19          20          21          22
    1  -0.0104585   0.0050456  -0.0031644   0.0003658
    2  -0.0013147   0.0015139  -0.0007198  -0.0002367
    3   0.0082035  -0.0057790   0.0036934   0.0004357
 Max gradient component =       1.046E-02
 RMS gradient           =       3.379E-03
 Computing fast CPCM-SWIG gradient
 Updating gradient with PCM contributions...
 -- total gradient after adding PCM contribution --
---------------------------------------------------
  Atom         X              Y              Z     
---------------------------------------------------
   1      -0.000088       0.000026      -0.000037
   2       0.000051      -0.000047       0.000250
   3      -0.000097      -0.000059      -0.000097
   4      -0.000010      -0.000060       0.000034
   5       0.000002      -0.000001      -0.000020
   6      -0.000018       0.000051       0.000032
   7       0.000020      -0.000050       0.000004
   8      -0.000022       0.000011       0.000064
   9       0.000037      -0.000007      -0.000030
  10       0.000014       0.000061       0.000002
  11       0.000009       0.000016       0.000007
  12      -0.000004      -0.000028       0.000015
  13      -0.000003       0.000002      -0.000032
  14       0.000016       0.000003       0.000011
  15       0.000013      -0.000016       0.000007
  16      -0.000005       0.000031       0.000015
  17       0.000038       0.000013      -0.000030
  18       0.000075      -0.000115      -0.000412
  19       0.000124      -0.000017       0.000126
  20       0.000053       0.000818       0.000101
  21      -0.000092      -0.000295      -0.000009
  22      -0.000116      -0.000337      -0.000002
---------------------------------------------------
 Number of fixed atoms: 0
 Gradient time:  CPU 120.15 s  wall 12.05 s
 Geometry Optimization Parameters
   NAtoms,    NIC,     NZ,  NCons,   NDum,   NFix, NCnnct, MaxDiis
       22     172       0       0       0       0       0       0

 Cartesian Hessian Update
 Hessian updated using BFGS update


** GEOMETRY OPTIMIZATION IN DELOCALIZED INTERNAL COORDINATES **
   Searching for a Minimum

   Optimization Cycle:   3

                       Coordinates (Angstroms)
     ATOM                X               Y               Z
      1  C        -2.3997461559    0.9984556706   -2.3699638977
      2  C        -1.5425414057   -0.2124658191   -1.9576879861
      3  C        -2.2314346524   -1.5374232171   -2.3301419021
      4  C        -2.5901465631   -1.5817094609   -3.8248496525
      5  C        -3.4446310192   -0.3731351553   -4.2389666139
      6  C        -2.7568111892    0.9494074301   -3.8648366165
      7  H        -1.5761289763   -2.3769510939   -2.0651724915
      8  H        -0.5765748553   -0.1558148091   -2.4695311046
      9  H        -3.3233603011    0.9980614269   -1.7711752917
     10  H        -1.8613732660    1.9244863348   -2.1311559289
     11  H        -1.6633962822   -1.5905730448   -4.4180351750
     12  H        -3.1166047599   -2.5182659218   -4.0500406949
     13  H        -3.6442353920   -0.4035679222   -5.3182471804
     14  H        -4.4211524320   -0.4294293813   -3.7342105377
     15  H        -1.8375301716    1.0607177776   -4.4593141272
     16  H        -3.4006714825    1.8014495542   -4.1188308960
     17  H        -3.1483178706   -1.6413085757   -1.7297329086
     18  N        -1.2392613138   -0.1734522141   -0.5239678539
     19  H        -2.0134196596   -0.2715008878    0.1252000505
     20  C        -0.0164781399    0.0027925171    0.0134060441
     21  H        -0.0342470203   -0.0013802113    1.1162124444
     22  O         1.0393982059    0.1476396216   -0.6155921997
   Point Group: c1    Number of degrees of freedom:    60


   Energy is   -404.599705332

 Hessian updated using BFGS update

 60 Hessian modes will be used to form the next step
  Hessian Eigenvalues:
     0.005966    0.006018    0.006968    0.007153    0.012580    0.019500
     0.019669    0.020840    0.022747    0.037214    0.038548    0.039417
     0.041992    0.048449    0.048880    0.049194    0.055293    0.055728
     0.056722    0.060851    0.066955    0.081528    0.081574    0.081665
     0.082090    0.082144    0.084013    0.087514    0.120967    0.121197
     0.142995    0.146888    0.160317    0.162733    0.174889    0.210263
     0.216023    0.223921    0.272390    0.272903    0.275535    0.286949
     0.287079    0.289405    0.328337    0.334525    0.334790    0.335766
     0.336546    0.336721    0.339322    0.339442    0.339457    0.340157
     0.340434    0.342449    0.365109    0.445109    0.457844    0.805403

 Minimum search - taking simple RFO step
 Searching for Lamda that Minimizes Along All modes
 Value Taken    Lamda =  -0.00001574
 Step Taken.  Stepsize is  0.026007

                             Maximum     Tolerance    Cnvgd?
         Gradient           0.000452      0.000100      NO
         Displacement       0.018090      0.000100      NO
         Energy change     -0.000046      0.000000      NO


 New Cartesian Coordinates Obtained by Inverse Iteration

 Displacement from previous Coordinates is:  0.037319
 ----------------------------------------------------------------
             Standard Nuclear Orientation (Angstroms)
    I     Atom           X                Y                Z
 ----------------------------------------------------------------
    1      C      -2.3977595327     0.9971342196    -2.3692922397
    2      C      -1.5417616236    -0.2149279252    -1.9582205138
    3      C      -2.2321911785    -1.5388667891    -2.3309001949
    4      C      -2.5915728887    -1.5818240637    -3.8255668647
    5      C      -3.4450737854    -0.3722242915    -4.2385938822
    6      C      -2.7554979908     0.9492701227    -3.8641206881
    7      H      -1.5775389511    -2.3790448917    -2.0667261562
    8      H      -0.5756228107    -0.1590381313    -2.4698777138
    9      H      -3.3211192087     0.9974425687    -1.7700490821
   10      H      -1.8580724250     1.9222137387    -2.1301914405
   11      H      -1.6650961720    -1.5913068721    -4.4191140065
   12      H      -3.1190968365    -2.5176342044    -4.0511875589
   13      H      -3.6450902065    -0.4018727655    -5.3177656453
   14      H      -4.4214471704    -0.4277340626    -3.7334782227
   15      H      -1.8363625233     1.0598510309    -4.4589061457
   16      H      -3.3985029831     1.8020930015    -4.1174879398
   17      H      -3.1489484828    -1.6421291138    -1.7301201995
   18      N      -1.2387562723    -0.1774345989    -0.5241266318
   19      H      -2.0141485409    -0.2761996243     0.1235531276
   20      C      -0.0172170529     0.0003639952     0.0138539764
   21      H      -0.0353007629     0.0077188539     1.1165285551
   22      O       1.0375126965     0.1601824213    -0.6148450530
 ----------------------------------------------------------------
 Nuclear Repulsion Energy =         466.39347203 hartrees
 There are       35 alpha and       35 beta electrons
 Discretize the solute cavity surface with Lebedev spheres
	Using 302 Lebedev grid points for each H atom
	Using 302 Lebedev grid points for other atoms
	Atomic van der Waals radii will be scaled by 1.20
 Remove points where switching function is < 1.0e-08
 Keep 2737 surface tesserae and discard 3907 interior tesserae
 Molecular Surface Area = 183.080 Angst**2
 Applying Cartesian multipole field
    Component          Value
    ---------          -----
     (2,0,0)        1.00000E-11
     (0,2,0)        2.00000E-11
     (0,0,2)       -3.00000E-12
 Nucleus-field energy     =     0.0000000118 hartrees
 Requested basis set is 6-31+G(d)
 There are 71 shells and 197 basis functions
 A cutoff of  1.0D-14 yielded   2409 shell pairs
 There are     18981 function pairs
 Smallest overlap matrix eigenvalue = 2.45E-05
 Guess MOs from SCF MO coefficient file

 -----------------------------------------------------------------------
  General SCF calculation program by
  Eric Jon Sundstrom, Paul Horn, Yuezhi Mao, Dmitri Zuev, Alec White,
  David Stuck, Shaama M.S., Shane Yost, Joonho Lee, David Small,
  Daniel Levine, Susi Lehtola, Hugh Burton, Evgeny Epifanovsky,
  Bang C. Huynh
 -----------------------------------------------------------------------
 Exchange:     0.2000 Hartree-Fock + 0.0800 Slater + 0.7200 B88
 Correlation:  0.1900 VWN1RPA + 0.8100 LYP
 Using Euler-Maclaurin-Lebedev (99,590) quadrature formula
 using 16 threads for integral computing
 -------------------------------------------------------
 OpenMP Integral computing Module                
 Release: version 2.0, May 2017, Q-Chem Inc. Pleasanton 
 -------------------------------------------------------
 A restricted SCF calculation will be
 performed using Roothaan-Hall, DIIS
 SCF converges when DIIS error is below 1.0e-09
 ---------------------------------------
  Cycle       Energy         DIIS error
 ---------------------------------------
    1    -404.5835175978      5.23e-04  Roothaan Step
 ---------------------------------------
  Cycle       Energy         DIIS error
 ---------------------------------------
    1    -404.5912378448      1.09e-03  
    2    -404.5779389304      2.38e-03  
    3    -404.5995180289      1.85e-04  
    4    -404.5996514570      9.93e-05  
    5    -404.5996890104      3.12e-05  
    6    -404.5996929290      8.14e-06  
    7    -404.5996931810      2.73e-06  
    8    -404.5996932167      5.27e-07  
    9    -404.5996932179      2.19e-07  
   10    -404.5996932181      4.01e-08  
   11    -404.5996932181      9.70e-09  
   12    -404.5996932181      2.87e-09  
   13    -404.5996932181      3.61e-10  Convergence criterion met
 ---------------------------------------
 SCF time:   CPU 858.35s  wall 57.00s 

************** Final PCM Free Energy Summary **************
 G_electrostatic  =      -0.01609878 hartree =     -10.10213475 kcal/mol
 G_cavitation     =       0.00000000 hartree =       0.00000000 kcal/mol
 G_dispersion     =       0.00000000 hartree =       0.00000000 kcal/mol
 G_repulsion      =       0.00000000 hartree =       0.00000000 kcal/mol
 --------------------------------------------------
 Non-electrostatic Free Energy =       0.00000000 hartree =       0.00000000 kcal/mol
 Total                         =      -0.01609878 hartree =     -10.10213475 kcal/mol
 --------------------------------------------------
 SCF Energy (H0 + V/2)                       =    -404.59969322 
 Solute Internal Energy (H0)                 =    -404.58359444 
 Total Free Energy (H0 + V/2 + non-elec)     =    -404.59969322 hartree
                                             = -253890.13945804 kcal/mol
***********************************************************

 SCF   energy in the final basis set =     -404.5996932181
 Total energy in the final basis set =     -404.5996932181
 
 --------------------------------------------------------------
 
                    Orbital Energies (a.u.)
 --------------------------------------------------------------
 
 Alpha MOs
 -- Occupied --
-19.1331 -14.3720 -10.2934 -10.2263 -10.1844 -10.1838 -10.1815 -10.1812
-10.1795  -1.0383  -0.9334  -0.8257  -0.7439  -0.7425  -0.6378  -0.6126
 -0.5929  -0.5645  -0.5271  -0.4843  -0.4615  -0.4433  -0.4385  -0.4195
 -0.4177  -0.3966  -0.3799  -0.3743  -0.3487  -0.3448  -0.3232  -0.3134
 -0.3106  -0.2692  -0.2607
 -- Virtual --
  0.0074   0.0094   0.0156   0.0239   0.0250   0.0403   0.0479   0.0487
  0.0583   0.0687   0.0693   0.0828   0.0867   0.0942   0.0995   0.1040
  0.1112   0.1164   0.1247   0.1335   0.1401   0.1509   0.1556   0.1609
  0.1698   0.1799   0.1821   0.1883   0.1985   0.2019   0.2103   0.2134
  0.2207   0.2254   0.2312   0.2442   0.2470   0.2551   0.2635   0.2691
  0.2788   0.2809   0.2877   0.2891   0.2943   0.3043   0.3096   0.3254
  0.3289   0.3308   0.3591   0.3713   0.3847   0.3862   0.4160   0.4200
  0.4386   0.4595   0.4850   0.6088   0.6387   0.6551   0.6658   0.6667
  0.6833   0.6970   0.7296   0.7323   0.7463   0.7514   0.7749   0.7794
  0.8005   0.8043   0.8202   0.8506   0.8618   0.9109   0.9531   0.9741
  0.9784   0.9921   1.0216   1.0271   1.0306   1.0564   1.0886   1.1020
  1.1171   1.1222   1.1264   1.1434   1.1607   1.1706   1.1801   1.1899
  1.2398   1.2466   1.2839   1.3279   1.3436   1.3729   1.3890   1.4172
  1.4800   1.4869   1.4935   1.5676   1.5721   1.6144   1.6928   1.7312
  1.7329   1.7556   1.7694   1.8061   1.8521   1.8712   1.9017   1.9064
  1.9106   1.9390   1.9821   2.0098   2.0181   2.0440   2.0559   2.0849
  2.0920   2.1279   2.1998   2.2159   2.2780   2.3119   2.3154   2.3470
  2.3964   2.4084   2.4182   2.4234   2.4486   2.5607   2.5844   2.6205
  2.6717   2.6833   2.7041   2.7615   2.7799   2.8325   2.8629   2.9948
  3.1869   4.0928   4.1937   4.2294   4.2945   4.3328   4.4149   4.6026
  4.6091   4.6732
 --------------------------------------------------------------
 
          Ground-State Mulliken Net Atomic Charges

     Atom                 Charge (a.u.)
  ----------------------------------------
      1 C                    -0.266009
      2 C                    -0.442497
      3 C                    -0.286927
      4 C                    -0.448242
      5 C                    -0.382382
      6 C                    -0.451995
      7 H                     0.211715
      8 H                     0.230315
      9 H                     0.210867
     10 H                     0.211004
     11 H                     0.207638
     12 H                     0.202588
     13 H                     0.199225
     14 H                     0.201666
     15 H                     0.207590
     16 H                     0.202566
     17 H                     0.210696
     18 N                    -0.384137
     19 H                     0.443772
     20 C                     0.343813
     21 H                     0.178479
     22 O                    -0.599745
  ----------------------------------------
  Sum of atomic charges =     0.000000

 -----------------------------------------------------------------
                    Cartesian Multipole Moments
 -----------------------------------------------------------------
    Charge (ESU x 10^10)
                 0.0000
    Dipole Moment (Debye)
         X      -5.6326      Y      -0.7891      Z       0.4878
       Tot       5.7085
    Quadrupole Moments (Debye-Ang)
        XX     -53.8771     XY       0.3121     YY     -56.9249
        XZ       4.7047     YZ       0.6969     ZZ     -51.6883
    Octopole Moments (Debye-Ang^2)
       XXX     278.1919    XXY       8.7376    XYY      99.4762
       YYY      35.0143    XXZ     124.5832    XYZ      -0.3397
       YYZ     127.3451    XZZ      89.3181    YZZ      10.1395
       ZZZ     371.2412
    Hexadecapole Moments (Debye-Ang^3)
      XXXX   -1741.4864   XXXY     -84.9960   XXYY    -360.8108
      XYYY     -88.8792   YYYY    -402.5822   XXXZ    -965.1363
      XXYZ     -35.9547   XYYZ    -321.5300   YYYZ    -110.1353
      XXZZ    -720.1449   XYZZ     -27.7452   YYZZ    -506.8488
      XZZZ    -952.3877   YZZZ    -107.1971   ZZZZ   -2587.6197
 -----------------------------------------------------------------
 Calculating analytic gradient of the SCF energy
 Gradient of SCF Energy
            1           2           3           4           5           6
    1   0.0056315  -0.0008738   0.0053826  -0.0017121   0.0062153  -0.0011116
    2  -0.0030112   0.0000319   0.0041951   0.0042880   0.0003967  -0.0039651
    3  -0.0049880  -0.0022664  -0.0057812   0.0038951   0.0011529   0.0037478
            7           8           9          10          11          12
    1   0.0007002  -0.0023111  -0.0044447   0.0001188   0.0016341  -0.0016161
    2  -0.0017922  -0.0003890  -0.0005331   0.0013885   0.0001781  -0.0022953
    3   0.0005861  -0.0005747   0.0030298   0.0003847  -0.0010388  -0.0002622
           13          14          15          16          17          18
    1  -0.0004035  -0.0029605   0.0014799  -0.0018193  -0.0046420   0.0093395
    2  -0.0000786  -0.0001848  -0.0000825   0.0018914  -0.0000589   0.0015159
    3  -0.0022393   0.0019712  -0.0009935  -0.0003339   0.0032469  -0.0058799
           19          20          21          22
    1  -0.0106532   0.0042582  -0.0030981   0.0008860
    2  -0.0011559  -0.0016705   0.0003513   0.0009802
    3   0.0080861  -0.0055548   0.0036650   0.0001469
 Max gradient component =       1.065E-02
 RMS gradient           =       3.378E-03
 Computing fast CPCM-SWIG gradient
 Updating gradient with PCM contributions...
 -- total gradient after adding PCM contribution --
---------------------------------------------------
  Atom         X              Y              Z     
---------------------------------------------------
   1      -0.000077       0.000029      -0.000014
   2      -0.000048       0.000091       0.000100
   3      -0.000051      -0.000090       0.000041
   4       0.000024      -0.000009      -0.000011
   5      -0.000053      -0.000005      -0.000036
   6       0.000006       0.000040      -0.000008
   7       0.000005       0.000003      -0.000005
   8       0.000015      -0.000006       0.000068
   9       0.000016      -0.000008      -0.000012
  10       0.000012      -0.000001      -0.000003
  11      -0.000004       0.000007       0.000016
  12       0.000000       0.000003       0.000013
  13       0.000010       0.000001       0.000000
  14       0.000011       0.000002       0.000005
  15       0.000001      -0.000009       0.000013
  16       0.000001      -0.000002       0.000003
  17       0.000014       0.000011      -0.000014
  18       0.000523       0.000532      -0.000181
  19      -0.000035       0.000135       0.000027
  20      -0.000744      -0.002402       0.000314
  21      -0.000021       0.000762      -0.000035
  22       0.000394       0.000917      -0.000280
---------------------------------------------------
 Number of fixed atoms: 0
 Gradient time:  CPU 119.18 s  wall 11.14 s
 Geometry Optimization Parameters
   NAtoms,    NIC,     NZ,  NCons,   NDum,   NFix, NCnnct, MaxDiis
       22     172       0       0       0       0       0       0

 Cartesian Hessian Update
 Hessian updated using BFGS update


** GEOMETRY OPTIMIZATION IN DELOCALIZED INTERNAL COORDINATES **
   Searching for a Minimum

   Optimization Cycle:   4

                       Coordinates (Angstroms)
     ATOM                X               Y               Z
      1  C        -2.3977595327    0.9971342196   -2.3692922397
      2  C        -1.5417616236   -0.2149279252   -1.9582205138
      3  C        -2.2321911785   -1.5388667891   -2.3309001949
      4  C        -2.5915728887   -1.5818240637   -3.8255668647
      5  C        -3.4450737854   -0.3722242915   -4.2385938822
      6  C        -2.7554979908    0.9492701227   -3.8641206881
      7  H        -1.5775389511   -2.3790448917   -2.0667261562
      8  H        -0.5756228107   -0.1590381313   -2.4698777138
      9  H        -3.3211192087    0.9974425687   -1.7700490821
     10  H        -1.8580724250    1.9222137387   -2.1301914405
     11  H        -1.6650961720   -1.5913068721   -4.4191140065
     12  H        -3.1190968365   -2.5176342044   -4.0511875589
     13  H        -3.6450902065   -0.4018727655   -5.3177656453
     14  H        -4.4214471704   -0.4277340626   -3.7334782227
     15  H        -1.8363625233    1.0598510309   -4.4589061457
     16  H        -3.3985029831    1.8020930015   -4.1174879398
     17  H        -3.1489484828   -1.6421291138   -1.7301201995
     18  N        -1.2387562723   -0.1774345989   -0.5241266318
     19  H        -2.0141485409   -0.2761996243    0.1235531276
     20  C        -0.0172170529    0.0003639952    0.0138539764
     21  H        -0.0353007629    0.0077188539    1.1165285551
     22  O         1.0375126965    0.1601824213   -0.6148450530
   Point Group: c1    Number of degrees of freedom:    60


   Energy is   -404.599693218

 Hessian updated using BFGS update

 60 Hessian modes will be used to form the next step
  Hessian Eigenvalues:
     0.005966    0.006018    0.006966    0.007079    0.012605    0.019501
     0.019743    0.020846    0.037209    0.038506    0.039416    0.041930
     0.048449    0.048864    0.049019    0.055289    0.055716    0.056432
     0.060835    0.066923    0.081457    0.081546    0.081634    0.082020
     0.082136    0.083816    0.084718    0.087627    0.120967    0.121202
     0.143018    0.146098    0.159529    0.162726    0.175091    0.210064
     0.212325    0.223884    0.272307    0.272644    0.275533    0.286800
     0.286971    0.288033    0.328383    0.334376    0.334672    0.335764
     0.336546    0.336721    0.339258    0.339407    0.339450    0.340026
     0.340228    0.342349    0.363453    0.447105    0.458357    0.809789

 Minimum search - taking simple RFO step
 Searching for Lamda that Minimizes Along All modes
 Value Taken    Lamda =  -0.00002968
 Step Taken.  Stepsize is  0.018373

                             Maximum     Tolerance    Cnvgd?
         Gradient           0.001253      0.000100      NO
         Displacement       0.014794      0.000100      NO
         Energy change      0.000012      0.000000      NO


 New Cartesian Coordinates Obtained by Inverse Iteration

 Displacement from previous Coordinates is:  0.020474
 ----------------------------------------------------------------
             Standard Nuclear Orientation (Angstroms)
    I     Atom           X                Y                Z
 ----------------------------------------------------------------
    1      C      -2.3986595329     0.9977701349    -2.3696814071
    2      C      -1.5421781494    -0.2135983881    -1.9579007985
    3      C      -2.2317623238    -1.5379144267    -2.3303895768
    4      C      -2.5907893538    -1.5816487166    -3.8251157546
    5      C      -3.4448065232    -0.3726929751    -4.2386863058
    6      C      -2.7559942195     0.9492117602    -3.8645719309
    7      H      -1.5767645470    -2.3776661347    -2.0657205526
    8      H      -0.5761745045    -0.1573361316    -2.4698717703
    9      H      -3.3221972705     0.9979251720    -1.7706370216
   10      H      -1.8595411234     1.9232206859    -2.1307520897
   11      H      -1.6642365236    -1.5909437627    -4.4185870614
   12      H      -3.1178428984    -2.5177718027    -4.0505482071
   13      H      -3.6446622246    -0.4028168463    -5.3178767370
   14      H      -4.4212895371    -0.4285295505    -3.7337800901
   15      H      -1.8368409844     1.0601418567    -4.4592994980
   16      H      -3.3994324926     1.8015717526    -4.1184045451
   17      H      -3.1486187316    -1.6415540960    -1.7297478116
   18      N      -1.2395566869    -0.1753662256    -0.5236856554
   19      H      -2.0144658811    -0.2749534399     0.1243788109
   20      C      -0.0170296830     0.0031561378     0.0134996310
   21      H      -0.0339607817     0.0017838967     1.1163207137
   22      O       1.0381392708     0.1540437181    -0.6155768623
 ----------------------------------------------------------------
 Nuclear Repulsion Energy =         466.40025344 hartrees
 There are       35 alpha and       35 beta electrons
 Discretize the solute cavity surface with Lebedev spheres
	Using 302 Lebedev grid points for each H atom
	Using 302 Lebedev grid points for other atoms
	Atomic van der Waals radii will be scaled by 1.20
 Remove points where switching function is < 1.0e-08
 Keep 2735 surface tesserae and discard 3909 interior tesserae
 Molecular Surface Area = 183.078 Angst**2
 Applying Cartesian multipole field
    Component          Value
    ---------          -----
     (2,0,0)        1.00000E-11
     (0,2,0)        2.00000E-11
     (0,0,2)       -3.00000E-12
 Nucleus-field energy     =     0.0000000118 hartrees
 Requested basis set is 6-31+G(d)
 There are 71 shells and 197 basis functions
 A cutoff of  1.0D-14 yielded   2409 shell pairs
 There are     18981 function pairs
 Smallest overlap matrix eigenvalue = 2.45E-05
 Guess MOs from SCF MO coefficient file

 -----------------------------------------------------------------------
  General SCF calculation program by
  Eric Jon Sundstrom, Paul Horn, Yuezhi Mao, Dmitri Zuev, Alec White,
  David Stuck, Shaama M.S., Shane Yost, Joonho Lee, David Small,
  Daniel Levine, Susi Lehtola, Hugh Burton, Evgeny Epifanovsky,
  Bang C. Huynh
 -----------------------------------------------------------------------
 Exchange:     0.2000 Hartree-Fock + 0.0800 Slater + 0.7200 B88
 Correlation:  0.1900 VWN1RPA + 0.8100 LYP
 Using Euler-Maclaurin-Lebedev (99,590) quadrature formula
 using 16 threads for integral computing
 -------------------------------------------------------
 OpenMP Integral computing Module                
 Release: version 2.0, May 2017, Q-Chem Inc. Pleasanton 
 -------------------------------------------------------
 A restricted SCF calculation will be
 performed using Roothaan-Hall, DIIS
 SCF converges when DIIS error is below 1.0e-09
 ---------------------------------------
  Cycle       Energy         DIIS error
 ---------------------------------------
    1    -404.5835943029      5.17e-04  Roothaan Step
 ---------------------------------------
  Cycle       Energy         DIIS error
 ---------------------------------------
    1    -404.5913629642      1.08e-03  
    2    -404.5784572017      2.35e-03  
    3    -404.5995359193      1.83e-04  
    4    -404.5996671415      9.84e-05  
    5    -404.5997039606      3.12e-05  
    6    -404.5997078754      8.15e-06  
    7    -404.5997081272      2.73e-06  
    8    -404.5997081628      5.27e-07  
    9    -404.5997081640      2.19e-07  
   10    -404.5997081642      4.02e-08  
   11    -404.5997081642      9.67e-09  
   12    -404.5997081642      2.86e-09  
   13    -404.5997081642      3.60e-10  Convergence criterion met
 ---------------------------------------
 SCF time:   CPU 857.91s  wall 57.00s 

************** Final PCM Free Energy Summary **************
 G_electrostatic  =      -0.01605617 hartree =     -10.07539976 kcal/mol
 G_cavitation     =       0.00000000 hartree =       0.00000000 kcal/mol
 G_dispersion     =       0.00000000 hartree =       0.00000000 kcal/mol
 G_repulsion      =       0.00000000 hartree =       0.00000000 kcal/mol
 --------------------------------------------------
 Non-electrostatic Free Energy =       0.00000000 hartree =       0.00000000 kcal/mol
 Total                         =      -0.01605617 hartree =     -10.07539976 kcal/mol
 --------------------------------------------------
 SCF Energy (H0 + V/2)                       =    -404.59970816 
 Solute Internal Energy (H0)                 =    -404.58365199 
 Total Free Energy (H0 + V/2 + non-elec)     =    -404.59970816 hartree
                                             = -253890.14883687 kcal/mol
***********************************************************

 SCF   energy in the final basis set =     -404.5997081642
 Total energy in the final basis set =     -404.5997081642
 
 --------------------------------------------------------------
 
                    Orbital Energies (a.u.)
 --------------------------------------------------------------
 
 Alpha MOs
 -- Occupied --
-19.1333 -14.3720 -10.2934 -10.2262 -10.1844 -10.1838 -10.1815 -10.1812
-10.1795  -1.0386  -0.9333  -0.8256  -0.7438  -0.7424  -0.6377  -0.6126
 -0.5929  -0.5645  -0.5271  -0.4842  -0.4615  -0.4432  -0.4385  -0.4195
 -0.4179  -0.3966  -0.3798  -0.3743  -0.3487  -0.3448  -0.3232  -0.3134
 -0.3105  -0.2693  -0.2607
 -- Virtual --
  0.0074   0.0095   0.0156   0.0239   0.0250   0.0403   0.0479   0.0487
  0.0583   0.0687   0.0693   0.0828   0.0867   0.0942   0.0995   0.1040
  0.1112   0.1164   0.1247   0.1335   0.1401   0.1509   0.1556   0.1609
  0.1699   0.1799   0.1821   0.1883   0.1986   0.2018   0.2104   0.2134
  0.2207   0.2254   0.2311   0.2442   0.2470   0.2551   0.2634   0.2691
  0.2788   0.2809   0.2877   0.2891   0.2943   0.3043   0.3096   0.3254
  0.3289   0.3308   0.3591   0.3713   0.3845   0.3862   0.4160   0.4199
  0.4386   0.4595   0.4852   0.6089   0.6386   0.6552   0.6658   0.6667
  0.6833   0.6970   0.7295   0.7323   0.7470   0.7509   0.7751   0.7793
  0.8006   0.8044   0.8203   0.8503   0.8618   0.9108   0.9532   0.9741
  0.9784   0.9921   1.0216   1.0270   1.0306   1.0565   1.0885   1.1020
  1.1172   1.1223   1.1264   1.1434   1.1608   1.1706   1.1801   1.1899
  1.2395   1.2470   1.2839   1.3279   1.3435   1.3727   1.3892   1.4173
  1.4792   1.4882   1.4933   1.5669   1.5725   1.6142   1.6927   1.7313
  1.7329   1.7555   1.7695   1.8060   1.8525   1.8705   1.9018   1.9064
  1.9106   1.9391   1.9821   2.0098   2.0181   2.0441   2.0559   2.0850
  2.0921   2.1279   2.1998   2.2162   2.2777   2.3125   2.3148   2.3472
  2.3965   2.4085   2.4183   2.4234   2.4487   2.5608   2.5844   2.6206
  2.6718   2.6835   2.7040   2.7615   2.7798   2.8326   2.8632   2.9952
  3.1866   4.0927   4.1937   4.2294   4.2945   4.3328   4.4150   4.6026
  4.6091   4.6733
 --------------------------------------------------------------
 
          Ground-State Mulliken Net Atomic Charges

     Atom                 Charge (a.u.)
  ----------------------------------------
      1 C                    -0.265696
      2 C                    -0.442249
      3 C                    -0.287553
      4 C                    -0.448168
      5 C                    -0.382381
      6 C                    -0.451895
      7 H                     0.211708
      8 H                     0.230322
      9 H                     0.210811
     10 H                     0.210931
     11 H                     0.207632
     12 H                     0.202584
     13 H                     0.199209
     14 H                     0.201660
     15 H                     0.207565
     16 H                     0.202534
     17 H                     0.210677
     18 N                    -0.384726
     19 H                     0.443761
     20 C                     0.344007
[...]

 Mode:                40                     41                     42
 Frequency:      1405.08                1495.07                1497.91
 Force Cnst:      1.7091                 1.4327                 1.4391
 Red. Mass:       1.4693                 1.0879                 1.0886
 IR Active:          YES                    YES                    YES
 IR Intens:        0.712                  0.149                  5.267
 Raman Active:       YES                    YES                    YES
               X      Y      Z        X      Y      Z        X      Y      Z
 C          0.042 -0.051  0.088    0.017 -0.031 -0.037    0.009 -0.014  0.003
 C         -0.051 -0.001 -0.089    0.001 -0.016  0.000   -0.002  0.000 -0.008
 C          0.040  0.058  0.088   -0.012 -0.028  0.036    0.008  0.014  0.003
 C          0.015 -0.040  0.020   -0.010  0.015  0.025   -0.013  0.016  0.008
 C         -0.011  0.001 -0.007   -0.003  0.014 -0.001   -0.068 -0.005 -0.028
 C          0.011  0.040  0.019    0.008  0.016 -0.026   -0.012 -0.022  0.014
 H         -0.115 -0.186 -0.346    0.288  0.131 -0.250   -0.065 -0.031  0.039
 H          0.231 -0.011  0.434   -0.005  0.074 -0.004    0.015 -0.002  0.023
 H         -0.172  0.108 -0.256    0.137  0.365  0.168   -0.001  0.098 -0.008
 H         -0.128  0.153 -0.334   -0.327  0.111  0.265   -0.070  0.024  0.042
 H         -0.016  0.040 -0.032   -0.099 -0.216 -0.121   -0.039 -0.196 -0.034
 H         -0.122  0.097 -0.224    0.200 -0.070 -0.167    0.139 -0.044 -0.141
 H         -0.071 -0.010 -0.001    0.018  0.002 -0.004    0.597  0.031 -0.132
 H         -0.042 -0.006 -0.052    0.012 -0.067  0.018    0.250  0.025  0.555
 H         -0.012 -0.045 -0.033    0.126 -0.204  0.131   -0.083  0.233 -0.061
 H         -0.111 -0.119 -0.216   -0.197 -0.091  0.170    0.171  0.071 -0.176
 H         -0.160 -0.126 -0.261   -0.167  0.315 -0.166    0.010 -0.093 -0.006
 N         -0.004 -0.002 -0.033   -0.001 -0.000 -0.000   -0.001 -0.000 -0.001
 H          0.093  0.013  0.084    0.001  0.001  0.002    0.008  0.001  0.009
 C          0.009  0.002  0.025    0.000  0.000  0.000    0.001  0.000  0.001
 H          0.005  0.002  0.038    0.000 -0.001  0.000   -0.000  0.000  0.002
 O          0.002  0.000 -0.006   -0.000 -0.000 -0.000   -0.000 -0.000 -0.000
 TransDip   0.005  0.008  0.025    0.002  0.012  0.004    0.073  0.009 -0.006

 Mode:                43                     44                     45
 Frequency:      1500.71                1501.76                1514.08
 Force Cnst:      1.4573                 1.4502                 1.4876
 Red. Mass:       1.0982                 1.0914                 1.1014
 IR Active:          YES                    YES                    YES
 IR Intens:        7.294                 11.043                  0.739
 Raman Active:       YES                    YES                    YES
               X      Y      Z        X      Y      Z        X      Y      Z
 C          0.009 -0.029 -0.022   -0.017  0.033  0.021   -0.011  0.031  0.018
 C         -0.000  0.005 -0.000    0.005  0.000  0.015   -0.001 -0.000  0.013
 C         -0.005 -0.027  0.020   -0.015 -0.039  0.026   -0.008 -0.033  0.019
 C          0.014 -0.039 -0.037   -0.011  0.027  0.022    0.011 -0.033 -0.022
 C          0.003  0.002  0.001    0.015  0.002  0.011   -0.035 -0.002 -0.024
 C         -0.008 -0.036  0.035   -0.009 -0.029  0.024    0.007  0.033 -0.022
 H          0.181  0.065 -0.164    0.299  0.139 -0.231    0.228  0.092 -0.193
 H          0.001 -0.015  0.000   -0.015  0.000 -0.016   -0.015 -0.000 -0.011
 H          0.077  0.264  0.096   -0.094 -0.321 -0.110   -0.075 -0.286 -0.089
 H         -0.211  0.055  0.182    0.275 -0.098 -0.196    0.231 -0.067 -0.186
 H          0.132  0.389  0.159   -0.098 -0.266 -0.118    0.086  0.290  0.103
 H         -0.318  0.088  0.281    0.236 -0.081 -0.167   -0.242  0.066  0.191
 H         -0.025 -0.034  0.006   -0.112 -0.007  0.034    0.304  0.017 -0.082
 H         -0.012  0.014 -0.025   -0.052 -0.006 -0.108    0.137  0.012  0.295
 H         -0.159  0.329 -0.156   -0.134  0.266 -0.131    0.117 -0.270  0.109
 H          0.277  0.103 -0.255    0.238  0.107 -0.181   -0.229 -0.087  0.188
 H         -0.092  0.227 -0.087   -0.151  0.349 -0.135   -0.110  0.282 -0.097
 N          0.000 -0.001  0.000   -0.001 -0.000 -0.002    0.008  0.002  0.007
 H         -0.001  0.001 -0.000   -0.007 -0.001 -0.009   -0.040 -0.007 -0.053
 C          0.000 -0.000 -0.000   -0.001 -0.000  0.000   -0.008 -0.002 -0.004
 H         -0.000  0.001 -0.000    0.001  0.000 -0.000    0.001  0.000 -0.008
 O         -0.000 -0.000  0.000    0.001  0.000 -0.001    0.002  0.000 -0.000
 TransDip  -0.010  0.086  0.003    0.048  0.003 -0.095   -0.019 -0.007 -0.019

 Mode:                46                     47                     48
 Frequency:      1551.90                1681.45                2235.80
 Force Cnst:      2.5034                14.3722                 7.0608
 Red. Mass:       1.7642                 8.6279                 2.3974
 IR Active:          YES                    YES                    YES
 IR Intens:      253.747                824.346                100.620
 Raman Active:       YES                    YES                    YES
               X      Y      Z        X      Y      Z        X      Y      Z
 C         -0.002  0.002  0.010   -0.002  0.005  0.019   -0.000  0.000 -0.000
 C          0.076  0.012  0.038    0.006  0.000 -0.035    0.001  0.000  0.002
 C         -0.001 -0.004  0.011   -0.002 -0.004  0.020   -0.000 -0.000 -0.000
 C         -0.004 -0.001 -0.008    0.001  0.006 -0.006   -0.000 -0.000 -0.000
 C         -0.002  0.000  0.001   -0.001  0.000  0.002   -0.000 -0.000 -0.000
 C         -0.004  0.000 -0.007    0.002 -0.006 -0.006   -0.000  0.000 -0.000
 H          0.027  0.008 -0.007    0.012 -0.010 -0.024    0.001  0.001  0.000
 H         -0.109 -0.012 -0.327    0.070  0.012  0.041    0.002  0.001  0.007
 H         -0.033  0.012 -0.046   -0.031  0.006 -0.021   -0.000 -0.000  0.000
 H          0.036 -0.013 -0.006    0.015  0.009 -0.023    0.001 -0.000  0.000
 H          0.021  0.022  0.029    0.007  0.001 -0.000   -0.000  0.000 -0.000
 H         -0.019 -0.003  0.034    0.004 -0.010  0.041    0.000  0.000 -0.000
 H          0.027 -0.000 -0.005    0.011  0.000 -0.003   -0.000 -0.000  0.000
 H          0.008  0.001  0.019   -0.000 -0.000  0.004    0.000  0.000 -0.000
 H          0.022 -0.018  0.027    0.009 -0.000  0.003   -0.000 -0.000 -0.000
 H         -0.019 -0.000  0.028    0.002  0.012  0.042    0.000 -0.000 -0.000
 H         -0.032 -0.020 -0.048   -0.029 -0.013 -0.017   -0.000 -0.000  0.000
 N         -0.151 -0.025 -0.133   -0.114 -0.020  0.021    0.008  0.002  0.012
 H          0.526  0.093  0.708   -0.356 -0.074 -0.275   -0.031 -0.006 -0.051
 C          0.070  0.013  0.074    0.626  0.118 -0.210    0.008  0.003 -0.195
 H          0.007  0.000  0.134   -0.191 -0.030 -0.345    0.010 -0.008  0.979
 O          0.002  0.001 -0.014   -0.331 -0.064  0.201   -0.013 -0.003  0.014
 TransDip   0.422  0.074  0.278    0.905  0.163 -0.025    0.072  0.016 -0.313

 Mode:                49                     50                     51
 Frequency:      3012.97                3013.68                3017.53
 Force Cnst:      5.7105                 5.7192                 5.7354
 Red. Mass:       1.0677                 1.0688                 1.0691
 IR Active:          YES                    YES                    YES
 IR Intens:       36.212                 32.909                 22.520
 Raman Active:       YES                    YES                    YES
               X      Y      Z        X      Y      Z        X      Y      Z
 C          0.021 -0.008 -0.020    0.013 -0.009 -0.014   -0.036  0.012  0.031
 C          0.002  0.001 -0.001   -0.001  0.000  0.001    0.006  0.000 -0.002
 C         -0.037 -0.022  0.037   -0.009 -0.002  0.008   -0.026 -0.014  0.025
 C          0.012 -0.002 -0.010    0.023 -0.000 -0.014    0.009  0.003 -0.004
 C          0.022  0.002 -0.002   -0.063 -0.003  0.009   -0.001 -0.000  0.009
 C         -0.019 -0.005  0.014    0.011 -0.000 -0.005    0.028  0.011 -0.024
 H         -0.165  0.194 -0.051   -0.014  0.013 -0.005   -0.105  0.126 -0.033
 H         -0.026 -0.002  0.014    0.015  0.001 -0.008   -0.075 -0.003  0.039
 H         -0.325 -0.003  0.209   -0.224 -0.002  0.141    0.532  0.001 -0.338
 H          0.069  0.101  0.023    0.067  0.104  0.022   -0.098 -0.146 -0.032
 H         -0.172  0.001  0.110   -0.287  0.004  0.183   -0.090  0.003  0.057
 H          0.019  0.021  0.006    0.000 -0.005 -0.007   -0.020 -0.037 -0.008
 H         -0.012 -0.006 -0.104    0.033  0.005  0.271   -0.016 -0.001 -0.094
 H         -0.251 -0.015  0.135    0.722  0.036 -0.385    0.032  0.002 -0.013
 H          0.261  0.028 -0.168   -0.120 -0.014  0.077   -0.419 -0.044  0.268
 H         -0.026  0.026 -0.005   -0.019  0.022 -0.011    0.073 -0.083  0.021
 H          0.610  0.058 -0.391    0.130  0.013 -0.086    0.415  0.041 -0.265
 N          0.000 -0.000 -0.000   -0.000 -0.000 -0.000   -0.000  0.000 -0.000
 H         -0.000 -0.001 -0.002    0.000 -0.000  0.000   -0.001 -0.000 -0.003
 C          0.000  0.000 -0.000    0.000  0.000  0.000    0.001  0.000 -0.000
 H         -0.000  0.000 -0.000   -0.000  0.000 -0.000   -0.000 -0.000 -0.000
 O         -0.000 -0.000  0.000   -0.000 -0.000  0.000   -0.000 -0.000  0.000
 TransDip   0.024 -0.169  0.089   -0.132 -0.075 -0.104   -0.076  0.060  0.117

 Mode:                52                     53                     54
 Frequency:      3019.55                3020.98                3062.58
 Force Cnst:      5.7082                 5.7026                 6.0457
 Red. Mass:       1.0626                 1.0605                 1.0940
 IR Active:          YES                    YES                    YES
 IR Intens:       10.765                133.828                114.662
 Raman Active:       YES                    YES                    YES
               X      Y      Z        X      Y      Z        X      Y      Z
 C          0.017 -0.016 -0.021   -0.011  0.013  0.015   -0.013 -0.010  0.002
 C         -0.002 -0.000  0.001    0.004  0.000 -0.002    0.006  0.000 -0.003
 C         -0.001 -0.009  0.007   -0.006 -0.012  0.012   -0.016  0.011  0.001
 C         -0.030  0.021  0.032   -0.021  0.023  0.027   -0.006 -0.017 -0.006
 C          0.000 -0.000 -0.002   -0.022 -0.002 -0.016    0.007 -0.001 -0.079
 C          0.018  0.022 -0.026   -0.016 -0.024  0.026   -0.011  0.018 -0.007
 H         -0.083  0.106 -0.029   -0.097  0.122 -0.033    0.112 -0.147  0.044
 H          0.020  0.003 -0.010   -0.044 -0.002  0.024   -0.073 -0.004  0.040
 H         -0.328 -0.004  0.208    0.220  0.003 -0.140    0.077 -0.002 -0.050
 H          0.119  0.190  0.042   -0.094 -0.152 -0.034    0.074  0.126  0.031
 H          0.512  0.001 -0.325    0.425  0.001 -0.267   -0.033 -0.001  0.018
 H         -0.155 -0.247 -0.052   -0.169 -0.276 -0.060    0.113  0.195  0.046
 H          0.003  0.004  0.020    0.050  0.008  0.313    0.150  0.021  0.826
 H         -0.010 -0.002  0.005    0.213  0.011 -0.119   -0.247 -0.013  0.117
 H         -0.396 -0.037  0.252    0.382  0.036 -0.241   -0.021 -0.000  0.010
 H          0.176 -0.221  0.058   -0.193  0.245 -0.066    0.160 -0.213  0.061
 H          0.090  0.006 -0.057    0.164  0.014 -0.104    0.079  0.011 -0.053
 N          0.000  0.000  0.000    0.000  0.000 -0.000   -0.000 -0.000 -0.000
 H          0.000 -0.001  0.001   -0.000 -0.000 -0.002    0.000  0.000 -0.001
 C         -0.000 -0.000  0.000   -0.000  0.000 -0.000    0.000  0.000 -0.000
 H          0.000  0.000  0.000   -0.000 -0.000 -0.000   -0.000 -0.000 -0.000
 O          0.000  0.000 -0.000    0.000  0.000  0.000   -0.000 -0.000  0.000
 TransDip   0.016  0.098 -0.034   -0.273 -0.001  0.251   -0.129  0.005 -0.318

 Mode:                55                     56                     57
 Frequency:      3063.98                3067.66                3069.10
 Force Cnst:      6.0686                 6.0851                 6.0851
 Red. Mass:       1.0972                 1.0975                 1.0965
 IR Active:          YES                    YES                    YES
 IR Intens:      115.111                 74.709                 83.047
 Raman Active:       YES                    YES                    YES
               X      Y      Z        X      Y      Z        X      Y      Z
 C         -0.004 -0.012 -0.005    0.005  0.015  0.005    0.024  0.026  0.001
 C         -0.000  0.001  0.000   -0.002 -0.000  0.002   -0.022 -0.001  0.013
 C          0.005 -0.011  0.005    0.012 -0.018  0.006    0.052 -0.043  0.002
 C         -0.043 -0.043  0.000   -0.042 -0.041  0.002    0.021  0.007 -0.009
 C          0.001 -0.000 -0.004   -0.019 -0.001  0.021    0.008  0.000 -0.029
 C          0.050 -0.039  0.000   -0.044  0.034  0.001    0.012 -0.002 -0.006
 H         -0.094  0.120 -0.037   -0.164  0.213 -0.065   -0.416  0.536 -0.165
 H          0.001  0.001 -0.000    0.037  0.002 -0.020    0.276  0.014 -0.151
 H         -0.035 -0.002  0.022    0.033  0.002 -0.021   -0.103  0.005  0.071
 H          0.083  0.138  0.035   -0.102 -0.172 -0.044   -0.184 -0.307 -0.079
 H          0.206 -0.009 -0.137    0.221 -0.011 -0.145   -0.187  0.005  0.121
 H          0.305  0.526  0.128    0.286  0.496  0.119   -0.056 -0.097 -0.024
 H          0.008  0.000  0.041   -0.025 -0.003 -0.131    0.050  0.006  0.272
 H         -0.020 -0.003  0.010    0.234  0.012 -0.119   -0.149 -0.007  0.072
 H         -0.226 -0.032  0.151    0.214  0.031 -0.142   -0.116 -0.015  0.075
 H         -0.375  0.500 -0.147    0.321 -0.431  0.125   -0.026  0.035 -0.010
 H          0.030  0.001 -0.019    0.012 -0.002 -0.007   -0.212 -0.031  0.146
 N         -0.000 -0.000  0.000   -0.000 -0.000 -0.000   -0.000  0.000 -0.000
 H          0.000 -0.000  0.000   -0.001 -0.000 -0.000   -0.003 -0.000  0.003
 C         -0.000 -0.000 -0.000    0.000  0.000 -0.000   -0.000 -0.000 -0.000
 H         -0.000  0.000 -0.000   -0.000 -0.000 -0.000    0.000  0.000  0.000
 O          0.000  0.000 -0.000   -0.000 -0.000  0.000   -0.000 -0.000 -0.000
 TransDip   0.030 -0.342 -0.012   -0.260 -0.036  0.088    0.280 -0.037 -0.074

 Mode:                58                     59                     60
 Frequency:      3071.00                3097.22                3581.56
 Force Cnst:      6.1069                 6.1487                 8.1498
 Red. Mass:       1.0990                 1.0879                 1.0783
 IR Active:          YES                    YES                    YES
 IR Intens:       49.071                 55.258                 55.833
 Raman Active:       YES                    YES                    YES
               X      Y      Z        X      Y      Z        X      Y      Z
 C         -0.054 -0.053  0.000   -0.019 -0.014  0.003    0.000  0.000 -0.000
 C          0.007 -0.000 -0.004   -0.069 -0.004  0.037   -0.001 -0.000 -0.001
 C          0.036 -0.027 -0.000   -0.019  0.011  0.003    0.000  0.000 -0.000
 C          0.010  0.006 -0.003   -0.004 -0.001  0.002    0.000  0.000 -0.000
 C         -0.001  0.001  0.005   -0.001 -0.000  0.002    0.000  0.000 -0.000
 C         -0.015  0.003  0.006   -0.004  0.000  0.002    0.000 -0.000 -0.000
 H         -0.267  0.346 -0.106    0.110 -0.146  0.043   -0.000  0.000  0.000
 H         -0.085 -0.006  0.046    0.821  0.043 -0.438    0.008  0.000 -0.008
 H          0.261 -0.010 -0.175    0.131 -0.006 -0.082    0.000 -0.001  0.001
 H          0.385  0.644  0.166    0.095  0.163  0.040   -0.000 -0.000 -0.000
 H         -0.078  0.002  0.052    0.043 -0.001 -0.031   -0.000 -0.000 -0.000
 H         -0.041 -0.071 -0.017    0.005  0.008  0.001   -0.000 -0.000  0.000
 H         -0.009 -0.003 -0.050   -0.003 -0.000 -0.017    0.000 -0.000  0.000
 H          0.024  0.003 -0.011    0.013  0.001 -0.006   -0.000 -0.000  0.000
 H          0.133  0.016 -0.088    0.043  0.005 -0.031   -0.000  0.000 -0.000
 H          0.047 -0.063  0.019    0.006 -0.007  0.001   -0.000  0.000 -0.000
 H         -0.163 -0.022  0.110    0.124  0.019 -0.079    0.000  0.001  0.001
 N          0.000  0.000  0.000    0.002  0.000  0.000   -0.057 -0.010  0.046
 H          0.001  0.001 -0.001   -0.010 -0.001  0.002    0.757  0.132 -0.635
 C          0.000 -0.000  0.000   -0.002 -0.000  0.000    0.001  0.000  0.002
 H         -0.000 -0.000 -0.000    0.001  0.000  0.001   -0.001 -0.000 -0.002
 O          0.000  0.000  0.000    0.000  0.000 -0.001    0.001  0.000 -0.000
 TransDip  -0.051 -0.218  0.013   -0.197 -0.002  0.134    0.218  0.041 -0.090

 STANDARD THERMODYNAMIC QUANTITIES AT   298.18 K  AND     1.00 ATM

   This Molecule has  1 Imaginary Frequencies
   Zero point vibrational energy:      121.854 kcal/mol

   Atom    1 Element C  Has Mass   12.00000
   Atom    2 Element C  Has Mass   12.00000
   Atom    3 Element C  Has Mass   12.00000
   Atom    4 Element C  Has Mass   12.00000
   Atom    5 Element C  Has Mass   12.00000
   Atom    6 Element C  Has Mass   12.00000
   Atom    7 Element H  Has Mass    1.00783
   Atom    8 Element H  Has Mass    1.00783
   Atom    9 Element H  Has Mass    1.00783
   Atom   10 Element H  Has Mass    1.00783
   Atom   11 Element H  Has Mass    1.00783
   Atom   12 Element H  Has Mass    1.00783
   Atom   13 Element H  Has Mass    1.00783
   Atom   14 Element H  Has Mass    1.00783
   Atom   15 Element H  Has Mass    1.00783
   Atom   16 Element H  Has Mass    1.00783
   Atom   17 Element H  Has Mass    1.00783
   Atom   18 Element N  Has Mass   14.00307
   Atom   19 Element H  Has Mass    1.00783
   Atom   20 Element C  Has Mass   12.00000
   Atom   21 Element H  Has Mass    2.01410
   Atom   22 Element O  Has Mass   15.99491
   Molecular Mass:   128.106042 amu
   Principal axes and moments of inertia in amu*Bohr^2:
                             1           2           3
    Eigenvalues --      538.18877  2024.22103  2229.31912
          X               0.65846    -0.03028     0.75201
          Y               0.09356     0.99473    -0.04186
          Z               0.74678    -0.09792    -0.65783
   Rotational Symmetry Number is   1
   The Molecule is an Asymmetric Top
   Translational Enthalpy:        0.889 kcal/mol
   Rotational Enthalpy:           0.889 kcal/mol
   Vibrational Enthalpy:        125.140 kcal/mol
   gas constant (RT):             0.593 kcal/mol
   Translational Entropy:        40.457  cal/mol.K
   Rotational Entropy:           29.275  cal/mol.K
   Vibrational Entropy:          18.114  cal/mol.K

   Total Enthalpy:              127.510 kcal/mol
   Total Entropy:                87.846  cal/mol.K
Archival summary:
1\1\node024\FREQ\ProcedureUnspecified\6-31+G*\11713\ymao90\TueJul2718:14:332021TueJul2718:14:332021\0\\#,FREQ,ProcedureUnspecified,6-31+G*,\\0,1\N\H,1,1.01505\C,1,1.34715,2,116.845\H,3,1.10295,1,112.634,2,1.25989,0\O,3,1.23767,1,125.922,2,-178.956,0\C,1,1.46652,2,117.685,3,-178.327,0\H,6,1.09478,1,105.9,2,-173.928,0\C,6,1.53853,1,110.493,2,-55.9461,0\H,8,1.0974,6,109.451,1,-58.8598,0\H,8,1.10102,6,108.813,1,57.8203,0\C,8,1.53787,6,111.367,1,178.539,0\H,11,1.09769,8,109.62,6,-177.593,0\H,11,1.10035,8,109.134,6,65.9567,0\C,11,1.53689,8,111.664,6,-54.9044,0\H,14,1.09796,11,110.117,8,177.215,0\H,14,1.10071,11,109.245,8,-65.8694,0\C,14,1.53684,11,111.233,8,54.801,0\H,17,1.09772,14,110.423,11,-177.089,0\H,17,1.10039,14,109.243,11,65.9363,0\C,17,1.53776,14,111.571,11,-54.8503,0\H,20,1.09735,17,110.647,14,176.928,0\H,20,1.10074,17,109.527,14,-65.2596,0\\\@

 Total job time:  836.61s(wall), 11417.65s(cpu) 
 Tue Jul 27 18:14:33 2021

        *************************************************************
        *                                                           *
        *  Thank you very much for using Q-Chem.  Have a nice day.  *
        *                                                           *
        *************************************************************


