                  Welcome to Q-Chem
     A Quantum Leap Into The Future Of Chemistry


 Q-Chem 5.2 (devel), Q-Chem, Inc., Pleasanton, CA (2019)

 Yihan Shao,  Zhengting Gan,  E. Epifanovsky,  A. T. B. Gilbert,  M. Wormit,  
 J. Kussmann,  A. W. Lange,  A. Behn,  Jia Deng,  Xintian Feng,  D. Ghosh,  
 M. Goldey,  P. R. Horn,  L. D. Jacobson,  I. Kaliman,  T. Kus,  A. Landau,  
 Jie Liu,  E. I. Proynov,  R. M. Richard,  R. P. Steele,  E. J. Sundstrom,  
 H. L. Woodcock III,  P. M. Zimmerman,  D. Zuev,  B. Alam,  B. Albrecht,  
 E. Alguire,  S. A. Baeppler,  D. Barton,  Z. Benda,  Y. A. Bernard,  
 E. J. Berquist,  K. B. Bravaya,  H. Burton,  K. Carter-Fenk,  D. Casanova,  
 Chun-Min Chang,  Yunqing Chen,  A. Chien,  K. D. Closser,  M. P. Coons,  
 S. Coriani,  S. Dasgupta,  A. L. Dempwolff,  M. Diedenhofen,  Hainam Do,  
 R. G. Edgar,  Po-Tung Fang,  S. Faraji,  S. Fatehi,  Qingguo Feng,  
 J. Fosso-Tande,  J. Gayvert,  Qinghui Ge,  A. Ghysels,  G. Gidofalvi,  
 J. Gomes,  J. Gonthier,  A. Gunina,  D. Hait,  M. W. D. Hanson-Heine,  
 P. H. P. Harbach,  A. W. Hauser,  M. F. Herbst,  J. E. Herr,  
 E. G. Hohenstein,  Z. C. Holden,  Kerwin Hui,  B. C. Huynh,  T.-C. Jagau,  
 Hyunjun Ji,  B. Kaduk,  K. Khistyaev,  Jaehoon Kim,  P. Klunzinger,  K. Koh,  
 D. Kosenkov,  L. Koulias,  T. Kowalczyk,  C. M. Krauter,  A. Kunitsa,  
 Ka Un Lao,  A. Laurent,  K. V. Lawler,  Joonho Lee,  D. Lefrancois,  
 S. Lehtola,  D. S. Levine,  Yi-Pei Li,  You-Sheng Lin,  Fenglai Liu,  
 Kuan-Yu Liu,  E. Livshits,  M. Loipersberger,  A. Luenser,  P. Manohar,  
 E. Mansoor,  S. F. Manzer,  Shan-Ping Mao,  Yuezhi Mao,  N. Mardirossian,  
 A. V. Marenich,  T. Markovich,  L. A. Martinez-Martinez,  S. A. Maurer,  
 N. J. Mayhall,  S. C. McKenzie,  J.-M. Mewes,  P. Morgante,  A. F. Morrison,  
 J. W. Mullinax,  K. Nanda,  T. S. Nguyen-Beck,  R. Olivares-Amaya,  
 J. A. Parkhill,  S. K. Paul,  F. Pavosevic,  Zheng Pei,  T. M. Perrine,  
 F. Plasser,  P. Pokhilko,  S. Prager,  A. Prociuk,  E. Ramos,  B. Rana,  
 D. R. Rehn,  F. Rob,  M. Scheurer,  M. Schneider,  N. Sergueev,  
 S. M. Sharada,  S. Sharma,  D. W. Small,  T. Stauch,  C. J. Stein,  
 T. Stein,  Yu-Chuan Su,  S. P. Veccham,  Zhen Tao,  A. J. W. Thom,  
 A. Tkatchenko,  T. Tsuchimochi,  N. M. Tubman,  L. Vogt,  M. L. Vidal,  
 O. Vydrov,  M. A. Watson,  J. Wenzel,  M. de Wergifosse,  T. A. Wesolowski,  
 A. White,  J. Witte,  A. Yamada,  Jun Yang,  K. Yao,  S. Yeganeh,  
 S. R. Yost,  Zhi-Qiang You,  A. Zech,  Igor Ying Zhang,  Xing Zhang,  
 Yan Zhao,  Ying Zhu,  B. R. Brooks,  G. K. L. Chan,  C. J. Cramer,  
 M. S. Gordon,  W. J. Hehre,  A. Klamt,  M. W. Schmidt,  C. D. Sherrill,  
 D. G. Truhlar,  A. Aspuru-Guzik,  R. Baer,  A. T. Bell,  N. A. Besley,  
 Jeng-Da Chai,  A. E. DePrince, III,  R. A. DiStasio Jr.,  A. Dreuw,  
 B. D. Dunietz,  T. R. Furlani,  Chao-Ping Hsu,  Yousung Jung,  Jing Kong,  
 D. S. Lambrecht,  WanZhen Liang,  C. Ochsenfeld,  V. A. Rassolov,  
 L. V. Slipchenko,  J. E. Subotnik,  T. Van Voorhis,  J. M. Herbert,  
 A. I. Krylov,  P. M. W. Gill,  M. Head-Gordon

 Contributors to earlier versions of Q-Chem not listed above: 
 R. D. Adamson,  B. Austin,  J. Baker,  G. J. O. Beran,  K. Brandhorst,  
 S. T. Brown,  E. F. C. Byrd,  A. K. Chakraborty,  C.-L. Cheng,  
 Siu Hung Chien,  D. M. Chipman,  D. L. Crittenden,  H. Dachsel,  
 R. J. Doerksen,  A. D. Dutoi,  L. Fusti-Molnar,  W. A. Goddard III,  
 A. Golubeva-Zadorozhnaya,  S. R. Gwaltney,  G. Hawkins,  A. Heyden,  
 S. Hirata,  G. Kedziora,  F. J. Keil,  C. Kelley,  Jihan Kim,  R. A. King,  
 R. Z. Khaliullin,  P. P. Korambath,  W. Kurlancheek,  A. M. Lee,  M. S. Lee,  
 S. V. Levchenko,  Ching Yeh Lin,  D. Liotard,  R. C. Lochan,  I. Lotan,  
 P. E. Maslen,  N. Nair,  D. P. O'Neill,  D. Neuhauser,  E. Neuscamman,  
 C. M. Oana,  R. Olson,  B. Peters,  R. Peverati,  P. A. Pieniazek,  
 Y. M. Rhee,  J. Ritchie,  M. A. Rohrdanz,  E. Rosta,  N. J. Russ,  
 H. F. Schaefer III,  N. E. Schultz,  N. Shenvi,  A. C. Simmonett,  A. Sodt,  
 D. Stuck,  K. S. Thanthiriwatte,  V. Vanovschi,  Tao Wang,  A. Warshel,  
 C. F. Williams,  Q. Wu,  X. Xu,  W. Zhang

 Please cite Q-Chem as follows:
 Y. Shao et al., Mol. Phys. 113, 184-215 (2015)
 DOI: 10.1080/00268976.2014.952696

 Q-Chem 5.2.2 for Intel X86 EM64T Linux

 Parts of Q-Chem use Armadillo 9.800.1 (Horizon Scraper).
 http://arma.sourceforge.net/

 Q-Chem begins on Sun Mar  7 03:05:15 2021  

Host: node025
0

     Scratch files written to /home/ymao90/scratch/CCX_CD_-2020210307030514//

Checking the input file for inconsistencies... 	...done.

--------------------------------------------------------------
User input:
--------------------------------------------------------------
$molecule
0 1
C     -2.4083508923    0.9984834764   -2.3662547437
C     -1.5543120384   -0.2118403749   -1.9459885704
C     -2.2384976761   -1.5367925874   -2.3261896725
C     -2.5867463449   -1.5816552836   -3.8234193167
C     -3.4377297730   -0.3731774783   -4.2445934317
C     -2.7551397527    0.9499468362   -3.8636626912
H     -1.5849547626   -2.3750094827   -2.0545927530
H     -0.5831065672   -0.1532425547   -2.4485260558
H     -3.3388117820    1.0024650072   -1.7759883684
H     -1.8720534969    1.9234708349   -2.1213670712
H     -1.6555784977   -1.5918293252   -4.4093866053
H     -3.1102152921   -2.5181807775   -4.0551406051
H     -3.6290653549   -0.4033428377   -5.3251377272
H     -4.4201020066   -0.4306546907   -3.7508934023
H     -1.8320207629    1.0648782183   -4.4511997179
H     -3.3973970401    1.8010825553   -4.1242295555
H     -3.1618885583   -1.6469527918   -1.7346449512
N     -1.2474445251   -0.1731895513   -0.5151412109
H     -2.0131265263   -0.2687147311    0.1418849346
C      0.0000000000    0.0000000000    0.0000000000
H      0.0000000000    0.0000000000    1.1070732462
O      1.0278769477    0.1402881570   -0.6492362509
$end

$rem
JOBTYPE  OPT
METHOD  B3LYP
BASIS  6-31+G(D)
SYMMETRY  FALSE
SYM_IGNORE  TRUE
MEM_TOTAL  8000
MEM_STATIC  2000
MAX_SUB_FILE_NUM  16000
BASIS_LIN_DEP_THRESH  6
THRESH  14
SCF_CONVERGENCE  9
GEN_SCFMAN  TRUE
SCF_GUESS  SAD
FD_MAT_VEC_PROD  FALSE
XC_GRID  000099000590
NL_GRID  1
MAX_SCF_CYCLES  200
GEOM_OPT_TOL_GRADIENT  100
GEOM_OPT_TOL_DISPLACEMENT  100
GEOM_OPT_TOL_ENERGY  10
$end

$multipole_field
Z   0.003890
$end


--------------------------------------------------------------
 ----------------------------------------------------------------
             Standard Nuclear Orientation (Angstroms)
    I     Atom           X                Y                Z
 ----------------------------------------------------------------
    1      C      -2.4083508923     0.9984834764    -2.3662547437
    2      C      -1.5543120384    -0.2118403749    -1.9459885704
    3      C      -2.2384976761    -1.5367925874    -2.3261896725
    4      C      -2.5867463449    -1.5816552836    -3.8234193167
    5      C      -3.4377297730    -0.3731774783    -4.2445934317
    6      C      -2.7551397527     0.9499468362    -3.8636626912
    7      H      -1.5849547626    -2.3750094827    -2.0545927530
    8      H      -0.5831065672    -0.1532425547    -2.4485260558
    9      H      -3.3388117820     1.0024650072    -1.7759883684
   10      H      -1.8720534969     1.9234708349    -2.1213670712
   11      H      -1.6555784977    -1.5918293252    -4.4093866053
   12      H      -3.1102152921    -2.5181807775    -4.0551406051
   13      H      -3.6290653549    -0.4033428377    -5.3251377272
   14      H      -4.4201020066    -0.4306546907    -3.7508934023
   15      H      -1.8320207629     1.0648782183    -4.4511997179
   16      H      -3.3973970401     1.8010825553    -4.1242295555
   17      H      -3.1618885583    -1.6469527918    -1.7346449512
   18      N      -1.2474445251    -0.1731895513    -0.5151412109
   19      H      -2.0131265263    -0.2687147311     0.1418849346
   20      C       0.0000000000     0.0000000000     0.0000000000
   21      H       0.0000000000     0.0000000000     1.1070732462
   22      O       1.0278769477     0.1402881570    -0.6492362509
 ----------------------------------------------------------------
 Nuclear Repulsion Energy =         466.63298041 hartrees
 There are       35 alpha and       35 beta electrons
 Requested basis set is 6-31+G(d)
 There are 71 shells and 197 basis functions

 Total QAlloc Memory Limit   8000 MB
 Mega-Array Size      1956 MB
 MEM_STATIC part      2000 MB
 Applying Cartesian multipole field
    Component          Value
    ---------          -----
     (0,0,1)        3.89000E-03
 Nucleus-field energy     =    -1.1410472783 hartrees
 A cutoff of  1.0D-14 yielded   2413 shell pairs
 There are     18998 function pairs
 Smallest overlap matrix eigenvalue = 2.48E-05
 Guess from superposition of atomic densities
 Warning:  Energy on first SCF cycle will be non-variational
 SAD guess density has 70.000000 electrons

 -----------------------------------------------------------------------
  General SCF calculation program by
  Eric Jon Sundstrom, Paul Horn, Yuezhi Mao, Dmitri Zuev, Alec White,
  David Stuck, Shaama M.S., Shane Yost, Joonho Lee, David Small,
  Daniel Levine, Susi Lehtola, Hugh Burton, Evgeny Epifanovsky,
  Bang C. Huynh
 -----------------------------------------------------------------------
 Exchange:     0.2000 Hartree-Fock + 0.0800 Slater + 0.7200 B88
 Correlation:  0.1900 VWN1RPA + 0.8100 LYP
 Using Euler-Maclaurin-Lebedev (99,590) quadrature formula
 using 16 threads for integral computing
 -------------------------------------------------------
 OpenMP Integral computing Module                
 Release: version 2.0, May 2017, Q-Chem Inc. Pleasanton 
 -------------------------------------------------------
 A restricted SCF calculation will be
 performed using DIIS
 SCF converges when DIIS error is below 1.0e-09
 ---------------------------------------
  Cycle       Energy         DIIS error
 ---------------------------------------
    1    -406.2319617718      5.08e-02  
    2    -404.3871953485      6.51e-03  
    3    -404.0120820356      1.17e-02  
    4    -404.5562208174      2.71e-03  
    5    -404.5854962718      6.75e-04  
    6    -404.5872398139      2.17e-04  
    7    -404.5874219021      7.71e-05  
    8    -404.5874473488      1.32e-05  
    9    -404.5874480614      4.62e-06  
   10    -404.5874481511      7.77e-07  
   11    -404.5874481536      2.99e-07  
   12    -404.5874481540      5.98e-08  
   13    -404.5874481540      1.17e-08  
   14    -404.5874481540      4.75e-09  
   15    -404.5874481540      1.12e-09  
   16    -404.5874481540      2.56e-10  Convergence criterion met
 ---------------------------------------
 SCF time:   CPU 746.82s  wall 47.00s 
 SCF   energy in the final basis set =     -404.5874481540
 Total energy in the final basis set =     -404.5874481540
 
 --------------------------------------------------------------
 
                    Orbital Energies (a.u.)
 --------------------------------------------------------------
 
 Alpha MOs
 -- Occupied --
-19.1209 -14.3672 -10.2867 -10.2174 -10.1776 -10.1762 -10.1676 -10.1668
-10.1637  -1.0319  -0.9269  -0.8146  -0.7323  -0.7319  -0.6291  -0.6016
 -0.5901  -0.5534  -0.5203  -0.4745  -0.4503  -0.4343  -0.4246  -0.4091
 -0.4068  -0.3855  -0.3691  -0.3634  -0.3389  -0.3340  -0.3096  -0.3017
 -0.2985  -0.2560  -0.2509
 -- Virtual --
 -0.0048   0.0170   0.0247   0.0340   0.0344   0.0488   0.0608   0.0618
  0.0672   0.0796   0.0822   0.0935   0.1000   0.1079   0.1138   0.1157
  0.1246   0.1305   0.1364   0.1464   0.1556   0.1638   0.1695   0.1801
  0.1866   0.1884   0.1989   0.2010   0.2129   0.2150   0.2179   0.2208
  0.2332   0.2372   0.2434   0.2550   0.2594   0.2616   0.2671   0.2734
  0.2935   0.2979   0.3005   0.3018   0.3044   0.3200   0.3217   0.3380
  0.3415   0.3431   0.3727   0.3837   0.3914   0.4031   0.4259   0.4295
  0.4476   0.4721   0.5009   0.6204   0.6482   0.6697   0.6783   0.6801
  0.6972   0.7115   0.7416   0.7444   0.7567   0.7616   0.7836   0.7908
  0.8132   0.8177   0.8303   0.8599   0.8653   0.9073   0.9545   0.9810
  0.9917   1.0062   1.0292   1.0337   1.0424   1.0597   1.0945   1.0977
  1.1246   1.1364   1.1365   1.1532   1.1772   1.1807   1.1901   1.2012
  1.2487   1.2676   1.3018   1.3475   1.3515   1.3776   1.4014   1.4284
  1.4852   1.4979   1.5022   1.5790   1.5826   1.6237   1.7106   1.7399
  1.7442   1.7671   1.7821   1.8183   1.8637   1.8798   1.9127   1.9176
  1.9220   1.9490   1.9937   2.0224   2.0280   2.0551   2.0653   2.0971
  2.1040   2.1379   2.2110   2.2312   2.2855   2.3158   2.3257   2.3608
  2.4107   2.4210   2.4296   2.4357   2.4620   2.5715   2.5940   2.6363
  2.6861   2.6928   2.7119   2.7747   2.7859   2.8427   2.8745   3.0204
  3.1968   4.0946   4.2070   4.2485   4.3046   4.3437   4.4231   4.6170
  4.6183   4.6816
 --------------------------------------------------------------
 
          Ground-State Mulliken Net Atomic Charges

     Atom                 Charge (a.u.)
  ----------------------------------------
      1 C                    -0.243457
      2 C                    -0.541030
      3 C                    -0.265549
      4 C                    -0.418117
      5 C                    -0.390657
      6 C                    -0.419697
      7 H                     0.207910
      8 H                     0.247476
      9 H                     0.188029
     10 H                     0.208656
     11 H                     0.213328
     12 H                     0.203596
     13 H                     0.213544
     14 H                     0.191815
     15 H                     0.213525
     16 H                     0.204092
     17 H                     0.187100
     18 N                    -0.361836
     19 H                     0.385620
     20 C                     0.329120
     21 H                     0.123479
     22 O                    -0.476949
  ----------------------------------------
  Sum of atomic charges =     0.000000

 -----------------------------------------------------------------
                    Cartesian Multipole Moments
 -----------------------------------------------------------------
    Charge (ESU x 10^10)
                 0.0000
    Dipole Moment (Debye)
         X      -4.2483      Y      -0.5563      Z      -0.7515
       Tot       4.3499
    Quadrupole Moments (Debye-Ang)
        XX     -55.0436     XY       0.2124     YY     -56.8475
        XZ       5.8342     YZ       0.7515     ZZ     -47.5039
    Octopole Moments (Debye-Ang^2)
       XXX     287.0632    XXY       9.7647    XYY     100.4692
       YYY      35.5844    XXZ     119.9573    XYZ      -0.6862
       YYZ     125.2404    XZZ      79.1936    YZZ       9.1885
       ZZZ     345.7116
    Hexadecapole Moments (Debye-Ang^3)
      XXXX   -1762.0699   XXXY     -86.0983   XXYY    -361.9821
      XYYY     -88.3899   YYYY    -401.6938   XXXZ    -952.0929
      XXYZ     -35.2007   XYYZ    -317.3288   YYYZ    -108.6292
      XXZZ    -684.1413   XYZZ     -24.4856   YYZZ    -495.8042
      XZZZ    -884.5799   YZZZ     -99.9083   ZZZZ   -2453.1293
 -----------------------------------------------------------------
 Calculating analytic gradient of the SCF energy
 Gradient of SCF Energy
            1           2           3           4           5           6
    1  -0.0003429   0.0005510  -0.0003327  -0.0001353  -0.0000261  -0.0001742
    2   0.0000081   0.0000253   0.0000314  -0.0001460   0.0000100   0.0000563
    3   0.0000958   0.0020818   0.0001408   0.0005515   0.0003613   0.0005027
            7           8           9          10          11          12
    1  -0.0002443   0.0002927   0.0004102  -0.0002030   0.0003731  -0.0002396
    2   0.0001880   0.0000387   0.0001788  -0.0002004   0.0001592  -0.0002281
    3  -0.0000098   0.0000298  -0.0002835   0.0000148  -0.0001781  -0.0000309
           13          14          15          16          17          18
    1  -0.0002218   0.0002469   0.0003925  -0.0002854   0.0004490  -0.0019729
    2  -0.0000199   0.0000226  -0.0001091   0.0002173  -0.0001406  -0.0002498
    3  -0.0007248   0.0000204  -0.0001727  -0.0000335  -0.0002850  -0.0024454
           19          20          21          22
    1   0.0001277   0.0015448   0.0001163  -0.0003261
    2   0.0000062   0.0002132  -0.0000047  -0.0000567
    3   0.0003209   0.0035681  -0.0012900  -0.0022342
 Max gradient component =       3.568E-03
 RMS gradient           =       7.763E-04
 Gradient time:  CPU 119.88 s  wall 7.64 s
 Geometry Optimization Parameters
   NAtoms,    NIC,     NZ,  NCons,   NDum,   NFix, NCnnct, MaxDiis
       22     172       0       0       0       0       0       0


** GEOMETRY OPTIMIZATION IN DELOCALIZED INTERNAL COORDINATES **
   Searching for a Minimum

   Optimization Cycle:   1

                       Coordinates (Angstroms)
     ATOM                X               Y               Z
      1  C        -2.4083508923    0.9984834764   -2.3662547437
      2  C        -1.5543120384   -0.2118403749   -1.9459885704
      3  C        -2.2384976761   -1.5367925874   -2.3261896725
      4  C        -2.5867463449   -1.5816552836   -3.8234193167
      5  C        -3.4377297730   -0.3731774783   -4.2445934317
      6  C        -2.7551397527    0.9499468362   -3.8636626912
      7  H        -1.5849547626   -2.3750094827   -2.0545927530
      8  H        -0.5831065672   -0.1532425547   -2.4485260558
      9  H        -3.3388117820    1.0024650072   -1.7759883684
     10  H        -1.8720534969    1.9234708349   -2.1213670712
     11  H        -1.6555784977   -1.5918293252   -4.4093866053
     12  H        -3.1102152921   -2.5181807775   -4.0551406051
     13  H        -3.6290653549   -0.4033428377   -5.3251377272
     14  H        -4.4201020066   -0.4306546907   -3.7508934023
     15  H        -1.8320207629    1.0648782183   -4.4511997179
     16  H        -3.3973970401    1.8010825553   -4.1242295555
     17  H        -3.1618885583   -1.6469527918   -1.7346449512
     18  N        -1.2474445251   -0.1731895513   -0.5151412109
     19  H        -2.0131265263   -0.2687147311    0.1418849346
     20  C         0.0000000000    0.0000000000    0.0000000000
     21  H         0.0000000000    0.0000000000    1.1070732462
     22  O         1.0278769477    0.1402881570   -0.6492362509
   Point Group: c1    Number of degrees of freedom:    60


   Energy is   -404.587448154


 Attempting to generate delocalized internal coordinates
 Initial Hessian constructed with Jon Baker's OPTIMIZE code

 60 Hessian modes will be used to form the next step
  Hessian Eigenvalues:
     0.005967    0.006024    0.006964    0.007193    0.012605    0.019501
     0.019786    0.020845    0.020845    0.037215    0.038526    0.039417
     0.041724    0.048166    0.048450    0.048891    0.055292    0.055631
     0.055746    0.059934    0.066958    0.081508    0.081536    0.081616
     0.082032    0.082133    0.084029    0.087513    0.120967    0.121178
     0.142989    0.159989    0.160000    0.160554    0.174868    0.210947
     0.220000    0.220003    0.272263    0.272658    0.275535    0.286789
     0.287121    0.287175    0.329119    0.334466    0.334727    0.335769
     0.336541    0.336553    0.339301    0.339441    0.339454    0.340119
     0.340274    0.342312    0.364811    0.454000    0.528079    0.937134

 Minimum search - taking simple RFO step
 Searching for Lamda that Minimizes Along All modes
 Value Taken    Lamda =  -0.00028210
 Step Taken.  Stepsize is  0.097631

                             Maximum     Tolerance    Cnvgd?
         Gradient           0.005521      0.000100      NO
         Displacement       0.053662      0.000100      NO
         Energy change     *********      0.000000      NO


 New Cartesian Coordinates Obtained by Inverse Iteration

 Displacement from previous Coordinates is:  0.287063
 ----------------------------------------------------------------
             Standard Nuclear Orientation (Angstroms)
    I     Atom           X                Y                Z
 ----------------------------------------------------------------
    1      C      -2.3882546148     1.0005462174    -2.3791432250
    2      C      -1.5333032369    -0.2106647321    -1.9618153630
    3      C      -2.2189020548    -1.5364939454    -2.3386070669
    4      C      -2.5939040433    -1.5808183610    -3.8294869499
    5      C      -3.4548904141    -0.3742522531    -4.2324802199
    6      C      -2.7612525398     0.9475257062    -3.8702090859
    7      H      -1.5592955334    -2.3741990118    -2.0784684699
    8      H      -0.5605171152    -0.1522687814    -2.4605528257
    9      H      -3.3102490190     1.0093648981    -1.7743575428
   10      H      -1.8453216274     1.9252971880    -2.1464126780
   11      H      -1.6750952135    -1.5907466212    -4.4333387555
   12      H      -3.1203666089    -2.5176015835    -4.0509927455
   13      H      -3.6698373982    -0.4061848928    -5.3072731925
   14      H      -4.4265527724    -0.4303212661    -3.7169028879
   15      H      -1.8500898249     1.0588786700    -4.4754827103
   16      H      -3.4058344186     1.7990696751    -4.1213997796
   17      H      -3.1334349171    -1.6488936571    -1.7323820727
   18      N      -1.2438897909    -0.1734465783    -0.5243993818
   19      H      -2.0236533453    -0.2708898073     0.1152293348
   20      C      -0.0128402695     0.0000911483     0.0259404921
   21      H      -0.0520458425    -0.0034122473     1.1342728804
   22      O       1.0408658981     0.1454528538    -0.5783722747
 ----------------------------------------------------------------
 Nuclear Repulsion Energy =         466.03841391 hartrees
 There are       35 alpha and       35 beta electrons
 Applying Cartesian multipole field
    Component          Value
    ---------          -----
     (0,0,1)        3.89000E-03
 Nucleus-field energy     =    -1.1383859550 hartrees
 Requested basis set is 6-31+G(d)
 There are 71 shells and 197 basis functions
 A cutoff of  1.0D-14 yielded   2409 shell pairs
 There are     18981 function pairs
 Smallest overlap matrix eigenvalue = 2.46E-05
 Guess MOs from SCF MO coefficient file

 -----------------------------------------------------------------------
  General SCF calculation program by
  Eric Jon Sundstrom, Paul Horn, Yuezhi Mao, Dmitri Zuev, Alec White,
  David Stuck, Shaama M.S., Shane Yost, Joonho Lee, David Small,
  Daniel Levine, Susi Lehtola, Hugh Burton, Evgeny Epifanovsky,
  Bang C. Huynh
 -----------------------------------------------------------------------
 Exchange:     0.2000 Hartree-Fock + 0.0800 Slater + 0.7200 B88
 Correlation:  0.1900 VWN1RPA + 0.8100 LYP
 Using Euler-Maclaurin-Lebedev (99,590) quadrature formula
 using 16 threads for integral computing
 -------------------------------------------------------
 OpenMP Integral computing Module                
 Release: version 2.0, May 2017, Q-Chem Inc. Pleasanton 
 -------------------------------------------------------
 A restricted SCF calculation will be
 performed using DIIS
 SCF converges when DIIS error is below 1.0e-09
 ---------------------------------------
  Cycle       Energy         DIIS error
 ---------------------------------------
    1    -404.5857362447      4.88e-04  
    2    -404.5875855936      6.76e-05  
    3    -404.5875785017      9.02e-05  
    4    -404.5876067180      2.71e-05  
    5    -404.5876091193      9.43e-06  
    6    -404.5876094728      1.53e-06  
    7    -404.5876094812      6.26e-07  
    8    -404.5876094829      9.61e-08  
    9    -404.5876094829      2.81e-08  
   10    -404.5876094829      7.82e-09  
   11    -404.5876094829      2.32e-09  
   12    -404.5876094829      6.57e-10  Convergence criterion met
 ---------------------------------------
 SCF time:   CPU 563.45s  wall 35.00s 
 SCF   energy in the final basis set =     -404.5876094829
 Total energy in the final basis set =     -404.5876094829
 
 --------------------------------------------------------------
 
                    Orbital Energies (a.u.)
 --------------------------------------------------------------
 
 Alpha MOs
 -- Occupied --
-19.1210 -14.3676 -10.2867 -10.2188 -10.1784 -10.1770 -10.1679 -10.1672
-10.1641  -1.0316  -0.9276  -0.8152  -0.7333  -0.7325  -0.6291  -0.6024
 -0.5899  -0.5535  -0.5204  -0.4743  -0.4513  -0.4343  -0.4252  -0.4097
 -0.4068  -0.3859  -0.3695  -0.3642  -0.3403  -0.3346  -0.3104  -0.3021
 -0.2990  -0.2558  -0.2513
 -- Virtual --
 -0.0048   0.0178   0.0247   0.0338   0.0344   0.0487   0.0607   0.0617
  0.0669   0.0794   0.0818   0.0931   0.0993   0.1075   0.1135   0.1158
  0.1245   0.1304   0.1359   0.1459   0.1550   0.1630   0.1695   0.1791
  0.1847   0.1880   0.1992   0.2010   0.2121   0.2145   0.2177   0.2206
  0.2326   0.2374   0.2431   0.2547   0.2583   0.2613   0.2684   0.2734
  0.2933   0.2983   0.2996   0.3007   0.3040   0.3201   0.3217   0.3360
  0.3400   0.3413   0.3727   0.3827   0.3927   0.4022   0.4258   0.4297
  0.4481   0.4698   0.5017   0.6190   0.6482   0.6673   0.6777   0.6789
  0.6964   0.7104   0.7411   0.7438   0.7571   0.7609   0.7833   0.7897
  0.8128   0.8169   0.8294   0.8590   0.8656   0.9109   0.9543   0.9800
  0.9905   1.0057   1.0303   1.0334   1.0407   1.0632   1.0956   1.0983
  1.1231   1.1361   1.1366   1.1527   1.1769   1.1806   1.1885   1.2014
  1.2506   1.2661   1.3003   1.3460   1.3505   1.3767   1.4009   1.4247
  1.4853   1.4985   1.5024   1.5791   1.5861   1.6294   1.7002   1.7394
  1.7427   1.7682   1.7780   1.8180   1.8650   1.8783   1.9095   1.9171
  1.9203   1.9509   1.9889   2.0206   2.0272   2.0514   2.0653   2.0936
  2.1045   2.1344   2.2082   2.2278   2.2821   2.3164   2.3256   2.3605
  2.4114   2.4205   2.4297   2.4361   2.4595   2.5720   2.5909   2.6388
  2.6852   2.6936   2.7117   2.7735   2.7844   2.8416   2.8724   3.0194
  3.2002   4.0940   4.2058   4.2485   4.3046   4.3434   4.4261   4.6150
  4.6167   4.6804
 --------------------------------------------------------------
 
          Ground-State Mulliken Net Atomic Charges

     Atom                 Charge (a.u.)
  ----------------------------------------
      1 C                    -0.239985
      2 C                    -0.538355
      3 C                    -0.260372
      4 C                    -0.422146
      5 C                    -0.391683
      6 C                    -0.423841
      7 H                     0.208487
      8 H                     0.246267
      9 H                     0.187702
     10 H                     0.209236
     11 H                     0.213600
     12 H                     0.203902
     13 H                     0.213750
     14 H                     0.191533
     15 H                     0.213773
     16 H                     0.204429
     17 H                     0.186520
     18 N                    -0.360114
     19 H                     0.386129
     20 C                     0.329231
     21 H                     0.121271
     22 O                    -0.479334
  ----------------------------------------
  Sum of atomic charges =     0.000000

 -----------------------------------------------------------------
                    Cartesian Multipole Moments
 -----------------------------------------------------------------
    Charge (ESU x 10^10)
                -0.0000
    Dipole Moment (Debye)
         X      -4.3325      Y      -0.5718      Z      -0.9378
       Tot       4.4696
    Quadrupole Moments (Debye-Ang)
        XX     -54.9952     XY       0.2053     YY     -56.8174
        XZ       5.7713     YZ       0.7487     ZZ     -47.1856
    Octopole Moments (Debye-Ang^2)
       XXX     286.0545    XXY       9.6714    XYY     100.2278
       YYY      35.4696    XXZ     119.1263    XYZ      -0.7431
       YYZ     124.8569    XZZ      78.8666    YZZ       9.1385
       ZZZ     344.0265
    Hexadecapole Moments (Debye-Ang^3)
      XXXX   -1759.6720   XXXY     -86.1196   XXYY    -361.5535
      XYYY     -88.4748   YYYY    -401.3453   XXXZ    -953.3138
      XXYZ     -35.1991   XYYZ    -317.9952   YYYZ    -108.9238
      XXZZ    -682.9082   XYZZ     -24.3864   YYZZ    -495.9292
      XZZZ    -885.2064   YZZZ    -100.0457   ZZZZ   -2453.2192
 -----------------------------------------------------------------
 Calculating analytic gradient of the SCF energy
 Gradient of SCF Energy
            1           2           3           4           5           6
    1  -0.0000477   0.0009124  -0.0000769   0.0000721  -0.0002526   0.0000786
    2  -0.0001096   0.0000275   0.0001411   0.0000703  -0.0000184  -0.0000753
    3   0.0001334   0.0004495   0.0001645  -0.0000674   0.0001696  -0.0000679
            7           8           9          10          11          12
    1   0.0000096  -0.0001445  -0.0000196   0.0000028  -0.0000016  -0.0001270
    2  -0.0000756   0.0000045   0.0000483   0.0000640  -0.0000220   0.0000916
    3  -0.0000252  -0.0003385  -0.0000208  -0.0000345   0.0000524  -0.0000196
           13          14          15          16          17          18
    1  -0.0000310  -0.0000700  -0.0000068  -0.0001145   0.0000029  -0.0021300
    2  -0.0000088  -0.0000048   0.0000200  -0.0001102  -0.0000493  -0.0001984
    3   0.0000668   0.0000487   0.0000505  -0.0000229  -0.0000239  -0.0002977
           19          20          21          22
    1   0.0002339   0.0008532   0.0002733   0.0005836
    2   0.0000343  -0.0000362   0.0000679   0.0001391
    3   0.0001076   0.0003101  -0.0005413  -0.0000937
 Max gradient component =       2.130E-03
 RMS gradient           =       3.430E-04
 Gradient time:  CPU 120.21 s  wall 7.57 s
 Geometry Optimization Parameters
   NAtoms,    NIC,     NZ,  NCons,   NDum,   NFix, NCnnct, MaxDiis
       22     172       0       0       0       0       0       0

 Cartesian Hessian Update
 Hessian updated using BFGS update


** GEOMETRY OPTIMIZATION IN DELOCALIZED INTERNAL COORDINATES **
   Searching for a Minimum

   Optimization Cycle:   2

                       Coordinates (Angstroms)
     ATOM                X               Y               Z
      1  C        -2.3882546148    1.0005462174   -2.3791432250
      2  C        -1.5333032369   -0.2106647321   -1.9618153630
      3  C        -2.2189020548   -1.5364939454   -2.3386070669
      4  C        -2.5939040433   -1.5808183610   -3.8294869499
      5  C        -3.4548904141   -0.3742522531   -4.2324802199
      6  C        -2.7612525398    0.9475257062   -3.8702090859
      7  H        -1.5592955334   -2.3741990118   -2.0784684699
      8  H        -0.5605171152   -0.1522687814   -2.4605528257
      9  H        -3.3102490190    1.0093648981   -1.7743575428
     10  H        -1.8453216274    1.9252971880   -2.1464126780
     11  H        -1.6750952135   -1.5907466212   -4.4333387555
     12  H        -3.1203666089   -2.5176015835   -4.0509927455
     13  H        -3.6698373982   -0.4061848928   -5.3072731925
     14  H        -4.4265527724   -0.4303212661   -3.7169028879
     15  H        -1.8500898249    1.0588786700   -4.4754827103
     16  H        -3.4058344186    1.7990696751   -4.1213997796
     17  H        -3.1334349171   -1.6488936571   -1.7323820727
     18  N        -1.2438897909   -0.1734465783   -0.5243993818
     19  H        -2.0236533453   -0.2708898073    0.1152293348
     20  C        -0.0128402695    0.0000911483    0.0259404921
     21  H        -0.0520458425   -0.0034122473    1.1342728804
     22  O         1.0408658981    0.1454528538   -0.5783722747
   Point Group: c1    Number of degrees of freedom:    60


   Energy is   -404.587609483

 Hessian updated using BFGS update

 60 Hessian modes will be used to form the next step
  Hessian Eigenvalues:
     0.005646    0.005975    0.006863    0.007193    0.012601    0.019374
     0.019504    0.020844    0.020895    0.036478    0.038531    0.039417
     0.042193    0.048445    0.048488    0.048893    0.055291    0.055721
     0.056448    0.059990    0.066956    0.081434    0.081537    0.081609
     0.081998    0.082130    0.084530    0.087510    0.120729    0.120968
     0.142982    0.158065    0.160072    0.160488    0.174860    0.191191
     0.211315    0.241523    0.272266    0.272654    0.275536    0.286879
     0.287136    0.287364    0.326311    0.334532    0.334937    0.335838
     0.336547    0.336709    0.339379    0.339448    0.339837    0.340212
     0.341319    0.342421    0.362399    0.454094    0.527021    0.935534

 Minimum search - taking simple RFO step
 Searching for Lamda that Minimizes Along All modes
 Value Taken    Lamda =  -0.00002754
 Step Taken.  Stepsize is  0.038962

                             Maximum     Tolerance    Cnvgd?
         Gradient           0.001001      0.000100      NO
         Displacement       0.016347      0.000100      NO
         Energy change     -0.000161      0.000000      NO


 New Cartesian Coordinates Obtained by Inverse Iteration

 Displacement from previous Coordinates is:  0.092888
 ----------------------------------------------------------------
             Standard Nuclear Orientation (Angstroms)
    I     Atom           X                Y                Z
 ----------------------------------------------------------------
    1      C      -2.3815115030     1.0018314567    -2.3836664570
    2      C      -1.5273909766    -0.2100397381    -1.9664223100
    3      C      -2.2119432336    -1.5366261212    -2.3428456542
    4      C      -2.5961745160    -1.5811396470    -3.8313051306
    5      C      -3.4599156886    -0.3746250305    -4.2288261259
    6      C      -2.7634745540     0.9473609513    -3.8723710064
    7      H      -1.5494291918    -2.3730758697    -2.0863532955
    8      H      -0.5522654024    -0.1515555572    -2.4605005896
    9      H      -3.3001684892     1.0130805797    -1.7737853529
   10      H      -1.8356835985     1.9257889543    -2.1548299833
   11      H      -1.6817877999    -1.5906895690    -4.4416738184
   12      H      -3.1229724571    -2.5187703501    -4.0485535017
   13      H      -3.6838042860    -0.4072560569    -5.3017286949
   14      H      -4.4273568879    -0.4302117996    -3.7052896436
   15      H      -1.8565288901     1.0571949229    -4.4840704872
   16      H      -3.4084086791     1.7997716974    -4.1197878602
   17      H      -3.1228473023    -1.6507322539    -1.7313518315
   18      N      -1.2425720275    -0.1731926087    -0.5272647974
   19      H      -2.0273338197    -0.2714400106     0.1061712782
   20      C      -0.0185453546     0.0009555345     0.0344970543
   21      H      -0.0690444280    -0.0055220809     1.1433964554
   22      O       1.0404943837     0.1449252149    -0.5600727677
 ----------------------------------------------------------------
 Nuclear Repulsion Energy =         465.93673498 hartrees
 There are       35 alpha and       35 beta electrons
 Applying Cartesian multipole field
    Component          Value
    ---------          -----
     (0,0,1)        3.89000E-03
 Nucleus-field energy     =    -1.1377595513 hartrees
 Requested basis set is 6-31+G(d)
 There are 71 shells and 197 basis functions
 A cutoff of  1.0D-14 yielded   2408 shell pairs
 There are     18975 function pairs
 Smallest overlap matrix eigenvalue = 2.45E-05
 Guess MOs from SCF MO coefficient file

 -----------------------------------------------------------------------
  General SCF calculation program by
  Eric Jon Sundstrom, Paul Horn, Yuezhi Mao, Dmitri Zuev, Alec White,
  David Stuck, Shaama M.S., Shane Yost, Joonho Lee, David Small,
  Daniel Levine, Susi Lehtola, Hugh Burton, Evgeny Epifanovsky,
  Bang C. Huynh
 -----------------------------------------------------------------------
 Exchange:     0.2000 Hartree-Fock + 0.0800 Slater + 0.7200 B88
 Correlation:  0.1900 VWN1RPA + 0.8100 LYP
 Using Euler-Maclaurin-Lebedev (99,590) quadrature formula
 using 16 threads for integral computing
 -------------------------------------------------------
 OpenMP Integral computing Module                
 Release: version 2.0, May 2017, Q-Chem Inc. Pleasanton 
 -------------------------------------------------------
 A restricted SCF calculation will be
 performed using DIIS
 SCF converges when DIIS error is below 1.0e-09
 ---------------------------------------
  Cycle       Energy         DIIS error
 ---------------------------------------
    1    -404.5874732895      1.35e-04  
    2    -404.5876207908      1.69e-05  
    3    -404.5876204073      2.34e-05  
    4    -404.5876223197      6.56e-06  
    5    -404.5876224703      1.94e-06  
    6    -404.5876224854      4.15e-07  
    7    -404.5876224860      1.45e-07  
    8    -404.5876224861      3.20e-08  
    9    -404.5876224861      5.01e-09  
   10    -404.5876224861      1.53e-09  
   11    -404.5876224861      6.08e-10  Convergence criterion met
 ---------------------------------------
 SCF time:   CPU 521.54s  wall 33.00s 
 SCF   energy in the final basis set =     -404.5876224861
 Total energy in the final basis set =     -404.5876224861
 
 --------------------------------------------------------------
 
                    Orbital Energies (a.u.)
 --------------------------------------------------------------
 
 Alpha MOs
 -- Occupied --
-19.1207 -14.3675 -10.2866 -10.2191 -10.1786 -10.1772 -10.1681 -10.1674
-10.1643  -1.0317  -0.9278  -0.8153  -0.7336  -0.7327  -0.6293  -0.6026
 -0.5897  -0.5536  -0.5205  -0.4742  -0.4515  -0.4342  -0.4254  -0.4100
 -0.4066  -0.3860  -0.3697  -0.3644  -0.3405  -0.3347  -0.3105  -0.3022
 -0.2992  -0.2558  -0.2514
 -- Virtual --
 -0.0048   0.0181   0.0247   0.0338   0.0344   0.0488   0.0606   0.0617
  0.0669   0.0794   0.0818   0.0930   0.0992   0.1074   0.1136   0.1159
  0.1245   0.1305   0.1358   0.1457   0.1548   0.1627   0.1696   0.1789
  0.1841   0.1877   0.1993   0.2011   0.2120   0.2144   0.2178   0.2205
  0.2323   0.2375   0.2430   0.2547   0.2581   0.2612   0.2688   0.2735
  0.2933   0.2984   0.2995   0.3004   0.3042   0.3203   0.3219   0.3356
  0.3396   0.3407   0.3728   0.3823   0.3935   0.4019   0.4261   0.4298
  0.4487   0.4689   0.5018   0.6186   0.6484   0.6666   0.6776   0.6787
  0.6963   0.7100   0.7409   0.7436   0.7573   0.7607   0.7830   0.7896
  0.8128   0.8165   0.8290   0.8586   0.8657   0.9111   0.9539   0.9800
  0.9903   1.0055   1.0307   1.0332   1.0403   1.0644   1.0959   1.0988
  1.1228   1.1360   1.1366   1.1525   1.1767   1.1805   1.1877   1.2008
  1.2511   1.2661   1.2999   1.3453   1.3499   1.3769   1.4009   1.4235
  1.4856   1.4978   1.5032   1.5788   1.5874   1.6313   1.6985   1.7390
  1.7426   1.7690   1.7770   1.8178   1.8654   1.8785   1.9084   1.9175
  1.9200   1.9509   1.9874   2.0206   2.0266   2.0503   2.0656   2.0929
  2.1054   2.1342   2.2073   2.2268   2.2823   2.3174   2.3260   2.3601
  2.4115   2.4201   2.4295   2.4360   2.4587   2.5717   2.5902   2.6392
  2.6850   2.6938   2.7127   2.7727   2.7847   2.8415   2.8712   3.0205
  3.2017   4.0939   4.2053   4.2487   4.3047   4.3436   4.4264   4.6141
  4.6160   4.6798
 --------------------------------------------------------------
 
          Ground-State Mulliken Net Atomic Charges

     Atom                 Charge (a.u.)
  ----------------------------------------
      1 C                    -0.239042
      2 C                    -0.535553
      3 C                    -0.259312
      4 C                    -0.423752
      5 C                    -0.391735
      6 C                    -0.425478
      7 H                     0.208743
      8 H                     0.246009
      9 H                     0.187607
     10 H                     0.209439
     11 H                     0.213676
     12 H                     0.203970
     13 H                     0.213767
     14 H                     0.191375
     15 H                     0.213838
     16 H                     0.204502
     17 H                     0.186315
     18 N                    -0.359778
     19 H                     0.385805
     20 C                     0.328911
     21 H                     0.120990
     22 O                    -0.480298
  ----------------------------------------
  Sum of atomic charges =     0.000000

 -----------------------------------------------------------------
                    Cartesian Multipole Moments
 -----------------------------------------------------------------
    Charge (ESU x 10^10)
                -0.0000
    Dipole Moment (Debye)
         X      -4.3517      Y      -0.5725      Z      -0.9845
       Tot       4.4982
    Quadrupole Moments (Debye-Ang)
        XX     -54.9820     XY       0.2074     YY     -56.7948
        XZ       5.7540     YZ       0.7454     ZZ     -47.1030
    Octopole Moments (Debye-Ang^2)
       XXX     285.9460    XXY       9.6622    XYY     100.1543
       YYY      35.4284    XXZ     118.9187    XYZ      -0.7592
       YYZ     124.7322    XZZ      78.7957    YZZ       9.1245
       ZZZ     343.6114
    Hexadecapole Moments (Debye-Ang^3)
      XXXX   -1758.9292   XXXY     -86.0728   XXYY    -361.3056
      XYYY     -88.3701   YYYY    -401.3495   XXXZ    -953.9209
      XXYZ     -35.2244   XYYZ    -318.1154   YYYZ    -108.9630
      XXZZ    -682.6152   XYZZ     -24.3335   YYZZ    -495.9834
      XZZZ    -885.3520   YZZZ    -100.0684   ZZZZ   -2453.6415
 -----------------------------------------------------------------
 Calculating analytic gradient of the SCF energy
 Gradient of SCF Energy
            1           2           3           4           5           6
    1   0.0000073   0.0001364   0.0000140  -0.0000722  -0.0000407  -0.0000734
    2   0.0000447  -0.0000309  -0.0000308  -0.0000364  -0.0000062   0.0000189
    3   0.0000163   0.0000685   0.0000122  -0.0000531   0.0000138  -0.0000549
            7           8           9          10          11          12
    1   0.0000264  -0.0000485   0.0000110   0.0000219  -0.0001048  -0.0000445
    2  -0.0000345   0.0000042  -0.0000142   0.0000319  -0.0000120  -0.0000041
    3  -0.0000061  -0.0000430   0.0000461  -0.0000185   0.0000210   0.0000389
           13          14          15          16          17          18
    1  -0.0000893  -0.0000254  -0.0001054  -0.0000428   0.0000126  -0.0000619
    2  -0.0000120  -0.0000031  -0.0000100  -0.0000096   0.0000242  -0.0000594
    3   0.0000918   0.0000742   0.0000145   0.0000304   0.0000495  -0.0001390
           19          20          21          22
    1   0.0002461   0.0002439   0.0001432  -0.0001539
    2  -0.0000003   0.0004711  -0.0001339  -0.0001976
    3   0.0000071  -0.0001623  -0.0000005  -0.0000069
 Max gradient component =       4.711E-04
 RMS gradient           =       9.612E-05
 Gradient time:  CPU 119.60 s  wall 7.63 s
 Geometry Optimization Parameters
   NAtoms,    NIC,     NZ,  NCons,   NDum,   NFix, NCnnct, MaxDiis
       22     172       0       0       0       0       0       0

 Cartesian Hessian Update
 Hessian updated using BFGS update


** GEOMETRY OPTIMIZATION IN DELOCALIZED INTERNAL COORDINATES **
   Searching for a Minimum

   Optimization Cycle:   3

                       Coordinates (Angstroms)
     ATOM                X               Y               Z
      1  C        -2.3815115030    1.0018314567   -2.3836664570
      2  C        -1.5273909766   -0.2100397381   -1.9664223100
      3  C        -2.2119432336   -1.5366261212   -2.3428456542
      4  C        -2.5961745160   -1.5811396470   -3.8313051306
      5  C        -3.4599156886   -0.3746250305   -4.2288261259
      6  C        -2.7634745540    0.9473609513   -3.8723710064
      7  H        -1.5494291918   -2.3730758697   -2.0863532955
      8  H        -0.5522654024   -0.1515555572   -2.4605005896
      9  H        -3.3001684892    1.0130805797   -1.7737853529
     10  H        -1.8356835985    1.9257889543   -2.1548299833
     11  H        -1.6817877999   -1.5906895690   -4.4416738184
     12  H        -3.1229724571   -2.5187703501   -4.0485535017
     13  H        -3.6838042860   -0.4072560569   -5.3017286949
     14  H        -4.4273568879   -0.4302117996   -3.7052896436
     15  H        -1.8565288901    1.0571949229   -4.4840704872
     16  H        -3.4084086791    1.7997716974   -4.1197878602
     17  H        -3.1228473023   -1.6507322539   -1.7313518315
     18  N        -1.2425720275   -0.1731926087   -0.5272647974
     19  H        -2.0273338197   -0.2714400106    0.1061712782
     20  C        -0.0185453546    0.0009555345    0.0344970543
     21  H        -0.0690444280   -0.0055220809    1.1433964554
     22  O         1.0404943837    0.1449252149   -0.5600727677
   Point Group: c1    Number of degrees of freedom:    60


   Energy is   -404.587622486

 Hessian updated using BFGS update

 60 Hessian modes will be used to form the next step
  Hessian Eigenvalues:
     0.005238    0.005974    0.006819    0.007192    0.012570    0.018955
     0.019502    0.020837    0.024044    0.036718    0.038524    0.039417
     0.042637    0.048448    0.048530    0.048895    0.055289    0.055720
     0.056412    0.060023    0.066948    0.081388    0.081535    0.081609
     0.082005    0.082131    0.084564    0.087498    0.119758    0.120968
     0.142959    0.153372    0.160343    0.160756    0.174823    0.194742
     0.211313    0.243649    0.271672    0.272584    0.275534    0.286943
     0.287139    0.288188    0.328537    0.334533    0.334926    0.335956
     0.336547    0.336895    0.339400    0.339448    0.339860    0.340210
     0.340986    0.342494    0.361784    0.454157    0.524317    0.946075

 Minimum search - taking simple RFO step
 Searching for Lamda that Minimizes Along All modes
 Value Taken    Lamda =  -0.00000453
 Step Taken.  Stepsize is  0.015356

                             Maximum     Tolerance    Cnvgd?
         Gradient           0.000251      0.000100      NO
         Displacement       0.010373      0.000100      NO
         Energy change     -0.000013      0.000000      NO


 New Cartesian Coordinates Obtained by Inverse Iteration

 Displacement from previous Coordinates is:  0.024090
 ----------------------------------------------------------------
             Standard Nuclear Orientation (Angstroms)
    I     Atom           X                Y                Z
 ----------------------------------------------------------------
    1      C      -2.3796413629     1.0012840515    -2.3839753198
    2      C      -1.5263804553    -0.2112066659    -1.9672218111
    3      C      -2.2112946634    -1.5373898534    -2.3439704110
    4      C      -2.5970406013    -1.5811726497    -3.8319353400
    5      C      -3.4608719774    -0.3742235572    -4.2279658635
    6      C      -2.7630668685     0.9472338611    -3.8722034162
    7      H      -1.5484990852    -2.3738347193    -2.0884790158
    8      H      -0.5507126578    -0.1530521543    -2.4604194137
    9      H      -3.2976895825     1.0134875191    -1.7732390392
   10      H      -1.8326961943     1.9246121682    -2.1555330816
   11      H      -1.6833887319    -1.5907283909    -4.4435088892
   12      H      -3.1243047832    -2.5186571407    -4.0487672241
   13      H      -3.6864868995    -0.4065000536    -5.3005736838
   14      H      -4.4275306081    -0.4294163957    -3.7028886954
   15      H      -1.8567337385     1.0563963154    -4.4850384952
   16      H      -3.4075914310     1.8002509138    -4.1186789686
   17      H      -3.1215499866    -1.6519051932    -1.7316059681
   18      N      -1.2423196891    -0.1751761816    -0.5277463203
   19      H      -2.0283944117    -0.2731188692     0.1043248673
   20      C      -0.0194128688    -0.0006005738     0.0356832442
   21      H      -0.0726192858    -0.0007337215     1.1445282823
   22      O       1.0395611803     0.1504839091    -0.5574199572
 ----------------------------------------------------------------
 Nuclear Repulsion Energy =         465.93704090 hartrees
 There are       35 alpha and       35 beta electrons
 Applying Cartesian multipole field
    Component          Value
    ---------          -----
     (0,0,1)        3.89000E-03
 Nucleus-field energy     =    -1.1376681478 hartrees
 Requested basis set is 6-31+G(d)
 There are 71 shells and 197 basis functions
 A cutoff of  1.0D-14 yielded   2408 shell pairs
 There are     18975 function pairs
 Smallest overlap matrix eigenvalue = 2.45E-05
 Guess MOs from SCF MO coefficient file

 -----------------------------------------------------------------------
  General SCF calculation program by
  Eric Jon Sundstrom, Paul Horn, Yuezhi Mao, Dmitri Zuev, Alec White,
  David Stuck, Shaama M.S., Shane Yost, Joonho Lee, David Small,
  Daniel Levine, Susi Lehtola, Hugh Burton, Evgeny Epifanovsky,
  Bang C. Huynh
 -----------------------------------------------------------------------
 Exchange:     0.2000 Hartree-Fock + 0.0800 Slater + 0.7200 B88
 Correlation:  0.1900 VWN1RPA + 0.8100 LYP
 Using Euler-Maclaurin-Lebedev (99,590) quadrature formula
 using 16 threads for integral computing
 -------------------------------------------------------
 OpenMP Integral computing Module                
 Release: version 2.0, May 2017, Q-Chem Inc. Pleasanton 
 -------------------------------------------------------
 A restricted SCF calculation will be
 performed using DIIS
 SCF converges when DIIS error is below 1.0e-09
 ---------------------------------------
  Cycle       Energy         DIIS error
 ---------------------------------------
    1    -404.5875909056      5.76e-05  
    2    -404.5876188061      8.38e-06  
    3    -404.5876191098      5.35e-06  
    4    -404.5876191705      3.82e-06  
    5    -404.5876192227      7.26e-07  
    6    -404.5876192245      2.80e-07  
    7    -404.5876192248      6.03e-08  
    8    -404.5876192248      1.88e-08  
    9    -404.5876192248      4.46e-09  
   10    -404.5876192248      1.20e-09  
   11    -404.5876192248      4.39e-10  Convergence criterion met
 ---------------------------------------
 SCF time:   CPU 522.19s  wall 33.00s 
 SCF   energy in the final basis set =     -404.5876192248
 Total energy in the final basis set =     -404.5876192248
 
 --------------------------------------------------------------
 
                    Orbital Energies (a.u.)
 --------------------------------------------------------------
 
 Alpha MOs
 -- Occupied --
-19.1207 -14.3675 -10.2866 -10.2191 -10.1786 -10.1772 -10.1681 -10.1674
-10.1643  -1.0316  -0.9278  -0.8154  -0.7336  -0.7327  -0.6293  -0.6027
 -0.5897  -0.5536  -0.5205  -0.4742  -0.4516  -0.4342  -0.4254  -0.4100
 -0.4065  -0.3860  -0.3697  -0.3644  -0.3406  -0.3348  -0.3105  -0.3022
 -0.2992  -0.2558  -0.2514
 -- Virtual --
 -0.0048   0.0181   0.0247   0.0338   0.0344   0.0488   0.0606   0.0617
  0.0669   0.0794   0.0817   0.0929   0.0992   0.1074   0.1136   0.1159
  0.1245   0.1305   0.1358   0.1457   0.1548   0.1626   0.1696   0.1788
  0.1840   0.1877   0.1993   0.2011   0.2119   0.2144   0.2179   0.2205
  0.2322   0.2375   0.2429   0.2547   0.2581   0.2611   0.2689   0.2736
  0.2933   0.2984   0.2994   0.3004   0.3042   0.3204   0.3219   0.3355
  0.3395   0.3406   0.3728   0.3823   0.3937   0.4018   0.4262   0.4298
  0.4488   0.4687   0.5018   0.6186   0.6484   0.6665   0.6775   0.6786
  0.6962   0.7099   0.7410   0.7435   0.7568   0.7610   0.7830   0.7896
  0.8127   0.8165   0.8289   0.8587   0.8656   0.9112   0.9539   0.9800
  0.9902   1.0054   1.0308   1.0332   1.0402   1.0646   1.0959   1.0989
  1.1228   1.1360   1.1366   1.1524   1.1766   1.1805   1.1876   1.2008
  1.2513   1.2659   1.2998   1.3451   1.3499   1.3770   1.4008   1.4233
  1.4860   1.4976   1.5029   1.5791   1.5875   1.6315   1.6983   1.7389
  1.7427   1.7691   1.7768   1.8179   1.8651   1.8791   1.9083   1.9176
  1.9200   1.9508   1.9873   2.0206   2.0266   2.0502   2.0657   2.0928
  2.1055   2.1341   2.2073   2.2264   2.2825   2.3172   2.3260   2.3601
  2.4115   2.4201   2.4296   2.4360   2.4587   2.5716   2.5901   2.6392
  2.6849   2.6938   2.7130   2.7728   2.7848   2.8416   2.8710   3.0206
  3.2018   4.0939   4.2053   4.2488   4.3048   4.3436   4.4264   4.6140
  4.6159   4.6798
 --------------------------------------------------------------
 
          Ground-State Mulliken Net Atomic Charges

     Atom                 Charge (a.u.)
  ----------------------------------------
      1 C                    -0.238966
      2 C                    -0.535359
      3 C                    -0.258922
      4 C                    -0.423925
      5 C                    -0.391641
      6 C                    -0.425850
      7 H                     0.208756
      8 H                     0.245968
      9 H                     0.187597
     10 H                     0.209567
     11 H                     0.213670
     12 H                     0.203970
     13 H                     0.213762
     14 H                     0.191338
     15 H                     0.213859
     16 H                     0.204506
     17 H                     0.186286
     18 N                    -0.359793
     19 H                     0.385801
     20 C                     0.328841
     21 H                     0.120974
     22 O                    -0.480440
  ----------------------------------------
  Sum of atomic charges =     0.000000

 -----------------------------------------------------------------
                    Cartesian Multipole Moments
 -----------------------------------------------------------------
    Charge (ESU x 10^10)
                 0.0000
    Dipole Moment (Debye)
         X      -4.3544      Y      -0.5814      Z      -0.9914
       Tot       4.5035
    Quadrupole Moments (Debye-Ang)
        XX     -54.9714     XY       0.1888     YY     -56.7977
        XZ       5.7491     YZ       0.7532     ZZ     -47.0938
    Octopole Moments (Debye-Ang^2)
       XXX     285.9253    XXY       9.6531    XYY     100.1420
       YYY      35.4362    XXZ     118.8885    XYZ      -0.7491
       YYZ     124.7220    XZZ      78.7954    YZZ       9.1327
       ZZZ     343.5656
    Hexadecapole Moments (Debye-Ang^3)
      XXXX   -1758.5940   XXXY     -86.3657   XXYY    -361.2583
      XYYY     -88.6712   YYYY    -401.4830   XXXZ    -953.9705
      XXYZ     -35.2691   XYYZ    -318.1326   YYYZ    -109.0889
      XXZZ    -682.5529   XYZZ     -24.4445   YYZZ    -496.0210
      XZZZ    -885.3785   YZZZ    -100.1967   ZZZZ   -2453.6785
 -----------------------------------------------------------------
 Calculating analytic gradient of the SCF energy
 Gradient of SCF Energy
            1           2           3           4           5           6
    1  -0.0000168  -0.0000741   0.0000148  -0.0000672  -0.0000247  -0.0000719
    2   0.0000232   0.0000421  -0.0000466  -0.0000071  -0.0000047   0.0000075
    3  -0.0000317  -0.0000303   0.0000131   0.0000098   0.0000364   0.0000089
            7           8           9          10          11          12
    1   0.0000133   0.0000178   0.0000343   0.0000157  -0.0000806  -0.0000423
    2   0.0000130  -0.0000100  -0.0000083  -0.0000058  -0.0000092  -0.0000203
    3  -0.0000101   0.0000015   0.0000473  -0.0000178  -0.0000099   0.0000620
           13          14          15          16          17          18
    1  -0.0001043  -0.0000350  -0.0000794  -0.0000452   0.0000261   0.0002915
    2  -0.0000122  -0.0000037  -0.0000123   0.0000075   0.0000209   0.0002862
    3   0.0000564   0.0000850  -0.0000192   0.0000460   0.0000541  -0.0000810
           19          20          21          22
    1   0.0000953   0.0002706   0.0000304  -0.0001683
    2   0.0000708  -0.0011545   0.0003975   0.0004261
    3  -0.0000015  -0.0001730   0.0000239  -0.0000700
 Max gradient component =       1.155E-03
 RMS gradient           =       1.774E-04
 Gradient time:  CPU 118.98 s  wall 7.53 s
 Geometry Optimization Parameters
   NAtoms,    NIC,     NZ,  NCons,   NDum,   NFix, NCnnct, MaxDiis
       22     172       0       0       0       0       0       0

 Cartesian Hessian Update
 Hessian updated using BFGS update


** GEOMETRY OPTIMIZATION IN DELOCALIZED INTERNAL COORDINATES **
   Searching for a Minimum

   Optimization Cycle:   4

                       Coordinates (Angstroms)
     ATOM                X               Y               Z
      1  C        -2.3796413629    1.0012840515   -2.3839753198
      2  C        -1.5263804553   -0.2112066659   -1.9672218111
      3  C        -2.2112946634   -1.5373898534   -2.3439704110
      4  C        -2.5970406013   -1.5811726497   -3.8319353400
      5  C        -3.4608719774   -0.3742235572   -4.2279658635
      6  C        -2.7630668685    0.9472338611   -3.8722034162
      7  H        -1.5484990852   -2.3738347193   -2.0884790158
      8  H        -0.5507126578   -0.1530521543   -2.4604194137
      9  H        -3.2976895825    1.0134875191   -1.7732390392
     10  H        -1.8326961943    1.9246121682   -2.1555330816
     11  H        -1.6833887319   -1.5907283909   -4.4435088892
     12  H        -3.1243047832   -2.5186571407   -4.0487672241
     13  H        -3.6864868995   -0.4065000536   -5.3005736838
     14  H        -4.4275306081   -0.4294163957   -3.7028886954
     15  H        -1.8567337385    1.0563963154   -4.4850384952
     16  H        -3.4075914310    1.8002509138   -4.1186789686
     17  H        -3.1215499866   -1.6519051932   -1.7316059681
     18  N        -1.2423196891   -0.1751761816   -0.5277463203
     19  H        -2.0283944117   -0.2731188692    0.1043248673
     20  C        -0.0194128688   -0.0006005738    0.0356832442
     21  H        -0.0726192858   -0.0007337215    1.1445282823
     22  O         1.0395611803    0.1504839091   -0.5574199572
   Point Group: c1    Number of degrees of freedom:    60


   Energy is   -404.587619225

 Hessian updated using BFGS update

 60 Hessian modes will be used to form the next step
  Hessian Eigenvalues:
     0.005476    0.005974    0.006856    0.007181    0.012540    0.019428
     0.019504    0.020844    0.036462    0.038522    0.039416    0.042260
     0.048443    0.048494    0.048892    0.055281    0.055707    0.056398
     0.059930    0.066899    0.081334    0.081534    0.081607    0.081909
     0.082102    0.083447    0.084666    0.087650    0.119664    0.120968
     0.143024    0.151947    0.160134    0.160464    0.175118    0.194035
     0.211031    0.242521    0.270467    0.272585    0.275535    0.285608
     0.286960    0.287420    0.327166    0.334532    0.334926    0.335641
     0.336396    0.336547    0.339363    0.339448    0.339821    0.340209
     0.340617    0.342079    0.361706    0.452034    0.525496    0.931090

 Minimum search - taking simple RFO step
 Searching for Lamda that Minimizes Along All modes
 Value Taken    Lamda =  -0.00000819
 Step Taken.  Stepsize is  0.010791

                             Maximum     Tolerance    Cnvgd?
         Gradient           0.000634      0.000100      NO
         Displacement       0.007603      0.000100      NO
         Energy change      0.000003      0.000000      NO


 New Cartesian Coordinates Obtained by Inverse Iteration

 Displacement from previous Coordinates is:  0.016175
 ----------------------------------------------------------------
             Standard Nuclear Orientation (Angstroms)
    I     Atom           X                Y                Z
 ----------------------------------------------------------------
    1      C      -2.3809177838     1.0015014563    -2.3836285879
    2      C      -1.5272548957    -0.2105812764    -1.9666157229
    3      C      -2.2119152786    -1.5369198256    -2.3431789609
    4      C      -2.5963968739    -1.5810633765    -3.8314544449
    5      C      -3.4602185387    -0.3744356383    -4.2284286590
    6      C      -2.7630882322     0.9472262939    -3.8721630658
    7      H      -1.5492525499    -2.3732828523    -2.0870440006
    8      H      -0.5519057172    -0.1522402000    -2.4604489013
    9      H      -3.2994409739     1.0133052512    -1.7736084677
   10      H      -1.8345884757     1.9251166202    -2.1548504581
   11      H      -1.6821412819    -1.5905108902    -4.4421605428
   12      H      -3.1233611341    -2.5186138996    -4.0487052659
   13      H      -3.6846386353    -0.4068860768    -5.3012888083
   14      H      -4.4274302858    -0.4298446493    -3.7043874436
   15      H      -1.8561957973     1.0566728601    -4.4841496534
   16      H      -3.4077744306     1.7999112831    -4.1193474451
   17      H      -3.1226304588    -1.6514090939    -1.7315140199
   18      N      -1.2426990613    -0.1740804828    -0.5273326425
   19      H      -2.0281482296    -0.2722960103     0.1054862228
   20      C      -0.0189009805     0.0008798068     0.0345765463
   21      H      -0.0699019429    -0.0037064889     1.1433489366
   22      O       1.0401368552     0.1472898079    -0.5597391349
 ----------------------------------------------------------------
 Nuclear Repulsion Energy =         465.94908313 hartrees
 There are       35 alpha and       35 beta electrons
 Applying Cartesian multipole field
    Component          Value
    ---------          -----
     (0,0,1)        3.89000E-03
 Nucleus-field energy     =    -1.1377436581 hartrees
 Requested basis set is 6-31+G(d)
 There are 71 shells and 197 basis functions
 A cutoff of  1.0D-14 yielded   2408 shell pairs
 There are     18975 function pairs
 Smallest overlap matrix eigenvalue = 2.45E-05
 Guess MOs from SCF MO coefficient file

 -----------------------------------------------------------------------
  General SCF calculation program by
  Eric Jon Sundstrom, Paul Horn, Yuezhi Mao, Dmitri Zuev, Alec White,
  David Stuck, Shaama M.S., Shane Yost, Joonho Lee, David Small,
  Daniel Levine, Susi Lehtola, Hugh Burton, Evgeny Epifanovsky,
  Bang C. Huynh
 -----------------------------------------------------------------------
 Exchange:     0.2000 Hartree-Fock + 0.0800 Slater + 0.7200 B88
 Correlation:  0.1900 VWN1RPA + 0.8100 LYP
 Using Euler-Maclaurin-Lebedev (99,590) quadrature formula
 using 16 threads for integral computing
 -------------------------------------------------------
 OpenMP Integral computing Module                
 Release: version 2.0, May 2017, Q-Chem Inc. Pleasanton 
 -------------------------------------------------------
 A restricted SCF calculation will be
 performed using DIIS
 SCF converges when DIIS error is below 1.0e-09
 ---------------------------------------
  Cycle       Energy         DIIS error
 ---------------------------------------
    1    -404.5876106771      3.88e-05  
    2    -404.5876231478      5.55e-06  
    3    -404.5876232813      3.45e-06  
    4    -404.5876233024      2.74e-06  
    5    -404.5876233301      3.56e-07  
    6    -404.5876233306      1.59e-07  
    7    -404.5876233307      3.67e-08  
    8    -404.5876233307      1.12e-08  
    9    -404.5876233307      3.26e-09  
   10    -404.5876233307      5.96e-10  Convergence criterion met
 ---------------------------------------
 SCF time:   CPU 487.93s  wall 31.00s 
 SCF   energy in the final basis set =     -404.5876233307
 Total energy in the final basis set =     -404.5876233307
 
 --------------------------------------------------------------
 
                    Orbital Energies (a.u.)
 --------------------------------------------------------------
 
 Alpha MOs
 -- Occupied --
-19.1207 -14.3675 -10.2866 -10.2191 -10.1786 -10.1772 -10.1681 -10.1674
-10.1643  -1.0316  -0.9278  -0.8153  -0.7336  -0.7327  -0.6293  -0.6027
 -0.5897  -0.5536  -0.5205  -0.4742  -0.4515  -0.4342  -0.4254  -0.4100
 -0.4066  -0.3860  -0.3697  -0.3644  -0.3405  -0.3347  -0.3105  -0.3022
 -0.2992  -0.2557  -0.2514
 -- Virtual --
 -0.0048   0.0181   0.0247   0.0338   0.0344   0.0488   0.0606   0.0617
  0.0669   0.0794   0.0818   0.0929   0.0992   0.1074   0.1136   0.1159
  0.1245   0.1305   0.1358   0.1457   0.1548   0.1627   0.1696   0.1789
  0.1841   0.1877   0.1993   0.2011   0.2119   0.2144   0.2178   0.2205
  0.2323   0.2375   0.2430   0.2547   0.2581   0.2611   0.2688   0.2735
  0.2933   0.2984   0.2995   0.3005   0.3042   0.3203   0.3219   0.3355
  0.3395   0.3406   0.3728   0.3823   0.3935   0.4018   0.4262   0.4298
  0.4487   0.4688   0.5018   0.6186   0.6484   0.6666   0.6775   0.6786
  0.6963   0.7099   0.7409   0.7436   0.7571   0.7608   0.7831   0.7896
  0.8128   0.8165   0.8290   0.8586   0.8657   0.9112   0.9539   0.9800
  0.9902   1.0055   1.0307   1.0332   1.0403   1.0645   1.0959   1.0989
  1.1228   1.1360   1.1366   1.1524   1.1767   1.1805   1.1877   1.2009
  1.2512   1.2661   1.2998   1.3453   1.3499   1.3768   1.4009   1.4235
  1.4857   1.4978   1.5031   1.5789   1.5875   1.6313   1.6984   1.7390
  1.7427   1.7690   1.7769   1.8179   1.8654   1.8787   1.9084   1.9175
  1.9201   1.9509   1.9874   2.0206   2.0266   2.0503   2.0657   2.0929
  2.1054   2.1342   2.2074   2.2266   2.2823   2.3172   2.3260   2.3602
  2.4114   2.4201   2.4296   2.4360   2.4588   2.5717   2.5902   2.6392
  2.6849   2.6938   2.7129   2.7728   2.7848   2.8416   2.8712   3.0204
  3.2016   4.0939   4.2053   4.2487   4.3048   4.3436   4.4264   4.6141
  4.6160   4.6799
 --------------------------------------------------------------
 
          Ground-State Mulliken Net Atomic Charges

     Atom                 Charge (a.u.)
  ----------------------------------------
      1 C                    -0.238914
      2 C                    -0.535922
      3 C                    -0.259169
      4 C                    -0.423747
      5 C                    -0.391613
      6 C                    -0.425580
      7 H                     0.208766
      8 H                     0.246026
      9 H                     0.187614
     10 H                     0.209492
     11 H                     0.213669
     12 H                     0.203963
     13 H                     0.213761
     14 H                     0.191359
     15 H                     0.213842
     16 H                     0.204494
     17 H                     0.186311
     18 N                    -0.359816
     19 H                     0.385855
     20 C                     0.328945
     21 H                     0.121010
     22 O                    -0.480347
  ----------------------------------------
  Sum of atomic charges =     0.000000

 -----------------------------------------------------------------
                    Cartesian Multipole Moments
 -----------------------------------------------------------------
    Charge (ESU x 10^10)
                 0.0000
    Dipole Moment (Debye)
         X      -4.3531      Y      -0.5761      Z      -0.9855
       Tot       4.5003
    Quadrupole Moments (Debye-Ang)
        XX     -54.9755     XY       0.2005     YY     -56.7977
        XZ       5.7524     YZ       0.7490     ZZ     -47.1041
    Octopole Moments (Debye-Ang^2)
       XXX     285.9341    XXY       9.6515    XYY     100.1532
       YYY      35.4256    XXZ     118.9157    XYZ      -0.7554
       YYZ     124.7365    XZZ      78.8053    YZZ       9.1235
       ZZZ     343.6171
    Hexadecapole Moments (Debye-Ang^3)
      XXXX   -1758.7701   XXXY     -86.1932   XXYY    -361.2903
      XYYY     -88.5066   YYYY    -401.3876   XXXZ    -953.8935
      XXYZ     -35.2367   XYYZ    -318.1190   YYYZ    -109.0169
      XXZZ    -682.6039   XYZZ     -24.3805   YYZZ    -495.9973
      XZZZ    -885.3646   YZZZ    -100.1181   ZZZZ   -2453.6140
 -----------------------------------------------------------------
 Calculating analytic gradient of the SCF energy
 Gradient of SCF Energy
            1           2           3           4           5           6
    1  -0.0000105   0.0000326  -0.0000064  -0.0000449  -0.0000596  -0.0000428
    2   0.0000055  -0.0000077  -0.0000084   0.0000048  -0.0000071  -0.0000171
    3   0.0000066   0.0000090   0.0000100   0.0000171   0.0000615   0.0000132
            7           8           9          10          11          12
    1   0.0000108   0.0000052   0.0000274   0.0000122  -0.0000624  -0.0000563
    2   0.0000079   0.0000022   0.0000016  -0.0000048  -0.0000108  -0.0000050
    3  -0.0000120  -0.0000500   0.0000370  -0.0000209  -0.0000084   0.0000505
           13          14          15          16          17          18
    1  -0.0000958  -0.0000451  -0.0000625  -0.0000561   0.0000264   0.0000335
    2  -0.0000117  -0.0000044  -0.0000069  -0.0000083   0.0000072   0.0000334
    3   0.0000520   0.0000821  -0.0000148   0.0000408   0.0000431  -0.0000765
           19          20          21          22
    1   0.0000838   0.0001470   0.0001129   0.0000506
    2   0.0000060   0.0000008   0.0000162   0.0000063
    3   0.0000119  -0.0001061  -0.0000605  -0.0000857
 Max gradient component =       1.470E-04
 RMS gradient           =       4.544E-05
 Gradient time:  CPU 120.84 s  wall 7.73 s
 Geometry Optimization Parameters
   NAtoms,    NIC,     NZ,  NCons,   NDum,   NFix, NCnnct, MaxDiis
       22     172       0       0       0       0       0       0

 Cartesian Hessian Update
 Hessian updated using BFGS update


** GEOMETRY OPTIMIZATION IN DELOCALIZED INTERNAL COORDINATES **
   Searching for a Minimum

   Optimization Cycle:   5

                       Coordinates (Angstroms)
     ATOM                X               Y               Z
      1  C        -2.3809177838    1.0015014563   -2.3836285879
      2  C        -1.5272548957   -0.2105812764   -1.9666157229
      3  C        -2.2119152786   -1.5369198256   -2.3431789609
      4  C        -2.5963968739   -1.5810633765   -3.8314544449
      5  C        -3.4602185387   -0.3744356383   -4.2284286590
      6  C        -2.7630882322    0.9472262939   -3.8721630658
      7  H        -1.5492525499   -2.3732828523   -2.0870440006
      8  H        -0.5519057172   -0.1522402000   -2.4604489013
      9  H        -3.2994409739    1.0133052512   -1.7736084677
     10  H        -1.8345884757    1.9251166202   -2.1548504581
     11  H        -1.6821412819   -1.5905108902   -4.4421605428
     12  H        -3.1233611341   -2.5186138996   -4.0487052659
     13  H        -3.6846386353   -0.4068860768   -5.3012888083
     14  H        -4.4274302858   -0.4298446493   -3.7043874436
     15  H        -1.8561957973    1.0566728601   -4.4841496534
     16  H        -3.4077744306    1.7999112831   -4.1193474451
     17  H        -3.1226304588   -1.6514090939   -1.7315140199
     18  N        -1.2426990613   -0.1740804828   -0.5273326425
     19  H        -2.0281482296   -0.2722960103    0.1054862228
     20  C        -0.0189009805    0.0008798068    0.0345765463
     21  H        -0.0699019429   -0.0037064889    1.1433489366
     22  O         1.0401368552    0.1472898079   -0.5597391349
   Point Group: c1    Number of degrees of freedom:    60


   Energy is   -404.587623331

 Hessian updated using BFGS update

 60 Hessian modes will be used to form the next step
  Hessian Eigenvalues:
     0.005483    0.005974    0.006858    0.007175    0.012548    0.019421
     0.019504    0.020843    0.036435    0.038520    0.039416    0.042328
     0.048440    0.048481    0.048892    0.055281    0.055706    0.056397
     0.059937    0.066886    0.081367    0.081531    0.081606    0.081982
     0.082091    0.083058    0.084538    0.087675    0.119690    0.120968
     0.143048    0.151984    0.159888    0.160448    0.175200    0.193497
     0.211017    0.243221    0.270440    0.272594    0.275536    0.285695
     0.286969    0.287443    0.327067    0.334532    0.334924    0.335659
     0.336398    0.336547    0.339364    0.339448    0.339823    0.340210
     0.340605    0.342078    0.361705    0.452074    0.526710    0.930125

 Minimum search - taking simple RFO step
 Searching for Lamda that Minimizes Along All modes
 Value Taken    Lamda =  -0.00000004
 Step Taken.  Stepsize is  0.001381

                             Maximum     Tolerance    Cnvgd?
         Gradient           0.000030      0.000100     YES
         Displacement       0.000697      0.000100      NO
         Energy change     -0.000004      0.000000      NO


 New Cartesian Coordinates Obtained by Inverse Iteration

 Displacement from previous Coordinates is:  0.002376
 ----------------------------------------------------------------
             Standard Nuclear Orientation (Angstroms)
    I     Atom           X                Y                Z
 ----------------------------------------------------------------
    1      C      -2.3807880532     1.0014364793    -2.3835784143
    2      C      -1.5272631586    -0.2107535491    -1.9665891368
    3      C      -2.2119697978    -1.5370460540    -2.3432233351
    4      C      -2.5964993427    -1.5811012935    -3.8314956578
    5      C      -3.4602203189    -0.3743712964    -4.2284338607
    6      C      -2.7629948905     0.9472416973    -3.8721150442
    7      H      -1.5493477554    -2.3734671229    -2.0871276967
    8      H      -0.5519239345    -0.1524655806    -2.4604404649
    9      H      -3.2993196636     1.0133407355    -1.7735687001
   10      H      -1.8343713205     1.9250037804    -2.1547710567
   11      H      -1.6822654049    -1.5905665944    -4.4422196673
   12      H      -3.1235170493    -2.5186071921    -4.0488192634
   13      H      -3.6846617299    -0.4067684539    -5.3012850983
   14      H      -4.4274265842    -0.4297212286    -3.7043856232
   15      H      -1.8561041566     1.0565987212    -4.4841057703
   16      H      -3.4075887050     1.7999945715    -4.1193152068
   17      H      -3.1226893328    -1.6515520241    -1.7315647623
   18      N      -1.2426915297    -0.1743611263    -0.5272528239
   19      H      -2.0281401783    -0.2726796159     0.1055274952
   20      C      -0.0189894478     0.0012098168     0.0346121270
   21      H      -0.0698111179    -0.0033954046     1.1433749665
   22      O       1.0399187696     0.1480633527    -0.5598575261
 ----------------------------------------------------------------
 Nuclear Repulsion Energy =         465.94839233 hartrees
 There are       35 alpha and       35 beta electrons
 Applying Cartesian multipole field
    Component          Value
    ---------          -----
     (0,0,1)        3.89000E-03
 Nucleus-field energy     =    -1.1377436725 hartrees
 Requested basis set is 6-31+G(d)
 There are 71 shells and 197 basis functions
 A cutoff of  1.0D-14 yielded   2408 shell pairs
 There are     18975 function pairs
 Smallest overlap matrix eigenvalue = 2.45E-05
 Guess MOs from SCF MO coefficient file

 -----------------------------------------------------------------------
  General SCF calculation program by
  Eric Jon Sundstrom, Paul Horn, Yuezhi Mao, Dmitri Zuev, Alec White,
  David Stuck, Shaama M.S., Shane Yost, Joonho Lee, David Small,
  Daniel Levine, Susi Lehtola, Hugh Burton, Evgeny Epifanovsky,
  Bang C. Huynh
 -----------------------------------------------------------------------
 Exchange:     0.2000 Hartree-Fock + 0.0800 Slater + 0.7200 B88
 Correlation:  0.1900 VWN1RPA + 0.8100 LYP
 Using Euler-Maclaurin-Lebedev (99,590) quadrature formula
 using 16 threads for integral computing
 -------------------------------------------------------
 OpenMP Integral computing Module                
 Release: version 2.0, May 2017, Q-Chem Inc. Pleasanton 
 -------------------------------------------------------
 A restricted SCF calculation will be
 performed using DIIS
 SCF converges when DIIS error is below 1.0e-09
 ---------------------------------------
  Cycle       Energy         DIIS error
 ---------------------------------------
    1    -404.5876231219      4.99e-06  
    2    -404.5876233540      6.96e-07  
    3    -404.5876233554      7.17e-07  
    4    -404.5876233569      3.49e-07  
    5    -404.5876233574      6.80e-08  
    6    -404.5876233574      1.95e-08  
    7    -404.5876233574      5.89e-09  
    8    -404.5876233574      1.58e-09  
    9    -404.5876233574      4.83e-10  Convergence criterion met
 ---------------------------------------
 SCF time:   CPU 440.44s  wall 27.00s 
 SCF   energy in the final basis set =     -404.5876233574
 Total energy in the final basis set =     -404.5876233574
 
 --------------------------------------------------------------
 
                    Orbital Energies (a.u.)
 --------------------------------------------------------------
 
 Alpha MOs
 -- Occupied --
-19.1207 -14.3675 -10.2866 -10.2191 -10.1786 -10.1772 -10.1681 -10.1674
-10.1643  -1.0316  -0.9277  -0.8153  -0.7336  -0.7327  -0.6293  -0.6027
 -0.5897  -0.5536  -0.5205  -0.4742  -0.4515  -0.4342  -0.4254  -0.4100
 -0.4066  -0.3860  -0.3697  -0.3644  -0.3405  -0.3347  -0.3105  -0.3022
 -0.2992  -0.2557  -0.2514
 -- Virtual --
 -0.0048   0.0181   0.0247   0.0338   0.0344   0.0488   0.0606   0.0617
  0.0669   0.0794   0.0818   0.0929   0.0992   0.1074   0.1136   0.1159
  0.1245   0.1305   0.1358   0.1457   0.1548   0.1626   0.1696   0.1789
  0.1841   0.1877   0.1993   0.2011   0.2119   0.2144   0.2178   0.2205
  0.2323   0.2375   0.2430   0.2547   0.2581   0.2611   0.2688   0.2735
  0.2933   0.2984   0.2995   0.3005   0.3042   0.3203   0.3219   0.3355
  0.3395   0.3406   0.3728   0.3823   0.3935   0.4018   0.4262   0.4298
  0.4487   0.4688   0.5018   0.6186   0.6484   0.6666   0.6775   0.6786
  0.6963   0.7099   0.7409   0.7436   0.7570   0.7608   0.7830   0.7896
  0.8128   0.8165   0.8290   0.8586   0.8657   0.9112   0.9539   0.9800
  0.9902   1.0055   1.0307   1.0332   1.0403   1.0644   1.0959   1.0989
  1.1228   1.1360   1.1366   1.1524   1.1767   1.1805   1.1877   1.2009
  1.2512   1.2661   1.2998   1.3453   1.3499   1.3768   1.4009   1.4235
  1.4857   1.4978   1.5031   1.5789   1.5875   1.6312   1.6984   1.7390
  1.7427   1.7690   1.7769   1.8179   1.8653   1.8787   1.9084   1.9175
  1.9201   1.9509   1.9874   2.0206   2.0266   2.0503   2.0657   2.0929
  2.1054   2.1342   2.2073   2.2266   2.2824   2.3172   2.3260   2.3602
  2.4113   2.4201   2.4296   2.4360   2.4587   2.5716   2.5902   2.6392
  2.6849   2.6938   2.7129   2.7728   2.7848   2.8416   2.8712   3.0204
  3.2016   4.0939   4.2053   4.2487   4.3048   4.3436   4.4264   4.6141
  4.6160   4.6799
 --------------------------------------------------------------
 
          Ground-State Mulliken Net Atomic Charges

     Atom                 Charge (a.u.)
  ----------------------------------------
      1 C                    -0.238899
      2 C                    -0.535821
      3 C                    -0.259217
      4 C                    -0.423740
      5 C                    -0.391607
      6 C                    -0.425620
      7 H                     0.208768
      8 H                     0.246037
      9 H                     0.187616
     10 H                     0.209495
     11 H                     0.213669
     12 H                     0.203964
     13 H                     0.213761
     14 H                     0.191358
     15 H                     0.213843
     16 H                     0.204495
     17 H                     0.186307
     18 N                    -0.359863
     19 H                     0.385856
     20 C                     0.328921
     21 H                     0.121031
     22 O                    -0.480352
  ----------------------------------------
  Sum of atomic charges =     0.000000

 -----------------------------------------------------------------
                    Cartesian Multipole Moments
 -----------------------------------------------------------------
    Charge (ESU x 10^10)
                -0.0000
    Dipole Moment (Debye)
         X      -4.3529      Y      -0.5773      Z      -0.9852
       Tot       4.5002
    Quadrupole Moments (Debye-Ang)
        XX     -54.9748     XY       0.1986     YY     -56.7979
        XZ       5.7529     YZ       0.7501     ZZ     -47.1036
    Octopole Moments (Debye-Ang^2)
       XXX     285.9416    XXY       9.6451    XYY     100.1520
       YYY      35.4183    XXZ     118.9150    XYZ      -0.7542
       YYZ     124.7356    XZZ      78.8035    YZZ       9.1194
       ZZZ     343.6139
    Hexadecapole Moments (Debye-Ang^3)
      XXXX   -1758.7511   XXXY     -86.2321   XXYY    -361.2868
      XYYY     -88.5484   YYYY    -401.4165   XXXZ    -953.8915
      XXYZ     -35.2389   XYYZ    -318.1126   YYYZ    -109.0271
[...]

 Mode:                40                     41                     42
 Frequency:      1406.55                1503.27                1508.97
 Force Cnst:      1.7112                 1.4475                 1.4692
 Red. Mass:       1.4680                 1.0871                 1.0951
 IR Active:          YES                    YES                    YES
 IR Intens:        1.501                  0.107                  3.183
 Raman Active:       YES                    YES                    YES
               X      Y      Z        X      Y      Z        X      Y      Z
 C          0.043 -0.052  0.086    0.017 -0.034 -0.038    0.018 -0.031 -0.011
 C         -0.049 -0.000 -0.084    0.001 -0.013  0.001   -0.004 -0.001 -0.015
 C          0.038  0.059  0.084   -0.013 -0.036  0.039    0.013  0.032 -0.011
 C          0.020 -0.043  0.026   -0.006  0.008  0.018   -0.007  0.003 -0.000
 C         -0.013 -0.001 -0.011   -0.000  0.014 -0.000   -0.064 -0.005 -0.026
 C          0.015  0.046  0.025    0.005  0.009 -0.018   -0.006 -0.004 -0.000
 H         -0.117 -0.186 -0.346    0.333  0.155 -0.296   -0.206 -0.100  0.155
 H          0.207 -0.013  0.408   -0.004  0.050 -0.003    0.021  0.001  0.029
 H         -0.170  0.104 -0.252    0.138  0.393  0.164    0.055  0.277  0.057
 H         -0.135  0.152 -0.344   -0.343  0.116  0.287   -0.226  0.079  0.159
 H         -0.028  0.052 -0.050   -0.071 -0.145 -0.087    0.000 -0.058  0.009
 H         -0.144  0.110 -0.240    0.138 -0.051 -0.114    0.025 -0.006 -0.056
 H         -0.076 -0.007 -0.003   -0.004 -0.007  0.001    0.558  0.034 -0.142
 H         -0.040 -0.001 -0.045    0.002 -0.058 -0.003    0.247  0.024  0.513
 H         -0.023 -0.062 -0.051    0.091 -0.137  0.093   -0.007  0.057  0.008
 H         -0.131 -0.138 -0.235   -0.135 -0.066  0.121    0.023  0.006 -0.055
 H         -0.151 -0.120 -0.246   -0.191  0.375 -0.177    0.086 -0.256  0.061
 N         -0.005 -0.002 -0.034   -0.000 -0.001 -0.000   -0.000 -0.000 -0.001
 H          0.088  0.011  0.084   -0.001  0.005  0.000    0.013  0.001  0.015
 C          0.009  0.001  0.025    0.000  0.000 -0.000    0.002  0.000  0.001
 H          0.003  0.001  0.037    0.000 -0.000 -0.000   -0.000 -0.000  0.002
 O          0.002  0.000 -0.006   -0.000  0.000  0.000   -0.001 -0.000  0.000
 TransDip   0.003  0.004  0.039   -0.000  0.010  0.000    0.044  0.005  0.036

 Mode:                43                     44                     45
 Frequency:      1511.19                1515.84                1527.58
 Force Cnst:      1.4718                 1.4675                 1.5246
 Red. Mass:       1.0939                 1.0840                 1.1089
 IR Active:          YES                    YES                    YES
 IR Intens:        6.140                 14.640                  2.673
 Raman Active:       YES                    YES                    YES
               X      Y      Z        X      Y      Z        X      Y      Z
 C          0.004 -0.021 -0.011    0.012 -0.025 -0.023   -0.011  0.030  0.016
 C         -0.000  0.009  0.000   -0.006 -0.000 -0.010   -0.007 -0.001  0.007
 C         -0.002 -0.024  0.015    0.008  0.023 -0.022   -0.007 -0.030  0.017
 C          0.012 -0.036 -0.037    0.017 -0.034 -0.027    0.011 -0.033 -0.022
 C         -0.001 -0.000  0.000    0.023  0.002  0.005   -0.038 -0.003 -0.024
 C         -0.009 -0.041  0.042    0.011  0.030 -0.023    0.007  0.032 -0.022
 H          0.142  0.052 -0.130   -0.203 -0.100  0.165    0.207  0.089 -0.180
 H          0.003 -0.036  0.001    0.008 -0.002  0.011   -0.003 -0.000  0.018
 H          0.041  0.162  0.051    0.091  0.264  0.105   -0.069 -0.273 -0.076
 H         -0.123  0.027  0.110   -0.231  0.081  0.177    0.218 -0.066 -0.179
 H          0.136  0.379  0.166    0.116  0.366  0.132    0.087  0.295  0.101
 H         -0.310  0.084  0.285   -0.297  0.095  0.249   -0.241  0.065  0.199
 H          0.011 -0.027 -0.001   -0.217 -0.015  0.046    0.327  0.020 -0.094
 H          0.002  0.015  0.008   -0.090 -0.008 -0.196    0.152  0.015  0.311
 H         -0.206  0.399 -0.196    0.137 -0.296  0.120    0.119 -0.267  0.106
 H          0.337  0.132 -0.321   -0.243 -0.110  0.214   -0.223 -0.086  0.194
 H         -0.075  0.179 -0.068    0.116 -0.226  0.105   -0.103  0.258 -0.082
 N         -0.000 -0.001 -0.000    0.008  0.001  0.009    0.020  0.003  0.020
 H          0.000  0.003  0.001   -0.021 -0.003 -0.028   -0.084 -0.011 -0.114
 C          0.000 -0.000  0.000   -0.002 -0.000 -0.005   -0.012 -0.002 -0.011
 H         -0.000  0.001  0.000   -0.001 -0.000 -0.007   -0.000 -0.000 -0.020
 O         -0.000  0.000 -0.000   -0.001 -0.000  0.002    0.002  0.000  0.001
 TransDip   0.001  0.079 -0.007   -0.101 -0.001  0.069   -0.038 -0.007 -0.036

 Mode:                46                     47                     48
 Frequency:      1543.60                1758.61                2168.06
 Force Cnst:      2.3995                16.2208                 6.6977
 Red. Mass:       1.7093                 8.9019                 2.4184
 IR Active:          YES                    YES                    YES
 IR Intens:      153.280                471.980                130.679
 Raman Active:       YES                    YES                    YES
               X      Y      Z        X      Y      Z        X      Y      Z
 C         -0.002  0.003  0.011   -0.002  0.003  0.017   -0.000  0.000 -0.000
 C          0.078  0.009  0.042    0.008  0.001 -0.029    0.001  0.000  0.002
 C         -0.001 -0.005  0.012   -0.002 -0.003  0.017   -0.000 -0.000 -0.000
 C         -0.003 -0.008 -0.014    0.001  0.005 -0.004    0.000 -0.000  0.000
 C         -0.005 -0.000 -0.001   -0.001  0.000  0.002   -0.000  0.000 -0.000
 C         -0.004  0.007 -0.013    0.001 -0.005 -0.004    0.000  0.000  0.000
 H          0.042  0.017 -0.017    0.013 -0.005 -0.023    0.002  0.001 -0.000
 H         -0.110 -0.011 -0.344    0.068  0.010  0.046    0.005  0.002  0.013
 H         -0.042  0.001 -0.062   -0.028  0.006 -0.024   -0.000 -0.001 -0.000
 H          0.050 -0.017 -0.015    0.018  0.004 -0.022    0.002 -0.001 -0.000
 H          0.047  0.083  0.062    0.007 -0.002  0.001   -0.000  0.000 -0.000
 H         -0.070  0.011  0.074    0.004 -0.008  0.027   -0.000  0.000 -0.000
 H          0.055  0.002 -0.014    0.006 -0.000 -0.002   -0.000 -0.000  0.000
 H          0.021  0.002  0.045   -0.002 -0.000  0.001    0.000  0.000  0.000
 H          0.054 -0.071  0.061    0.007  0.004  0.003    0.000 -0.000 -0.000
 H         -0.066 -0.019  0.069    0.003  0.009  0.027   -0.000 -0.000 -0.000
 H         -0.042 -0.011 -0.064   -0.026 -0.014 -0.021   -0.001  0.000 -0.000
 N         -0.142 -0.019 -0.130   -0.101 -0.013  0.014    0.005  0.001  0.012
 H          0.499  0.072  0.689   -0.289 -0.045 -0.216   -0.043 -0.006 -0.068
 C          0.062  0.009  0.072    0.635  0.088 -0.193    0.028  0.003 -0.198
 H          0.004  0.001  0.132   -0.147 -0.021 -0.447   -0.021 -0.001  0.976
 O          0.002  0.000 -0.015   -0.359 -0.050  0.203   -0.020 -0.003  0.017
 TransDip   0.304  0.043  0.251    0.687  0.092  0.062    0.067  0.008 -0.360

 Mode:                49                     50                     51
 Frequency:      2990.21                2996.54                3009.80
 Force Cnst:      5.6376                 5.6609                 5.7205
 Red. Mass:       1.0701                 1.0700                 1.0718
 IR Active:          YES                    YES                    YES
 IR Intens:       14.705                 52.829                 35.459
 Raman Active:       YES                    YES                    YES
               X      Y      Z        X      Y      Z        X      Y      Z
 C          0.027 -0.008 -0.023   -0.048  0.014  0.040   -0.006  0.001  0.005
 C          0.002  0.001 -0.001    0.006  0.000 -0.002    0.001  0.000 -0.000
 C         -0.047 -0.019  0.041   -0.025 -0.010  0.022   -0.005 -0.001  0.004
 C          0.007  0.003 -0.004    0.002  0.002 -0.001    0.014  0.003 -0.007
 C          0.003  0.001 -0.001    0.013  0.001 -0.003   -0.069 -0.004  0.019
 C         -0.005  0.001  0.003    0.007 -0.002 -0.003    0.015 -0.001 -0.007
 H         -0.134  0.144 -0.033   -0.069  0.078 -0.017   -0.006  0.007 -0.003
 H         -0.024 -0.002  0.013   -0.087 -0.005  0.045   -0.009 -0.001  0.005
 H         -0.389 -0.001  0.255    0.696 -0.002 -0.452    0.090 -0.001 -0.062
 H          0.066  0.092  0.016   -0.113 -0.164 -0.029   -0.009 -0.012 -0.004
 H         -0.078  0.002  0.053   -0.023  0.000  0.015   -0.151  0.002  0.101
 H         -0.015 -0.034 -0.006   -0.009 -0.019 -0.002   -0.024 -0.041 -0.014
 H         -0.000 -0.002 -0.009   -0.003 -0.000 -0.043    0.024  0.005  0.214
 H         -0.029 -0.005  0.017   -0.142 -0.007  0.081    0.807  0.046 -0.449
 H          0.051  0.007 -0.035   -0.066 -0.008  0.044   -0.154 -0.019  0.104
 H          0.009 -0.016  0.004   -0.020  0.031 -0.006   -0.029  0.037 -0.015
 H          0.700  0.079 -0.460    0.378  0.045 -0.247    0.075  0.009 -0.052
 N          0.000 -0.000 -0.000    0.000  0.000 -0.000   -0.000 -0.000 -0.000
 H         -0.001 -0.004 -0.002   -0.003  0.001 -0.006   -0.000  0.000 -0.001
 C          0.000  0.000 -0.000    0.000  0.000 -0.000    0.000  0.000 -0.000
 H         -0.000  0.000 -0.000   -0.000 -0.000 -0.001   -0.000 -0.000 -0.000
 O          0.000 -0.000  0.000    0.000  0.000  0.000   -0.000 -0.000  0.000
 TransDip  -0.036 -0.102  0.059   -0.136  0.022  0.188   -0.189 -0.011  0.023

 Mode:                52                     53                     54
 Frequency:      3031.74                3034.29                3068.95
 Force Cnst:      5.7604                 5.7631                 6.0503
 Red. Mass:       1.0637                 1.0624                 1.0903
 IR Active:          YES                    YES                    YES
 IR Intens:       13.310                 39.446                 41.280
 Raman Active:       YES                    YES                    YES
               X      Y      Z        X      Y      Z        X      Y      Z
 C         -0.002 -0.008 -0.003    0.004  0.009  0.003    0.009  0.013  0.002
 C         -0.000 -0.001  0.000    0.001  0.000 -0.001   -0.015 -0.001  0.009
 C          0.004 -0.008  0.004    0.006 -0.009  0.003    0.059 -0.056  0.009
 C         -0.029  0.023  0.034   -0.023  0.025  0.030    0.004 -0.008 -0.008
 C         -0.000 -0.001 -0.000   -0.013 -0.001 -0.013    0.001  0.001  0.009
 C          0.026  0.025 -0.033   -0.021 -0.028  0.033    0.004 -0.001 -0.002
 H         -0.079  0.099 -0.026   -0.083  0.105 -0.028   -0.556  0.694 -0.208
 H          0.001  0.002 -0.001   -0.017 -0.001  0.010    0.194  0.010 -0.103
 H         -0.030 -0.003  0.019    0.022  0.003 -0.014   -0.022  0.003  0.016
 H          0.060  0.100  0.021   -0.067 -0.113 -0.024   -0.091 -0.152 -0.036
 H          0.520  0.006 -0.343    0.460  0.004 -0.301   -0.098 -0.001  0.066
 H         -0.171 -0.278 -0.056   -0.180 -0.299 -0.062    0.056  0.095  0.022
 H          0.000  0.005  0.003    0.040  0.006  0.220   -0.022 -0.005 -0.110
 H          0.000 -0.001 -0.000    0.111  0.006 -0.067    0.009  0.001 -0.004
 H         -0.502 -0.050  0.333    0.479  0.049 -0.316   -0.035 -0.005  0.024
 H          0.196 -0.239  0.061   -0.222  0.276 -0.072   -0.017  0.022 -0.006
 H          0.026  0.000 -0.016    0.016 -0.001 -0.010   -0.150 -0.029  0.109
 N         -0.000  0.000  0.000    0.000  0.000  0.000   -0.000  0.000 -0.000
 H          0.000 -0.001 -0.000   -0.000 -0.000 -0.001   -0.002 -0.001  0.003
 C         -0.000  0.000  0.000   -0.000 -0.000 -0.000   -0.000 -0.000 -0.000
 H          0.000 -0.000  0.000    0.000  0.000  0.000   -0.000  0.000  0.000
 O          0.000  0.000 -0.000    0.000  0.000 -0.000   -0.000  0.000 -0.000
 TransDip  -0.007  0.117  0.001   -0.110 -0.007  0.168    0.148 -0.133  0.054

 Mode:                55                     56                     57
 Frequency:      3071.45                3074.78                3077.43
 Force Cnst:      6.0634                 6.1360                 6.1220
 Red. Mass:       1.0909                 1.1016                 1.0971
 IR Active:          YES                    YES                    YES
 IR Intens:       59.044                 24.788                 50.987
 Raman Active:       YES                    YES                    YES
               X      Y      Z        X      Y      Z        X      Y      Z
 C         -0.051 -0.063 -0.006    0.012  0.009 -0.002    0.002 -0.005 -0.004
 C          0.010  0.000 -0.006   -0.000  0.001  0.000   -0.006 -0.000  0.002
 C          0.014 -0.012  0.002   -0.010  0.004  0.003    0.001  0.004 -0.004
 C         -0.007 -0.010 -0.001   -0.051 -0.046  0.005    0.039  0.039 -0.003
 C         -0.001  0.000 -0.007   -0.001 -0.000 -0.001    0.014  0.001  0.018
 C          0.002 -0.012  0.007    0.048 -0.033 -0.004    0.053 -0.040 -0.002
 H         -0.126  0.157 -0.048    0.047 -0.059  0.017    0.034 -0.042  0.013
 H         -0.134 -0.010  0.071    0.005  0.002 -0.003    0.063  0.004 -0.034
 H          0.157 -0.012 -0.111   -0.075  0.002  0.053   -0.052 -0.000  0.037
 H          0.457  0.764  0.185   -0.070 -0.117 -0.028    0.029  0.049  0.012
 H          0.020 -0.002 -0.013    0.289 -0.009 -0.199   -0.217  0.009  0.148
 H          0.066  0.117  0.027    0.317  0.561  0.130   -0.260 -0.462 -0.106
 H          0.017  0.001  0.083    0.003  0.000  0.014   -0.053 -0.008 -0.265
 H         -0.007  0.000  0.003    0.011 -0.003 -0.006   -0.097 -0.006  0.056
 H          0.065  0.006 -0.044   -0.244 -0.034  0.170   -0.256 -0.039  0.178
 H         -0.099  0.127 -0.037   -0.325  0.428 -0.124   -0.385  0.508 -0.146
 H         -0.039 -0.007  0.027    0.072  0.009 -0.051   -0.041 -0.004  0.029
 N          0.000  0.000  0.000   -0.000 -0.000 -0.000    0.000  0.000  0.000
 H          0.002 -0.000 -0.002   -0.000 -0.001 -0.000   -0.000 -0.000  0.001
 C          0.000 -0.000  0.000    0.000  0.000 -0.000   -0.000 -0.000 -0.000
 H          0.000 -0.000 -0.000   -0.000 -0.000 -0.000    0.000  0.000  0.000
 O          0.000  0.000  0.000   -0.000 -0.000  0.000    0.000  0.000 -0.000
 TransDip  -0.075 -0.232 -0.033   -0.004 -0.159  0.002    0.224 -0.002  0.047

 Mode:                58                     59                     60
 Frequency:      3083.06                3101.69                3586.26
 Force Cnst:      6.1372                 6.1652                 8.1623
 Red. Mass:       1.0959                 1.0877                 1.0772
 IR Active:          YES                    YES                    YES
 IR Intens:       41.783                 17.222                 10.493
 Raman Active:       YES                    YES                    YES
               X      Y      Z        X      Y      Z        X      Y      Z
 C          0.005  0.004 -0.000   -0.015 -0.012  0.002    0.000  0.000 -0.000
 C         -0.007 -0.000  0.004   -0.071 -0.004  0.037   -0.001 -0.000 -0.000
 C          0.004 -0.002  0.000   -0.016  0.009  0.002    0.000 -0.000 -0.000
 C          0.017  0.004 -0.009   -0.006 -0.002  0.003    0.000  0.000 -0.000
 C          0.005 -0.001 -0.084   -0.002 -0.000  0.004    0.000  0.000 -0.000
 C          0.018 -0.003 -0.009   -0.006  0.001  0.003    0.000 -0.000 -0.000
 H         -0.027  0.032 -0.011    0.094 -0.121  0.035   -0.000  0.001  0.000
 H          0.090  0.005 -0.048    0.841  0.050 -0.432    0.009  0.000 -0.006
 H         -0.025  0.001  0.020    0.101 -0.007 -0.064    0.001 -0.001  0.001
 H         -0.028 -0.044 -0.012    0.083  0.142  0.033   -0.000 -0.001  0.000
 H         -0.166  0.004  0.110    0.059 -0.001 -0.043   -0.000 -0.000 -0.000
 H         -0.033 -0.058 -0.015    0.014  0.024  0.005    0.000 -0.000  0.000
 H          0.179  0.026  0.882   -0.007 -0.001 -0.033   -0.000 -0.000  0.000
 H         -0.245 -0.014  0.120    0.026  0.002 -0.013   -0.000 -0.000  0.000
 H         -0.167 -0.022  0.111    0.060  0.008 -0.044   -0.000  0.000 -0.000
 H         -0.043  0.056 -0.018    0.017 -0.022  0.006    0.000  0.000  0.000
 H         -0.022 -0.003  0.018    0.095  0.018 -0.061    0.001  0.001  0.001
 N         -0.000 -0.000 -0.000    0.002  0.000  0.000   -0.057 -0.007  0.045
 H         -0.001 -0.000  0.001   -0.012 -0.001  0.002    0.773  0.097 -0.622
 C          0.000  0.000  0.000   -0.002 -0.000  0.000    0.001  0.000  0.002
 H          0.000  0.000  0.000    0.000  0.000  0.001   -0.001 -0.000 -0.003
 O         -0.000 -0.000 -0.000    0.000  0.000 -0.001    0.001  0.000 -0.000
 TransDip   0.066  0.002 -0.196   -0.100 -0.002  0.088    0.102  0.015 -0.009

 STANDARD THERMODYNAMIC QUANTITIES AT   298.18 K  AND     1.00 ATM

   This Molecule has  1 Imaginary Frequencies
   Zero point vibrational energy:      121.948 kcal/mol

   Atom    1 Element C  Has Mass   12.00000
   Atom    2 Element C  Has Mass   12.00000
   Atom    3 Element C  Has Mass   12.00000
   Atom    4 Element C  Has Mass   12.00000
   Atom    5 Element C  Has Mass   12.00000
   Atom    6 Element C  Has Mass   12.00000
   Atom    7 Element H  Has Mass    1.00783
   Atom    8 Element H  Has Mass    1.00783
   Atom    9 Element H  Has Mass    1.00783
   Atom   10 Element H  Has Mass    1.00783
   Atom   11 Element H  Has Mass    1.00783
   Atom   12 Element H  Has Mass    1.00783
   Atom   13 Element H  Has Mass    1.00783
   Atom   14 Element H  Has Mass    1.00783
   Atom   15 Element H  Has Mass    1.00783
   Atom   16 Element H  Has Mass    1.00783
   Atom   17 Element H  Has Mass    1.00783
   Atom   18 Element N  Has Mass   14.00307
   Atom   19 Element H  Has Mass    1.00783
   Atom   20 Element C  Has Mass   12.00000
   Atom   21 Element H  Has Mass    2.01410
   Atom   22 Element O  Has Mass   15.99491
   Molecular Mass:   128.106042 amu
   Principal axes and moments of inertia in amu*Bohr^2:
                             1           2           3
    Eigenvalues --      533.27585  2043.73800  2250.20695
          X               0.65781    -0.05070     0.75148
          Y               0.08087     0.99672    -0.00354
          Z               0.74883    -0.06310    -0.65975
   Rotational Symmetry Number is   1
   The Molecule is an Asymmetric Top
   Translational Enthalpy:        0.889 kcal/mol
   Rotational Enthalpy:           0.889 kcal/mol
   Vibrational Enthalpy:        125.275 kcal/mol
   gas constant (RT):             0.593 kcal/mol
   Translational Entropy:        40.457  cal/mol.K
   Rotational Entropy:           29.285  cal/mol.K
   Vibrational Entropy:          18.410  cal/mol.K

   Total Enthalpy:              127.645 kcal/mol
   Total Entropy:                88.151  cal/mol.K
Archival summary:
1\1\node025\FREQ\ProcedureUnspecified\6-31+G*\11713\ymao90\SunMar704:34:232021SunMar704:34:232021\0\\#,FREQ,ProcedureUnspecified,6-31+G*,\\0,1\N\H,1,1.01341\C,1,1.35793,2,116.912\H,3,1.10994,1,111.81,2,0.754313,0\O,3,1.22321,1,126.48,2,-179.39,0\C,1,1.46765,2,117.366,3,-178.982,0\H,6,1.09479,1,105.565,2,-176.552,0\C,6,1.53939,1,110.338,2,-58.4826,0\H,8,1.09738,6,109.33,1,-60.0232,0\H,8,1.10302,6,108.724,1,56.2989,0\C,8,1.53778,6,111.882,1,176.862,0\H,11,1.09722,8,109.65,6,-177.281,0\H,11,1.0995,8,109.263,6,66.4877,0\C,11,1.53615,8,111.603,6,-54.5246,0\H,14,1.09656,11,110.163,8,177.593,0\H,14,1.10144,11,109.349,8,-65.6692,0\C,14,1.53615,11,111.144,8,55.1573,0\H,17,1.09718,14,110.473,11,-177.499,0\H,17,1.09952,14,109.319,11,65.776,0\C,17,1.53778,14,111.571,11,-55.2167,0\H,20,1.09722,17,110.812,14,176.827,0\H,20,1.1027,17,109.198,14,-65.7033,0\\\@

 Total job time:  5091.18s(wall), 80632.64s(cpu) 
 Sun Mar  7 04:34:23 2021

        *************************************************************
        *                                                           *
        *  Thank you very much for using Q-Chem.  Have a nice day.  *
        *                                                           *
        *************************************************************


