                  Welcome to Q-Chem
     A Quantum Leap Into The Future Of Chemistry


 Q-Chem 5.2 (devel), Q-Chem, Inc., Pleasanton, CA (2019)

 Yihan Shao,  Zhengting Gan,  E. Epifanovsky,  A. T. B. Gilbert,  M. Wormit,  
 J. Kussmann,  A. W. Lange,  A. Behn,  Jia Deng,  Xintian Feng,  D. Ghosh,  
 M. Goldey,  P. R. Horn,  L. D. Jacobson,  I. Kaliman,  T. Kus,  A. Landau,  
 Jie Liu,  E. I. Proynov,  R. M. Richard,  R. P. Steele,  E. J. Sundstrom,  
 H. L. Woodcock III,  P. M. Zimmerman,  D. Zuev,  B. Alam,  B. Albrecht,  
 E. Alguire,  S. A. Baeppler,  D. Barton,  Z. Benda,  Y. A. Bernard,  
 E. J. Berquist,  K. B. Bravaya,  H. Burton,  K. Carter-Fenk,  D. Casanova,  
 Chun-Min Chang,  Yunqing Chen,  A. Chien,  K. D. Closser,  M. P. Coons,  
 S. Coriani,  S. Dasgupta,  A. L. Dempwolff,  M. Diedenhofen,  Hainam Do,  
 R. G. Edgar,  Po-Tung Fang,  S. Faraji,  S. Fatehi,  Qingguo Feng,  
 J. Fosso-Tande,  J. Gayvert,  Qinghui Ge,  A. Ghysels,  G. Gidofalvi,  
 J. Gomes,  J. Gonthier,  A. Gunina,  D. Hait,  M. W. D. Hanson-Heine,  
 P. H. P. Harbach,  A. W. Hauser,  M. F. Herbst,  J. E. Herr,  
 E. G. Hohenstein,  Z. C. Holden,  Kerwin Hui,  B. C. Huynh,  T.-C. Jagau,  
 Hyunjun Ji,  B. Kaduk,  K. Khistyaev,  Jaehoon Kim,  P. Klunzinger,  K. Koh,  
 D. Kosenkov,  L. Koulias,  T. Kowalczyk,  C. M. Krauter,  A. Kunitsa,  
 Ka Un Lao,  A. Laurent,  K. V. Lawler,  Joonho Lee,  D. Lefrancois,  
 S. Lehtola,  D. S. Levine,  Yi-Pei Li,  You-Sheng Lin,  Fenglai Liu,  
 Kuan-Yu Liu,  E. Livshits,  M. Loipersberger,  A. Luenser,  P. Manohar,  
 E. Mansoor,  S. F. Manzer,  Shan-Ping Mao,  Yuezhi Mao,  N. Mardirossian,  
 A. V. Marenich,  T. Markovich,  L. A. Martinez-Martinez,  S. A. Maurer,  
 N. J. Mayhall,  S. C. McKenzie,  J.-M. Mewes,  P. Morgante,  A. F. Morrison,  
 J. W. Mullinax,  K. Nanda,  T. S. Nguyen-Beck,  R. Olivares-Amaya,  
 J. A. Parkhill,  S. K. Paul,  F. Pavosevic,  Zheng Pei,  T. M. Perrine,  
 F. Plasser,  P. Pokhilko,  S. Prager,  A. Prociuk,  E. Ramos,  B. Rana,  
 D. R. Rehn,  F. Rob,  M. Scheurer,  M. Schneider,  N. Sergueev,  
 S. M. Sharada,  S. Sharma,  D. W. Small,  T. Stauch,  C. J. Stein,  
 T. Stein,  Yu-Chuan Su,  S. P. Veccham,  Zhen Tao,  A. J. W. Thom,  
 A. Tkatchenko,  T. Tsuchimochi,  N. M. Tubman,  L. Vogt,  M. L. Vidal,  
 O. Vydrov,  M. A. Watson,  J. Wenzel,  M. de Wergifosse,  T. A. Wesolowski,  
 A. White,  J. Witte,  A. Yamada,  Jun Yang,  K. Yao,  S. Yeganeh,  
 S. R. Yost,  Zhi-Qiang You,  A. Zech,  Igor Ying Zhang,  Xing Zhang,  
 Yan Zhao,  Ying Zhu,  B. R. Brooks,  G. K. L. Chan,  C. J. Cramer,  
 M. S. Gordon,  W. J. Hehre,  A. Klamt,  M. W. Schmidt,  C. D. Sherrill,  
 D. G. Truhlar,  A. Aspuru-Guzik,  R. Baer,  A. T. Bell,  N. A. Besley,  
 Jeng-Da Chai,  A. E. DePrince, III,  R. A. DiStasio Jr.,  A. Dreuw,  
 B. D. Dunietz,  T. R. Furlani,  Chao-Ping Hsu,  Yousung Jung,  Jing Kong,  
 D. S. Lambrecht,  WanZhen Liang,  C. Ochsenfeld,  V. A. Rassolov,  
 L. V. Slipchenko,  J. E. Subotnik,  T. Van Voorhis,  J. M. Herbert,  
 A. I. Krylov,  P. M. W. Gill,  M. Head-Gordon

 Contributors to earlier versions of Q-Chem not listed above: 
 R. D. Adamson,  B. Austin,  J. Baker,  G. J. O. Beran,  K. Brandhorst,  
 S. T. Brown,  E. F. C. Byrd,  A. K. Chakraborty,  C.-L. Cheng,  
 Siu Hung Chien,  D. M. Chipman,  D. L. Crittenden,  H. Dachsel,  
 R. J. Doerksen,  A. D. Dutoi,  L. Fusti-Molnar,  W. A. Goddard III,  
 A. Golubeva-Zadorozhnaya,  S. R. Gwaltney,  G. Hawkins,  A. Heyden,  
 S. Hirata,  G. Kedziora,  F. J. Keil,  C. Kelley,  Jihan Kim,  R. A. King,  
 R. Z. Khaliullin,  P. P. Korambath,  W. Kurlancheek,  A. M. Lee,  M. S. Lee,  
 S. V. Levchenko,  Ching Yeh Lin,  D. Liotard,  R. C. Lochan,  I. Lotan,  
 P. E. Maslen,  N. Nair,  D. P. O'Neill,  D. Neuhauser,  E. Neuscamman,  
 C. M. Oana,  R. Olson,  B. Peters,  R. Peverati,  P. A. Pieniazek,  
 Y. M. Rhee,  J. Ritchie,  M. A. Rohrdanz,  E. Rosta,  N. J. Russ,  
 H. F. Schaefer III,  N. E. Schultz,  N. Shenvi,  A. C. Simmonett,  A. Sodt,  
 D. Stuck,  K. S. Thanthiriwatte,  V. Vanovschi,  Tao Wang,  A. Warshel,  
 C. F. Williams,  Q. Wu,  X. Xu,  W. Zhang

 Please cite Q-Chem as follows:
 Y. Shao et al., Mol. Phys. 113, 184-215 (2015)
 DOI: 10.1080/00268976.2014.952696

 Q-Chem 5.2.2 for Intel X86 EM64T Linux

 Parts of Q-Chem use Armadillo 9.800.1 (Horizon Scraper).
 http://arma.sourceforge.net/

 Q-Chem begins on Sun Mar  7 03:05:15 2021  

Host: node025
0

     Scratch files written to /home/ymao90/scratch/CCX_CD_+2020210307030514//

Checking the input file for inconsistencies... 	...done.

--------------------------------------------------------------
User input:
--------------------------------------------------------------
$molecule
0 1
C     -2.4083508923    0.9984834764   -2.3662547437
C     -1.5543120384   -0.2118403749   -1.9459885704
C     -2.2384976761   -1.5367925874   -2.3261896725
C     -2.5867463449   -1.5816552836   -3.8234193167
C     -3.4377297730   -0.3731774783   -4.2445934317
C     -2.7551397527    0.9499468362   -3.8636626912
H     -1.5849547626   -2.3750094827   -2.0545927530
H     -0.5831065672   -0.1532425547   -2.4485260558
H     -3.3388117820    1.0024650072   -1.7759883684
H     -1.8720534969    1.9234708349   -2.1213670712
H     -1.6555784977   -1.5918293252   -4.4093866053
H     -3.1102152921   -2.5181807775   -4.0551406051
H     -3.6290653549   -0.4033428377   -5.3251377272
H     -4.4201020066   -0.4306546907   -3.7508934023
H     -1.8320207629    1.0648782183   -4.4511997179
H     -3.3973970401    1.8010825553   -4.1242295555
H     -3.1618885583   -1.6469527918   -1.7346449512
N     -1.2474445251   -0.1731895513   -0.5151412109
H     -2.0131265263   -0.2687147311    0.1418849346
C      0.0000000000    0.0000000000    0.0000000000
H      0.0000000000    0.0000000000    1.1070732462
O      1.0278769477    0.1402881570   -0.6492362509
$end

$rem
JOBTYPE  OPT
METHOD  B3LYP
BASIS  6-31+G(D)
SYMMETRY  FALSE
SYM_IGNORE  TRUE
MEM_TOTAL  8000
MEM_STATIC  2000
MAX_SUB_FILE_NUM  16000
BASIS_LIN_DEP_THRESH  6
THRESH  14
SCF_CONVERGENCE  9
GEN_SCFMAN  TRUE
SCF_GUESS  SAD
FD_MAT_VEC_PROD  FALSE
XC_GRID  000099000590
NL_GRID  1
MAX_SCF_CYCLES  200
GEOM_OPT_TOL_GRADIENT  100
GEOM_OPT_TOL_DISPLACEMENT  100
GEOM_OPT_TOL_ENERGY  10
$end

$multipole_field
Z   -0.003890
$end


--------------------------------------------------------------
 ----------------------------------------------------------------
             Standard Nuclear Orientation (Angstroms)
    I     Atom           X                Y                Z
 ----------------------------------------------------------------
    1      C      -2.4083508923     0.9984834764    -2.3662547437
    2      C      -1.5543120384    -0.2118403749    -1.9459885704
    3      C      -2.2384976761    -1.5367925874    -2.3261896725
    4      C      -2.5867463449    -1.5816552836    -3.8234193167
    5      C      -3.4377297730    -0.3731774783    -4.2445934317
    6      C      -2.7551397527     0.9499468362    -3.8636626912
    7      H      -1.5849547626    -2.3750094827    -2.0545927530
    8      H      -0.5831065672    -0.1532425547    -2.4485260558
    9      H      -3.3388117820     1.0024650072    -1.7759883684
   10      H      -1.8720534969     1.9234708349    -2.1213670712
   11      H      -1.6555784977    -1.5918293252    -4.4093866053
   12      H      -3.1102152921    -2.5181807775    -4.0551406051
   13      H      -3.6290653549    -0.4033428377    -5.3251377272
   14      H      -4.4201020066    -0.4306546907    -3.7508934023
   15      H      -1.8320207629     1.0648782183    -4.4511997179
   16      H      -3.3973970401     1.8010825553    -4.1242295555
   17      H      -3.1618885583    -1.6469527918    -1.7346449512
   18      N      -1.2474445251    -0.1731895513    -0.5151412109
   19      H      -2.0131265263    -0.2687147311     0.1418849346
   20      C       0.0000000000     0.0000000000     0.0000000000
   21      H       0.0000000000     0.0000000000     1.1070732462
   22      O       1.0278769477     0.1402881570    -0.6492362509
 ----------------------------------------------------------------
 Nuclear Repulsion Energy =         466.63298041 hartrees
 There are       35 alpha and       35 beta electrons
 Requested basis set is 6-31+G(d)
 There are 71 shells and 197 basis functions

 Total QAlloc Memory Limit   8000 MB
 Mega-Array Size      1956 MB
 MEM_STATIC part      2000 MB
 Applying Cartesian multipole field
    Component          Value
    ---------          -----
     (0,0,1)       -3.89000E-03
 Nucleus-field energy     =     1.1410472783 hartrees
 A cutoff of  1.0D-14 yielded   2413 shell pairs
 There are     18998 function pairs
 Smallest overlap matrix eigenvalue = 2.48E-05
 Guess from superposition of atomic densities
 Warning:  Energy on first SCF cycle will be non-variational
 SAD guess density has 70.000000 electrons

 -----------------------------------------------------------------------
  General SCF calculation program by
  Eric Jon Sundstrom, Paul Horn, Yuezhi Mao, Dmitri Zuev, Alec White,
  David Stuck, Shaama M.S., Shane Yost, Joonho Lee, David Small,
  Daniel Levine, Susi Lehtola, Hugh Burton, Evgeny Epifanovsky,
  Bang C. Huynh
 -----------------------------------------------------------------------
 Exchange:     0.2000 Hartree-Fock + 0.0800 Slater + 0.7200 B88
 Correlation:  0.1900 VWN1RPA + 0.8100 LYP
 Using Euler-Maclaurin-Lebedev (99,590) quadrature formula
 using 16 threads for integral computing
 -------------------------------------------------------
 OpenMP Integral computing Module                
 Release: version 2.0, May 2017, Q-Chem Inc. Pleasanton 
 -------------------------------------------------------
 A restricted SCF calculation will be
 performed using DIIS
 SCF converges when DIIS error is below 1.0e-09
 ---------------------------------------
  Cycle       Energy         DIIS error
 ---------------------------------------
    1    -406.2319617790      5.08e-02  
    2    -404.3798852806      6.63e-03  
    3    -403.9955437599      1.19e-02  
    4    -404.5579512057      2.67e-03  
    5    -404.5861899322      6.64e-04  
    6    -404.5879041440      2.01e-04  
    7    -404.5880618866      7.21e-05  
    8    -404.5880840692      1.28e-05  
    9    -404.5880847302      4.38e-06  
   10    -404.5880848104      7.62e-07  
   11    -404.5880848127      3.04e-07  
   12    -404.5880848131      4.98e-08  
   13    -404.5880848131      1.08e-08  
   14    -404.5880848131      4.86e-09  
   15    -404.5880848131      1.06e-09  
   16    -404.5880848131      1.93e-10  Convergence criterion met
 ---------------------------------------
 SCF time:   CPU 755.77s  wall 48.00s 
 SCF   energy in the final basis set =     -404.5880848131
 Total energy in the final basis set =     -404.5880848131
 
 --------------------------------------------------------------
 
                    Orbital Energies (a.u.)
 --------------------------------------------------------------
 
 Alpha MOs
 -- Occupied --
-19.1330 -14.3816 -10.2967 -10.2478 -10.2181 -10.2174 -10.2170 -10.2126
-10.2115  -1.0442  -0.9439  -0.8555  -0.7742  -0.7701  -0.6598  -0.6440
 -0.6091  -0.5943  -0.5440  -0.5050  -0.4840  -0.4728  -0.4691  -0.4368
 -0.4313  -0.4174  -0.4113  -0.3921  -0.3774  -0.3769  -0.3572  -0.3453
 -0.3396  -0.2701  -0.2676
 -- Virtual --
 -0.0304  -0.0112  -0.0095  -0.0019   0.0081   0.0134   0.0222   0.0290
  0.0335   0.0386   0.0495   0.0626   0.0660   0.0670   0.0711   0.0760
  0.0823   0.0898   0.1019   0.1122   0.1156   0.1265   0.1295   0.1371
  0.1473   0.1483   0.1540   0.1622   0.1739   0.1763   0.1914   0.1926
  0.1962   0.1974   0.2152   0.2170   0.2336   0.2381   0.2464   0.2480
  0.2585   0.2609   0.2671   0.2709   0.2730   0.2892   0.3001   0.3030
  0.3068   0.3200   0.3380   0.3404   0.3518   0.3726   0.3849   0.3952
  0.4215   0.4330   0.4866   0.5805   0.6091   0.6231   0.6327   0.6404
  0.6523   0.6702   0.6978   0.7056   0.7261   0.7285   0.7579   0.7608
  0.7723   0.7852   0.8006   0.8206   0.8350   0.8930   0.9376   0.9438
  0.9450   0.9586   0.9885   1.0097   1.0108   1.0305   1.0609   1.0741
  1.0865   1.0898   1.0931   1.1223   1.1381   1.1397   1.1500   1.1616
  1.2154   1.2511   1.2843   1.3222   1.3356   1.3578   1.3627   1.3906
  1.4630   1.4716   1.4746   1.5392   1.5556   1.5981   1.6849   1.7004
  1.7060   1.7324   1.7551   1.7875   1.8413   1.8545   1.8734   1.8774
  1.8840   1.9254   1.9543   1.9831   1.9862   2.0191   2.0295   2.0619
  2.0680   2.1096   2.1738   2.1979   2.2587   2.2905   2.2929   2.3195
  2.3701   2.3859   2.3865   2.3944   2.4264   2.5451   2.5651   2.6064
  2.6402   2.6655   2.6817   2.7285   2.7544   2.8081   2.8527   3.0079
  3.1821   4.0736   4.1727   4.2271   4.2620   4.3078   4.4128   4.5668
  4.5757   4.6483
 --------------------------------------------------------------
 
          Ground-State Mulliken Net Atomic Charges

     Atom                 Charge (a.u.)
  ----------------------------------------
      1 C                    -0.227705
      2 C                    -0.542368
      3 C                    -0.253090
      4 C                    -0.431142
      5 C                    -0.380902
      6 C                    -0.433081
      7 H                     0.216635
      8 H                     0.238040
      9 H                     0.201838
     10 H                     0.216616
     11 H                     0.196459
     12 H                     0.193369
     13 H                     0.180202
     14 H                     0.199852
     15 H                     0.196541
     16 H                     0.192998
     17 H                     0.201098
     18 N                    -0.377801
     19 H                     0.402886
     20 C                     0.337909
     21 H                     0.162362
     22 O                    -0.490719
  ----------------------------------------
  Sum of atomic charges =     0.000000

 -----------------------------------------------------------------
                    Cartesian Multipole Moments
 -----------------------------------------------------------------
    Charge (ESU x 10^10)
                -0.0000
    Dipole Moment (Debye)
         X      -4.0196      Y      -0.5351      Z       1.1653
       Tot       4.2192
    Quadrupole Moments (Debye-Ang)
        XX     -55.8625     XY       0.1407     YY     -57.0045
        XZ       1.7056     YZ       0.2860     ZZ     -56.2752
    Octopole Moments (Debye-Ang^2)
       XXX     290.3887    XXY       9.9565    XYY     101.4613
       YYY      35.8465    XXZ     133.8651    XYZ       0.5129
       YYZ     129.2392    XZZ     103.9920    YZZ      11.9252
       ZZZ     395.9346
    Hexadecapole Moments (Debye-Ang^3)
      XXXX   -1775.3108   XXXY     -86.6451   XXYY    -365.7497
      XYYY     -89.3763   YYYY    -403.3843   XXXZ   -1000.7385
      XXYZ     -38.7704   XYYZ    -328.0937   YYYZ    -112.0802
      XXZZ    -767.5709   XYZZ     -31.8118   YYZZ    -517.0361
      XZZZ   -1026.1526   YZZZ    -115.3480   ZZZZ   -2721.4450
 -----------------------------------------------------------------
 Calculating analytic gradient of the SCF energy
 Gradient of SCF Energy
            1           2           3           4           5           6
    1   0.0002747  -0.0005280   0.0003019   0.0002187  -0.0000086   0.0002114
    2   0.0000841  -0.0000660   0.0000464   0.0000423   0.0000084  -0.0001105
    3  -0.0001777  -0.0021163  -0.0001498  -0.0004551  -0.0004619  -0.0004832
            7           8           9          10          11          12
    1   0.0002282  -0.0003267  -0.0003769   0.0001865  -0.0004143   0.0002564
    2  -0.0001705  -0.0000344  -0.0001875   0.0001815  -0.0001408   0.0002662
    3  -0.0000198  -0.0000094   0.0002452  -0.0000188   0.0002242   0.0000411
           13          14          15          16          17          18
    1   0.0002451  -0.0002372  -0.0004434   0.0003010  -0.0003998   0.0019497
    2   0.0000393  -0.0000121   0.0001061  -0.0002393   0.0001477   0.0002501
    3   0.0008919  -0.0000321   0.0002199   0.0000691   0.0002523   0.0025008
           19          20          21          22
    1  -0.0000767  -0.0015944  -0.0001090   0.0003413
    2  -0.0000131  -0.0001846  -0.0000339   0.0000207
    3  -0.0003889  -0.0034427   0.0010686   0.0022426
 Max gradient component =       3.443E-03
 RMS gradient           =       7.707E-04
 Gradient time:  CPU 120.41 s  wall 7.63 s
 Geometry Optimization Parameters
   NAtoms,    NIC,     NZ,  NCons,   NDum,   NFix, NCnnct, MaxDiis
       22     172       0       0       0       0       0       0


** GEOMETRY OPTIMIZATION IN DELOCALIZED INTERNAL COORDINATES **
   Searching for a Minimum

   Optimization Cycle:   1

                       Coordinates (Angstroms)
     ATOM                X               Y               Z
      1  C        -2.4083508923    0.9984834764   -2.3662547437
      2  C        -1.5543120384   -0.2118403749   -1.9459885704
      3  C        -2.2384976761   -1.5367925874   -2.3261896725
      4  C        -2.5867463449   -1.5816552836   -3.8234193167
      5  C        -3.4377297730   -0.3731774783   -4.2445934317
      6  C        -2.7551397527    0.9499468362   -3.8636626912
      7  H        -1.5849547626   -2.3750094827   -2.0545927530
      8  H        -0.5831065672   -0.1532425547   -2.4485260558
      9  H        -3.3388117820    1.0024650072   -1.7759883684
     10  H        -1.8720534969    1.9234708349   -2.1213670712
     11  H        -1.6555784977   -1.5918293252   -4.4093866053
     12  H        -3.1102152921   -2.5181807775   -4.0551406051
     13  H        -3.6290653549   -0.4033428377   -5.3251377272
     14  H        -4.4201020066   -0.4306546907   -3.7508934023
     15  H        -1.8320207629    1.0648782183   -4.4511997179
     16  H        -3.3973970401    1.8010825553   -4.1242295555
     17  H        -3.1618885583   -1.6469527918   -1.7346449512
     18  N        -1.2474445251   -0.1731895513   -0.5151412109
     19  H        -2.0131265263   -0.2687147311    0.1418849346
     20  C         0.0000000000    0.0000000000    0.0000000000
     21  H         0.0000000000    0.0000000000    1.1070732462
     22  O         1.0278769477    0.1402881570   -0.6492362509
   Point Group: c1    Number of degrees of freedom:    60


   Energy is   -404.588084813


 Attempting to generate delocalized internal coordinates
 Initial Hessian constructed with Jon Baker's OPTIMIZE code

 60 Hessian modes will be used to form the next step
  Hessian Eigenvalues:
     0.005967    0.006024    0.006964    0.007193    0.012605    0.019501
     0.019786    0.020845    0.020845    0.037215    0.038526    0.039417
     0.041724    0.048166    0.048450    0.048891    0.055292    0.055631
     0.055746    0.059934    0.066958    0.081508    0.081536    0.081616
     0.082032    0.082133    0.084029    0.087513    0.120967    0.121178
     0.142989    0.159989    0.160000    0.160554    0.174868    0.210947
     0.220000    0.220003    0.272263    0.272658    0.275535    0.286789
     0.287121    0.287175    0.329119    0.334466    0.334727    0.335769
     0.336541    0.336553    0.339301    0.339441    0.339454    0.340119
     0.340274    0.342312    0.364811    0.454000    0.528079    0.937134

 Minimum search - taking simple RFO step
 Searching for Lamda that Minimizes Along All modes
 Value Taken    Lamda =  -0.00027927
 Step Taken.  Stepsize is  0.096100

                             Maximum     Tolerance    Cnvgd?
         Gradient           0.005477      0.000100      NO
         Displacement       0.053363      0.000100      NO
         Energy change     *********      0.000000      NO


 New Cartesian Coordinates Obtained by Inverse Iteration

 Displacement from previous Coordinates is:  0.283481
 ----------------------------------------------------------------
             Standard Nuclear Orientation (Angstroms)
    I     Atom           X                Y                Z
 ----------------------------------------------------------------
    1      C      -2.4270241333     0.9951726735    -2.3529299283
    2      C      -1.5746039906    -0.2148600668    -1.9302063871
    3      C      -2.2583497998    -1.5384443610    -2.3146395597
    4      C      -2.5807534280    -1.5826359715    -3.8179008445
    5      C      -3.4204518354    -0.3713391165    -4.2561252472
    6      C      -2.7479969352     0.9523334361    -3.8563621819
    7      H      -1.6114373133    -2.3777436342    -2.0323904622
    8      H      -0.6049435489    -0.1562772543    -2.4366038074
    9      H      -3.3655369300     0.9949660327    -1.7768902926
   10      H      -1.8967006991     1.9198293959    -2.0957873237
   11      H      -1.6379390904    -1.5938977460    -4.3864904153
   12      H      -3.1021517776    -2.5183324037    -4.0599049415
   13      H      -3.5885842429    -0.3992008136    -5.3420894424
   14      H      -4.4128801511    -0.4296444132    -3.7840459654
   15      H      -1.8132789074     1.0701717308    -4.4262617989
   16      H      -3.3870829822     1.8037899618    -4.1258927074
   17      H      -3.1902221550    -1.6461907774    -1.7374709252
   18      N      -1.2504793710    -0.1747262478    -0.5059940317
   19      H      -2.0016649581    -0.2691862108     0.1681602820
   20      C       0.0117360914     0.0022612725    -0.0262186644
   21      H       0.0503535643     0.0081109805     1.0785548029
   22      O       1.0113278911     0.1418761512    -0.7191446780
 ----------------------------------------------------------------
 Nuclear Repulsion Energy =         467.22878798 hartrees
 There are       35 alpha and       35 beta electrons
 Applying Cartesian multipole field
    Component          Value
    ---------          -----
     (0,0,1)       -3.89000E-03
 Nucleus-field energy     =     1.1436631282 hartrees
 Requested basis set is 6-31+G(d)
 There are 71 shells and 197 basis functions
 A cutoff of  1.0D-14 yielded   2414 shell pairs
 There are     19014 function pairs
 Smallest overlap matrix eigenvalue = 2.51E-05
 Guess MOs from SCF MO coefficient file

 -----------------------------------------------------------------------
  General SCF calculation program by
  Eric Jon Sundstrom, Paul Horn, Yuezhi Mao, Dmitri Zuev, Alec White,
  David Stuck, Shaama M.S., Shane Yost, Joonho Lee, David Small,
  Daniel Levine, Susi Lehtola, Hugh Burton, Evgeny Epifanovsky,
  Bang C. Huynh
 -----------------------------------------------------------------------
 Exchange:     0.2000 Hartree-Fock + 0.0800 Slater + 0.7200 B88
 Correlation:  0.1900 VWN1RPA + 0.8100 LYP
 Using Euler-Maclaurin-Lebedev (99,590) quadrature formula
 using 16 threads for integral computing
 -------------------------------------------------------
 OpenMP Integral computing Module                
 Release: version 2.0, May 2017, Q-Chem Inc. Pleasanton 
 -------------------------------------------------------
 A restricted SCF calculation will be
 performed using DIIS
 SCF converges when DIIS error is below 1.0e-09
 ---------------------------------------
  Cycle       Energy         DIIS error
 ---------------------------------------
    1    -404.5863989144      4.84e-04  
    2    -404.5882121026      6.77e-05  
    3    -404.5881951621      1.02e-04  
    4    -404.5882339111      2.55e-05  
    5    -404.5882361231      7.59e-06  
    6    -404.5882363623      1.06e-06  
    7    -404.5882363660      5.29e-07  
    8    -404.5882363672      8.26e-08  
    9    -404.5882363672      3.53e-08  
   10    -404.5882363672      5.25e-09  
   11    -404.5882363672      2.44e-09  
   12    -404.5882363672      4.23e-10  Convergence criterion met
 ---------------------------------------
 SCF time:   CPU 572.53s  wall 36.00s 
 SCF   energy in the final basis set =     -404.5882363672
 Total energy in the final basis set =     -404.5882363672
 
 --------------------------------------------------------------
 
                    Orbital Energies (a.u.)
 --------------------------------------------------------------
 
 Alpha MOs
 -- Occupied --
-19.1334 -14.3814 -10.2971 -10.2463 -10.2178 -10.2170 -10.2166 -10.2118
-10.2106  -1.0450  -0.9433  -0.8548  -0.7735  -0.7691  -0.6594  -0.6433
 -0.6091  -0.5941  -0.5440  -0.5049  -0.4836  -0.4724  -0.4683  -0.4363
 -0.4313  -0.4178  -0.4107  -0.3919  -0.3766  -0.3755  -0.3564  -0.3449
 -0.3390  -0.2699  -0.2682
 -- Virtual --
 -0.0298  -0.0106  -0.0092  -0.0015   0.0069   0.0134   0.0224   0.0298
  0.0338   0.0391   0.0489   0.0632   0.0662   0.0671   0.0715   0.0763
  0.0826   0.0900   0.1020   0.1123   0.1152   0.1270   0.1299   0.1382
  0.1473   0.1480   0.1554   0.1636   0.1734   0.1767   0.1919   0.1931
  0.1965   0.1985   0.2152   0.2179   0.2335   0.2391   0.2446   0.2473
  0.2593   0.2616   0.2674   0.2710   0.2735   0.2893   0.3001   0.3041
  0.3085   0.3209   0.3385   0.3408   0.3523   0.3709   0.3851   0.3951
  0.4214   0.4345   0.4851   0.5819   0.6093   0.6252   0.6332   0.6417
  0.6532   0.6716   0.6980   0.7066   0.7260   0.7306   0.7573   0.7632
  0.7726   0.7850   0.8006   0.8222   0.8344   0.8894   0.9367   0.9451
  0.9459   0.9594   0.9891   1.0087   1.0120   1.0287   1.0599   1.0739
  1.0853   1.0912   1.0930   1.1244   1.1375   1.1394   1.1517   1.1615
  1.2132   1.2518   1.2855   1.3227   1.3361   1.3591   1.3642   1.3929
  1.4621   1.4695   1.4766   1.5354   1.5559   1.5924   1.6951   1.7018
  1.7072   1.7311   1.7585   1.7871   1.8396   1.8548   1.8763   1.8789
  1.8860   1.9224   1.9592   1.9841   1.9872   2.0210   2.0312   2.0612
  2.0717   2.1134   2.1765   2.2015   2.2613   2.2910   2.2930   2.3201
  2.3700   2.3864   2.3864   2.3937   2.4286   2.5442   2.5679   2.6044
  2.6405   2.6640   2.6820   2.7294   2.7560   2.8092   2.8545   3.0086
  3.1781   4.0741   4.1737   4.2271   4.2620   4.3078   4.4095   4.5690
  4.5773   4.6497
 --------------------------------------------------------------
 
          Ground-State Mulliken Net Atomic Charges

     Atom                 Charge (a.u.)
  ----------------------------------------
      1 C                    -0.231596
      2 C                    -0.542007
      3 C                    -0.258743
      4 C                    -0.426295
      5 C                    -0.381502
      6 C                    -0.428071
      7 H                     0.216335
      8 H                     0.239477
      9 H                     0.201940
     10 H                     0.216405
     11 H                     0.196676
     12 H                     0.192808
     13 H                     0.179760
     14 H                     0.199568
     15 H                     0.196812
     16 H                     0.192428
     17 H                     0.201371
     18 N                    -0.380160
     19 H                     0.402909
     20 C                     0.336737
     21 H                     0.164403
     22 O                    -0.489254
  ----------------------------------------
  Sum of atomic charges =     0.000000

 -----------------------------------------------------------------
                    Cartesian Multipole Moments
 -----------------------------------------------------------------
    Charge (ESU x 10^10)
                -0.0000
    Dipole Moment (Debye)
         X      -3.9311      Y      -0.5304      Z       1.3455
       Tot       4.1887
    Quadrupole Moments (Debye-Ang)
        XX     -55.8942     XY       0.1336     YY     -57.0380
        XZ       1.7645     YZ       0.3019     ZZ     -56.6238
    Octopole Moments (Debye-Ang^2)
       XXX     291.4284    XXY       9.9942    XYY     101.6988
       YYY      35.9099    XXZ     134.6526    XYZ       0.5770
       YYZ     129.6263    XZZ     104.3038    YZZ      11.9443
       ZZZ     397.6200
    Hexadecapole Moments (Debye-Ang^3)
      XXXX   -1777.0683   XXXY     -86.9668   XXYY    -366.1176
      XYYY     -89.7026   YYYY    -403.9402   XXXZ    -999.2155
      XXYZ     -38.7751   XYYZ    -327.4221   YYYZ    -111.9573
      XXZZ    -768.5435   XYZZ     -32.0245   YYZZ    -517.0084
      XZZZ   -1025.3543   YZZZ    -115.3484   ZZZZ   -2722.1078
 -----------------------------------------------------------------
 Calculating analytic gradient of the SCF energy
 Gradient of SCF Energy
            1           2           3           4           5           6
    1   0.0000329  -0.0007993   0.0000652  -0.0001090   0.0002163  -0.0001005
    2   0.0000604  -0.0000278  -0.0001081  -0.0001027   0.0000203   0.0000512
    3  -0.0001126  -0.0003411  -0.0001922   0.0000812  -0.0001962   0.0000661
            7           8           9          10          11          12
    1   0.0000022   0.0001608   0.0000396   0.0000044   0.0000190   0.0001229
    2   0.0000738   0.0000123  -0.0000549  -0.0000595   0.0000287  -0.0000700
    3   0.0000439   0.0003191   0.0000309   0.0000473  -0.0000704   0.0000128
           13          14          15          16          17          18
    1   0.0000203   0.0001002   0.0000247   0.0001101   0.0000224   0.0018774
    2   0.0000154   0.0000052  -0.0000192   0.0000969   0.0000638   0.0003447
    3  -0.0000357  -0.0000584  -0.0000692   0.0000253   0.0000311   0.0000951
           19          20          21          22
    1  -0.0002258  -0.0003386  -0.0002333  -0.0010119
    2  -0.0000179  -0.0002963   0.0000497  -0.0000661
    3  -0.0000900  -0.0002334   0.0004867   0.0001598
 Max gradient component =       1.877E-03
 RMS gradient           =       3.137E-04
 Gradient time:  CPU 119.75 s  wall 7.63 s
 Geometry Optimization Parameters
   NAtoms,    NIC,     NZ,  NCons,   NDum,   NFix, NCnnct, MaxDiis
       22     172       0       0       0       0       0       0

 Cartesian Hessian Update
 Hessian updated using BFGS update


** GEOMETRY OPTIMIZATION IN DELOCALIZED INTERNAL COORDINATES **
   Searching for a Minimum

   Optimization Cycle:   2

                       Coordinates (Angstroms)
     ATOM                X               Y               Z
      1  C        -2.4270241333    0.9951726735   -2.3529299283
      2  C        -1.5746039906   -0.2148600668   -1.9302063871
      3  C        -2.2583497998   -1.5384443610   -2.3146395597
      4  C        -2.5807534280   -1.5826359715   -3.8179008445
      5  C        -3.4204518354   -0.3713391165   -4.2561252472
      6  C        -2.7479969352    0.9523334361   -3.8563621819
      7  H        -1.6114373133   -2.3777436342   -2.0323904622
      8  H        -0.6049435489   -0.1562772543   -2.4366038074
      9  H        -3.3655369300    0.9949660327   -1.7768902926
     10  H        -1.8967006991    1.9198293959   -2.0957873237
     11  H        -1.6379390904   -1.5938977460   -4.3864904153
     12  H        -3.1021517776   -2.5183324037   -4.0599049415
     13  H        -3.5885842429   -0.3992008136   -5.3420894424
     14  H        -4.4128801511   -0.4296444132   -3.7840459654
     15  H        -1.8132789074    1.0701717308   -4.4262617989
     16  H        -3.3870829822    1.8037899618   -4.1258927074
     17  H        -3.1902221550   -1.6461907774   -1.7374709252
     18  N        -1.2504793710   -0.1747262478   -0.5059940317
     19  H        -2.0016649581   -0.2691862108    0.1681602820
     20  C         0.0117360914    0.0022612725   -0.0262186644
     21  H         0.0503535643    0.0081109805    1.0785548029
     22  O         1.0113278911    0.1418761512   -0.7191446780
   Point Group: c1    Number of degrees of freedom:    60


   Energy is   -404.588236367

 Hessian updated using BFGS update

 60 Hessian modes will be used to form the next step
  Hessian Eigenvalues:
     0.005674    0.005976    0.006873    0.007193    0.012602    0.019323
     0.019503    0.020845    0.020969    0.036502    0.038514    0.039418
     0.042173    0.048405    0.048456    0.048895    0.055289    0.055723
     0.056287    0.059980    0.066955    0.081441    0.081534    0.081611
     0.082022    0.082133    0.084489    0.087496    0.120824    0.120973
     0.142967    0.158566    0.160058    0.160524    0.174881    0.198886
     0.211462    0.249620    0.272517    0.272655    0.275536    0.286814
     0.287126    0.287329    0.326791    0.334530    0.334886    0.335863
     0.336547    0.336918    0.339372    0.339448    0.339819    0.340208
     0.340912    0.342475    0.362610    0.454114    0.526080    0.935397

 Minimum search - taking simple RFO step
 Searching for Lamda that Minimizes Along All modes
 Value Taken    Lamda =  -0.00002197
 Step Taken.  Stepsize is  0.033843

                             Maximum     Tolerance    Cnvgd?
         Gradient           0.000885      0.000100      NO
         Displacement       0.013748      0.000100      NO
         Energy change     -0.000152      0.000000      NO


 New Cartesian Coordinates Obtained by Inverse Iteration

 Displacement from previous Coordinates is:  0.072536
 ----------------------------------------------------------------
             Standard Nuclear Orientation (Angstroms)
    I     Atom           X                Y                Z
 ----------------------------------------------------------------
    1      C      -2.4322407933     0.9940611587    -2.3494928745
    2      C      -1.5791141444    -0.2156381781    -1.9268929576
    3      C      -2.2642283228    -1.5385068695    -2.3113046674
    4      C      -2.5792285948    -1.5824069273    -3.8161592122
    5      C      -3.4163122408    -0.3709117246    -4.2585563254
    6      C      -2.7460985431     0.9525093355    -3.8544451354
    7      H      -1.6200249020    -2.3790696576    -2.0264898787
    8      H      -0.6117494756    -0.1573175047    -2.4376884750
    9      H      -3.3733132318     0.9922086403    -1.7776822200
   10      H      -1.9042381544     1.9192931137    -2.0895374136
   11      H      -1.6331213091    -1.5943217211    -4.3793317421
   12      H      -3.1005334759    -2.5172986514    -4.0614817593
   13      H      -3.5771017487    -0.3982947488    -5.3457523819
   14      H      -4.4118758988    -0.4293853261    -3.7930236329
   15      H      -1.8082345422     1.0714115767    -4.4190080922
   16      H      -3.3847420098     1.8033345179    -4.1270162512
   17      H      -3.1989291291    -1.6447926000    -1.7385285852
   18      N      -1.2508272305    -0.1752117928    -0.5042554793
   19      H      -1.9975062009    -0.2708039184     0.1746741857
   20      C       0.0157213918     0.0053669642    -0.0333287798
   21      H       0.0626437949     0.0080083504     1.0702966385
   22      O       1.0123900587     0.1437985814    -0.7316294805
 ----------------------------------------------------------------
 Nuclear Repulsion Energy =         467.27243084 hartrees
 There are       35 alpha and       35 beta electrons
 Applying Cartesian multipole field
    Component          Value
    ---------          -----
     (0,0,1)       -3.89000E-03
 Nucleus-field energy     =     1.1440744039 hartrees
 Requested basis set is 6-31+G(d)
 There are 71 shells and 197 basis functions
 A cutoff of  1.0D-14 yielded   2415 shell pairs
 There are     19018 function pairs
 Smallest overlap matrix eigenvalue = 2.52E-05
 Guess MOs from SCF MO coefficient file

 -----------------------------------------------------------------------
  General SCF calculation program by
  Eric Jon Sundstrom, Paul Horn, Yuezhi Mao, Dmitri Zuev, Alec White,
  David Stuck, Shaama M.S., Shane Yost, Joonho Lee, David Small,
  Daniel Levine, Susi Lehtola, Hugh Burton, Evgeny Epifanovsky,
  Bang C. Huynh
 -----------------------------------------------------------------------
 Exchange:     0.2000 Hartree-Fock + 0.0800 Slater + 0.7200 B88
 Correlation:  0.1900 VWN1RPA + 0.8100 LYP
 Using Euler-Maclaurin-Lebedev (99,590) quadrature formula
 using 16 threads for integral computing
 -------------------------------------------------------
 OpenMP Integral computing Module                
 Release: version 2.0, May 2017, Q-Chem Inc. Pleasanton 
 -------------------------------------------------------
 A restricted SCF calculation will be
 performed using DIIS
 SCF converges when DIIS error is below 1.0e-09
 ---------------------------------------
  Cycle       Energy         DIIS error
 ---------------------------------------
    1    -404.5881654299      9.77e-05  
    2    -404.5882442368      1.36e-05  
    3    -404.5882431333      2.38e-05  
    4    -404.5882452688      3.76e-06  
    5    -404.5882453200      1.01e-06  
    6    -404.5882453242      2.41e-07  
    7    -404.5882453245      7.89e-08  
    8    -404.5882453245      2.58e-08  
    9    -404.5882453245      4.12e-09  
   10    -404.5882453245      1.22e-09  
   11    -404.5882453245      4.27e-10  Convergence criterion met
 ---------------------------------------
 SCF time:   CPU 528.91s  wall 33.00s 
 SCF   energy in the final basis set =     -404.5882453245
 Total energy in the final basis set =     -404.5882453245
 
 --------------------------------------------------------------
 
                    Orbital Energies (a.u.)
 --------------------------------------------------------------
 
 Alpha MOs
 -- Occupied --
-19.1337 -14.3815 -10.2973 -10.2462 -10.2177 -10.2169 -10.2164 -10.2117
-10.2105  -1.0448  -0.9432  -0.8547  -0.7734  -0.7689  -0.6593  -0.6431
 -0.6093  -0.5941  -0.5441  -0.5049  -0.4836  -0.4724  -0.4682  -0.4361
 -0.4313  -0.4180  -0.4106  -0.3917  -0.3765  -0.3754  -0.3563  -0.3449
 -0.3388  -0.2700  -0.2684
 -- Virtual --
 -0.0298  -0.0105  -0.0091  -0.0014   0.0066   0.0133   0.0224   0.0299
  0.0338   0.0392   0.0489   0.0633   0.0662   0.0670   0.0715   0.0763
  0.0827   0.0901   0.1020   0.1123   0.1150   0.1270   0.1301   0.1384
  0.1473   0.1479   0.1557   0.1640   0.1732   0.1767   0.1919   0.1933
  0.1965   0.1988   0.2152   0.2180   0.2333   0.2392   0.2442   0.2468
  0.2595   0.2618   0.2677   0.2709   0.2735   0.2893   0.2995   0.3046
  0.3088   0.3211   0.3385   0.3408   0.3525   0.3702   0.3850   0.3951
  0.4205   0.4349   0.4847   0.5821   0.6092   0.6255   0.6333   0.6418
  0.6533   0.6720   0.6981   0.7067   0.7259   0.7311   0.7573   0.7636
  0.7727   0.7848   0.8005   0.8225   0.8344   0.8897   0.9367   0.9454
  0.9460   0.9595   0.9893   1.0081   1.0119   1.0282   1.0595   1.0738
  1.0849   1.0915   1.0930   1.1251   1.1372   1.1396   1.1523   1.1620
  1.2129   1.2516   1.2854   1.3234   1.3365   1.3588   1.3645   1.3933
  1.4609   1.4691   1.4777   1.5345   1.5560   1.5914   1.6960   1.7024
  1.7073   1.7305   1.7586   1.7871   1.8393   1.8540   1.8764   1.8795
  1.8860   1.9226   1.9603   1.9843   1.9877   2.0214   2.0309   2.0604
  2.0723   2.1133   2.1772   2.2018   2.2614   2.2898   2.2927   2.3203
  2.3703   2.3864   2.3866   2.3934   2.4291   2.5444   2.5683   2.6041
  2.6406   2.6637   2.6813   2.7300   2.7554   2.8092   2.8553   3.0072
  3.1768   4.0742   4.1740   4.2267   4.2619   4.3076   4.4093   4.5698
  4.5779   4.6502
 --------------------------------------------------------------
 
          Ground-State Mulliken Net Atomic Charges

     Atom                 Charge (a.u.)
  ----------------------------------------
      1 C                    -0.231927
      2 C                    -0.543551
      3 C                    -0.260178
      4 C                    -0.424871
      5 C                    -0.381812
      6 C                    -0.426691
      7 H                     0.216281
      8 H                     0.239500
      9 H                     0.202000
     10 H                     0.216297
     11 H                     0.196793
     12 H                     0.192668
     13 H                     0.179703
     14 H                     0.199523
     15 H                     0.196928
     16 H                     0.192289
     17 H                     0.201471
     18 N                    -0.380034
     19 H                     0.403302
     20 C                     0.336709
     21 H                     0.164428
     22 O                    -0.488827
  ----------------------------------------
  Sum of atomic charges =     0.000000

 -----------------------------------------------------------------
                    Cartesian Multipole Moments
 -----------------------------------------------------------------
    Charge (ESU x 10^10)
                -0.0000
    Dipole Moment (Debye)
         X      -3.9206      Y      -0.5334      Z       1.3733
       Tot       4.1883
    Quadrupole Moments (Debye-Ang)
        XX     -55.9003     XY       0.1357     YY     -57.0518
        XZ       1.7816     YZ       0.3064     ZZ     -56.6906
    Octopole Moments (Debye-Ang^2)
       XXX     291.4684    XXY       9.9478    XYY     101.7311
       YYY      35.8672    XXZ     134.7715    XYZ       0.5890
       YYZ     129.7074    XZZ     104.3273    YZZ      11.9129
       ZZZ     397.9045
    Hexadecapole Moments (Debye-Ang^3)
      XXXX   -1777.5760   XXXY     -87.0342   XXYY    -366.2921
      XYYY     -89.8488   YYYY    -403.9521   XXXZ    -998.5274
      XXYZ     -38.7208   XYYZ    -327.2958   YYYZ    -111.8930
      XXZZ    -768.6559   XYZZ     -32.0756   YYZZ    -516.9262
      XZZZ   -1025.1254   YZZZ    -115.2727   ZZZZ   -2721.7331
 -----------------------------------------------------------------
 Calculating analytic gradient of the SCF energy
 Gradient of SCF Energy
            1           2           3           4           5           6
    1  -0.0000064  -0.0000783  -0.0000364   0.0000500   0.0000411   0.0000444
    2  -0.0000774  -0.0000352   0.0000324   0.0000174   0.0000059  -0.0000129
    3   0.0000112  -0.0000684  -0.0000675   0.0000694  -0.0000026   0.0000690
            7           8           9          10          11          12
    1  -0.0000222   0.0000512  -0.0000144  -0.0000215   0.0001069   0.0000457
    2   0.0000325   0.0000225   0.0000160  -0.0000276   0.0000122  -0.0000043
    3   0.0000091   0.0000569  -0.0000397   0.0000148  -0.0000273  -0.0000319
           13          14          15          16          17          18
    1   0.0000769   0.0000329   0.0001074   0.0000429  -0.0000081  -0.0000166
    2   0.0000120   0.0000038   0.0000071   0.0000199  -0.0000201  -0.0000822
    3  -0.0000922  -0.0000706  -0.0000152  -0.0000242  -0.0000380   0.0001548
           19          20          21          22
    1  -0.0002258  -0.0002384  -0.0000932   0.0001619
    2  -0.0000637   0.0006354  -0.0002421  -0.0002519
    3  -0.0000134   0.0000864   0.0000054   0.0000139
 Max gradient component =       6.354E-04
 RMS gradient           =       1.113E-04
 Gradient time:  CPU 120.13 s  wall 7.61 s
 Geometry Optimization Parameters
   NAtoms,    NIC,     NZ,  NCons,   NDum,   NFix, NCnnct, MaxDiis
       22     172       0       0       0       0       0       0

 Cartesian Hessian Update
 Hessian updated using BFGS update


** GEOMETRY OPTIMIZATION IN DELOCALIZED INTERNAL COORDINATES **
   Searching for a Minimum

   Optimization Cycle:   3

                       Coordinates (Angstroms)
     ATOM                X               Y               Z
      1  C        -2.4322407933    0.9940611587   -2.3494928745
      2  C        -1.5791141444   -0.2156381781   -1.9268929576
      3  C        -2.2642283228   -1.5385068695   -2.3113046674
      4  C        -2.5792285948   -1.5824069273   -3.8161592122
      5  C        -3.4163122408   -0.3709117246   -4.2585563254
      6  C        -2.7460985431    0.9525093355   -3.8544451354
      7  H        -1.6200249020   -2.3790696576   -2.0264898787
      8  H        -0.6117494756   -0.1573175047   -2.4376884750
      9  H        -3.3733132318    0.9922086403   -1.7776822200
     10  H        -1.9042381544    1.9192931137   -2.0895374136
     11  H        -1.6331213091   -1.5943217211   -4.3793317421
     12  H        -3.1005334759   -2.5172986514   -4.0614817593
     13  H        -3.5771017487   -0.3982947488   -5.3457523819
     14  H        -4.4118758988   -0.4293853261   -3.7930236329
     15  H        -1.8082345422    1.0714115767   -4.4190080922
     16  H        -3.3847420098    1.8033345179   -4.1270162512
     17  H        -3.1989291291   -1.6447926000   -1.7385285852
     18  N        -1.2508272305   -0.1752117928   -0.5042554793
     19  H        -1.9975062009   -0.2708039184    0.1746741857
     20  C         0.0157213918    0.0053669642   -0.0333287798
     21  H         0.0626437949    0.0080083504    1.0702966385
     22  O         1.0123900587    0.1437985814   -0.7316294805
   Point Group: c1    Number of degrees of freedom:    60


   Energy is   -404.588245325

 Hessian updated using BFGS update

 60 Hessian modes will be used to form the next step
  Hessian Eigenvalues:
     0.004969    0.005974    0.006771    0.007185    0.012567    0.018801
     0.019502    0.020837    0.028238    0.037342    0.038479    0.039423
     0.043040    0.048427    0.048467    0.048905    0.055297    0.055725
     0.056171    0.060012    0.066972    0.081175    0.081538    0.081613
     0.082025    0.082133    0.084447    0.087520    0.119743    0.120969
     0.143029    0.154055    0.160265    0.160659    0.174821    0.206913
     0.211782    0.250807    0.270868    0.272615    0.275539    0.286872
     0.287147    0.288591    0.328397    0.334531    0.334890    0.336020
     0.336548    0.336944    0.339400    0.339450    0.339800    0.340197
     0.340535    0.342425    0.362530    0.454031    0.521326    0.944924

 Minimum search - taking simple RFO step
 Searching for Lamda that Minimizes Along All modes
 Value Taken    Lamda =  -0.00000870
 Step Taken.  Stepsize is  0.021836

                             Maximum     Tolerance    Cnvgd?
         Gradient           0.000373      0.000100      NO
         Displacement       0.011198      0.000100      NO
         Energy change     -0.000009      0.000000      NO


 New Cartesian Coordinates Obtained by Inverse Iteration

 Displacement from previous Coordinates is:  0.038603
 ----------------------------------------------------------------
             Standard Nuclear Orientation (Angstroms)
    I     Atom           X                Y                Z
 ----------------------------------------------------------------
    1      C      -2.4325329364     0.9927503231    -2.3478854635
    2      C      -1.5801472628    -0.2179380587    -1.9258903903
    3      C      -2.2671008774    -1.5398092319    -2.3107901770
    4      C      -2.5800453721    -1.5826250184    -3.8162179930
    5      C      -3.4150612912    -0.3700458297    -4.2593837976
    6      C      -2.7444257937     0.9525329622    -3.8533764856
    7      H      -1.6247149404    -2.3817278189    -2.0256504423
    8      H      -0.6138125490    -0.1604362941    -2.4385932240
    9      H      -3.3743832469     0.9907939792    -1.7773291774
   10      H      -1.9045074383     1.9176850839    -2.0867151487
   11      H      -1.6330087316    -1.5955559210    -4.3776641811
   12      H      -3.1023438247    -2.5165505713    -4.0630338548
   13      H      -3.5734416720    -0.3966811783    -5.3469114192
   14      H      -4.4117002526    -0.4278361989    -3.7960390537
   15      H      -1.8056085481     1.0713173793    -4.4162418555
   16      H      -3.3822930373     1.8037237679    -4.1265331496
   17      H      -3.2028269462    -1.6447527175    -1.7394279746
   18      N      -1.2501669211    -0.1786218951    -0.5037828637
   19      H      -1.9948850078    -0.2752262284     0.1769825496
   20      C       0.0173513390     0.0049394003    -0.0352900835
   21      H       0.0654851734     0.0148940602     1.0680383121
   22      O       1.0115054350     0.1552026244    -0.7348986467
 ----------------------------------------------------------------
 Nuclear Repulsion Energy =         467.26701232 hartrees
 There are       35 alpha and       35 beta electrons
 Applying Cartesian multipole field
    Component          Value
    ---------          -----
     (0,0,1)       -3.89000E-03
 Nucleus-field energy     =     1.1441723245 hartrees
 Requested basis set is 6-31+G(d)
 There are 71 shells and 197 basis functions
 A cutoff of  1.0D-14 yielded   2415 shell pairs
 There are     19018 function pairs
 Smallest overlap matrix eigenvalue = 2.52E-05
 Guess MOs from SCF MO coefficient file

 -----------------------------------------------------------------------
  General SCF calculation program by
  Eric Jon Sundstrom, Paul Horn, Yuezhi Mao, Dmitri Zuev, Alec White,
  David Stuck, Shaama M.S., Shane Yost, Joonho Lee, David Small,
  Daniel Levine, Susi Lehtola, Hugh Burton, Evgeny Epifanovsky,
  Bang C. Huynh
 -----------------------------------------------------------------------
 Exchange:     0.2000 Hartree-Fock + 0.0800 Slater + 0.7200 B88
 Correlation:  0.1900 VWN1RPA + 0.8100 LYP
 Using Euler-Maclaurin-Lebedev (99,590) quadrature formula
 using 16 threads for integral computing
 -------------------------------------------------------
 OpenMP Integral computing Module                
 Release: version 2.0, May 2017, Q-Chem Inc. Pleasanton 
 -------------------------------------------------------
 A restricted SCF calculation will be
 performed using DIIS
 SCF converges when DIIS error is below 1.0e-09
 ---------------------------------------
  Cycle       Energy         DIIS error
 ---------------------------------------
    1    -404.5881628370      9.39e-05  
    2    -404.5882395308      1.29e-05  
    3    -404.5882404747      5.65e-06  
    4    -404.5882405485      4.22e-06  
    5    -404.5882406156      8.68e-07  
    6    -404.5882406183      3.10e-07  
    7    -404.5882406187      4.81e-08  
    8    -404.5882406187      1.30e-08  
    9    -404.5882406187      7.49e-09  
   10    -404.5882406187      1.23e-09  
   11    -404.5882406187      4.85e-10  Convergence criterion met
 ---------------------------------------
 SCF time:   CPU 531.89s  wall 34.00s 
 SCF   energy in the final basis set =     -404.5882406187
 Total energy in the final basis set =     -404.5882406187
 
 --------------------------------------------------------------
 
                    Orbital Energies (a.u.)
 --------------------------------------------------------------
 
 Alpha MOs
 -- Occupied --
-19.1338 -14.3816 -10.2974 -10.2462 -10.2176 -10.2169 -10.2164 -10.2117
-10.2104  -1.0448  -0.9432  -0.8547  -0.7733  -0.7689  -0.6593  -0.6430
 -0.6093  -0.5941  -0.5441  -0.5049  -0.4836  -0.4724  -0.4682  -0.4361
 -0.4313  -0.4180  -0.4106  -0.3916  -0.3765  -0.3753  -0.3563  -0.3450
 -0.3388  -0.2701  -0.2683
 -- Virtual --
 -0.0297  -0.0104  -0.0091  -0.0014   0.0065   0.0133   0.0224   0.0299
  0.0339   0.0392   0.0488   0.0633   0.0661   0.0670   0.0716   0.0763
  0.0827   0.0902   0.1020   0.1123   0.1150   0.1269   0.1302   0.1385
  0.1472   0.1479   0.1558   0.1641   0.1731   0.1767   0.1919   0.1933
  0.1965   0.1989   0.2152   0.2180   0.2333   0.2392   0.2441   0.2467
  0.2595   0.2619   0.2677   0.2708   0.2735   0.2892   0.2994   0.3047
  0.3088   0.3212   0.3385   0.3409   0.3525   0.3702   0.3850   0.3950
  0.4202   0.4350   0.4846   0.5821   0.6092   0.6256   0.6333   0.6419
  0.6533   0.6721   0.6981   0.7067   0.7255   0.7315   0.7573   0.7635
  0.7728   0.7848   0.8003   0.8228   0.8343   0.8899   0.9367   0.9455
  0.9461   0.9595   0.9893   1.0079   1.0118   1.0280   1.0593   1.0739
  1.0848   1.0916   1.0930   1.1253   1.1372   1.1395   1.1525   1.1622
  1.2128   1.2513   1.2854   1.3234   1.3370   1.3589   1.3647   1.3934
  1.4610   1.4686   1.4776   1.5344   1.5560   1.5911   1.6964   1.7022
  1.7073   1.7305   1.7585   1.7871   1.8388   1.8540   1.8762   1.8799
  1.8860   1.9225   1.9606   1.9843   1.9878   2.0215   2.0307   2.0601
  2.0725   2.1131   2.1774   2.2016   2.2617   2.2908   2.2910   2.3203
  2.3704   2.3865   2.3866   2.3935   2.4292   2.5444   2.5684   2.6041
  2.6406   2.6635   2.6811   2.7303   2.7550   2.8092   2.8554   3.0068
  3.1765   4.0742   4.1741   4.2266   4.2619   4.3075   4.4093   4.5701
  4.5781   4.6502
 --------------------------------------------------------------
 
          Ground-State Mulliken Net Atomic Charges

     Atom                 Charge (a.u.)
  ----------------------------------------
      1 C                    -0.232242
      2 C                    -0.543053
      3 C                    -0.260878
      4 C                    -0.424429
      5 C                    -0.381976
      6 C                    -0.426414
      7 H                     0.216161
      8 H                     0.239377
      9 H                     0.202021
     10 H                     0.216378
     11 H                     0.196809
     12 H                     0.192615
     13 H                     0.179697
     14 H                     0.199514
     15 H                     0.196999
     16 H                     0.192271
     17 H                     0.201494
     18 N                    -0.380048
     19 H                     0.403397
     20 C                     0.336530
     21 H                     0.164420
     22 O                    -0.488644
  ----------------------------------------
  Sum of atomic charges =     0.000000

 -----------------------------------------------------------------
                    Cartesian Multipole Moments
 -----------------------------------------------------------------
    Charge (ESU x 10^10)
                -0.0000
    Dipole Moment (Debye)
         X      -3.9147      Y      -0.5529      Z       1.3804
       Tot       4.1876
    Quadrupole Moments (Debye-Ang)
        XX     -55.8969     XY       0.1056     YY     -57.0640
        XZ       1.7856     YZ       0.3268     ZZ     -56.7048
    Octopole Moments (Debye-Ang^2)
       XXX     291.4925    XXY       9.8941    XYY     101.7285
       YYY      35.8301    XXZ     134.7869    XYZ       0.6253
       YYZ     129.7340    XZZ     104.3205    YZZ      11.8964
       ZZZ     397.9607
    Hexadecapole Moments (Debye-Ang^3)
      XXXX   -1777.5048   XXXY     -87.6016   XXYY    -366.3515
      XYYY     -90.4641   YYYY    -404.2595   XXXZ    -998.2940
      XXYZ     -38.7523   XYYZ    -327.2579   YYYZ    -112.0030
      XXZZ    -768.6033   XYZZ     -32.3107   YYZZ    -516.9493
      XZZZ   -1025.0139   YZZZ    -115.3827   ZZZZ   -2721.5592
 -----------------------------------------------------------------
 Calculating analytic gradient of the SCF energy
 Gradient of SCF Energy
            1           2           3           4           5           6
    1  -0.0000200   0.0002060  -0.0000147   0.0001083  -0.0000158   0.0000861
    2  -0.0001031   0.0000603   0.0000462   0.0000516  -0.0000002  -0.0000065
    3   0.0000186   0.0000444   0.0000238  -0.0000041   0.0000222   0.0000030
            7           8           9          10          11          12
    1  -0.0000201  -0.0000397  -0.0000471  -0.0000246   0.0000898   0.0000246
    2  -0.0000156  -0.0000084   0.0000314   0.0000212   0.0000013   0.0000318
    3  -0.0000046  -0.0000498  -0.0000596   0.0000058   0.0000223  -0.0000573
           13          14          15          16          17          18
    1   0.0001075   0.0000123   0.0000907   0.0000267  -0.0000352  -0.0007617
    2   0.0000114   0.0000042   0.0000156  -0.0000218  -0.0000341   0.0002249
    3  -0.0000630  -0.0000773   0.0000294  -0.0000562  -0.0000615   0.0001566
           19          20          21          22
    1  -0.0001173   0.0001601  -0.0001364   0.0003204
    2   0.0000723  -0.0014307   0.0004529   0.0005954
    3   0.0000089   0.0001776  -0.0001163   0.0000369
 Max gradient component =       1.431E-03
 RMS gradient           =       2.344E-04
 Gradient time:  CPU 121.47 s  wall 7.74 s
 Geometry Optimization Parameters
   NAtoms,    NIC,     NZ,  NCons,   NDum,   NFix, NCnnct, MaxDiis
       22     172       0       0       0       0       0       0

 Cartesian Hessian Update
 Hessian updated using BFGS update


** GEOMETRY OPTIMIZATION IN DELOCALIZED INTERNAL COORDINATES **
   Searching for a Minimum

   Optimization Cycle:   4

                       Coordinates (Angstroms)
     ATOM                X               Y               Z
      1  C        -2.4325329364    0.9927503231   -2.3478854635
      2  C        -1.5801472628   -0.2179380587   -1.9258903903
      3  C        -2.2671008774   -1.5398092319   -2.3107901770
      4  C        -2.5800453721   -1.5826250184   -3.8162179930
      5  C        -3.4150612912   -0.3700458297   -4.2593837976
      6  C        -2.7444257937    0.9525329622   -3.8533764856
      7  H        -1.6247149404   -2.3817278189   -2.0256504423
      8  H        -0.6138125490   -0.1604362941   -2.4385932240
      9  H        -3.3743832469    0.9907939792   -1.7773291774
     10  H        -1.9045074383    1.9176850839   -2.0867151487
     11  H        -1.6330087316   -1.5955559210   -4.3776641811
     12  H        -3.1023438247   -2.5165505713   -4.0630338548
     13  H        -3.5734416720   -0.3966811783   -5.3469114192
     14  H        -4.4117002526   -0.4278361989   -3.7960390537
     15  H        -1.8056085481    1.0713173793   -4.4162418555
     16  H        -3.3822930373    1.8037237679   -4.1265331496
     17  H        -3.2028269462   -1.6447527175   -1.7394279746
     18  N        -1.2501669211   -0.1786218951   -0.5037828637
     19  H        -1.9948850078   -0.2752262284    0.1769825496
     20  C         0.0173513390    0.0049394003   -0.0352900835
     21  H         0.0654851734    0.0148940602    1.0680383121
     22  O         1.0115054350    0.1552026244   -0.7348986467
   Point Group: c1    Number of degrees of freedom:    60


   Energy is   -404.588240619

 Hessian updated using BFGS update

 60 Hessian modes will be used to form the next step
  Hessian Eigenvalues:
     0.005397    0.005974    0.006765    0.007036    0.012514    0.019335
     0.019503    0.020833    0.036437    0.038465    0.039418    0.042275
     0.048316    0.048450    0.048896    0.055269    0.055698    0.056101
     0.059892    0.066887    0.081133    0.081517    0.081569    0.081999
     0.082131    0.084435    0.085802    0.088089    0.119890    0.120969
     0.143047    0.153832    0.160209    0.160473    0.174983    0.203786
     0.211562    0.251502    0.270023    0.272609    0.275540    0.286627
     0.286923    0.287412    0.327979    0.334532    0.334903    0.335890
     0.336446    0.336549    0.339360    0.339447    0.339803    0.340175
     0.340433    0.342221    0.362485    0.453213    0.525851    0.941819

 Minimum search - taking simple RFO step
 Searching for Lamda that Minimizes Along All modes
 Value Taken    Lamda =  -0.00001321
 Step Taken.  Stepsize is  0.014838

                             Maximum     Tolerance    Cnvgd?
         Gradient           0.000788      0.000100      NO
         Displacement       0.009320      0.000100      NO
         Energy change      0.000005      0.000000      NO


 New Cartesian Coordinates Obtained by Inverse Iteration

 Displacement from previous Coordinates is:  0.024153
 ----------------------------------------------------------------
             Standard Nuclear Orientation (Angstroms)
    I     Atom           X                Y                Z
 ----------------------------------------------------------------
    1      C      -2.4312974331     0.9934796790    -2.3491659810
    2      C      -1.5788821034    -0.2170810672    -1.9268413733
    3      C      -2.2650920265    -1.5394295613    -2.3115544061
    4      C      -2.5802730430    -1.5826964878    -3.8165383545
    5      C      -3.4162377786    -0.3703882327    -4.2587519967
    6      C      -2.7452993998     0.9525218942    -3.8542339233
    7      H      -1.6217252864    -2.3807901105    -2.0270029696
    8      H      -0.6118403602    -0.1593067570    -2.4381546468
    9      H      -3.3723782438     0.9918432556    -1.7773376184
   10      H      -1.9027830133     1.9184001005    -2.0889725653
   11      H      -1.6342270778    -1.5953849676    -4.3795993690
   12      H      -3.1024243850    -2.5170173767    -4.0621680318
   13      H      -3.5767750153    -0.3974076748    -5.3459148284
   14      H      -4.4119450010    -0.4282540255    -3.7934782749
   15      H      -1.8074643499     1.0711477456    -4.4187128884
   16      H      -3.3835073840     1.8037044849    -4.1266131714
   17      H      -3.1999602657    -1.6448660132    -1.7388633108
   18      N      -1.2501311054    -0.1774373934    -0.5042977832
   19      H      -1.9959545300    -0.2747879726     0.1751334869
   20      C       0.0157599228     0.0066983716    -0.0330371254
   21      H       0.0623486980     0.0113240251     1.0706932605
   22      O       1.0114244790     0.1517607023    -0.7312226493
 ----------------------------------------------------------------
 Nuclear Repulsion Energy =         467.25332856 hartrees
 There are       35 alpha and       35 beta electrons
 Applying Cartesian multipole field
    Component          Value
    ---------          -----
     (0,0,1)       -3.89000E-03
 Nucleus-field energy     =     1.1440532479 hartrees
 Requested basis set is 6-31+G(d)
 There are 71 shells and 197 basis functions
 A cutoff of  1.0D-14 yielded   2415 shell pairs
 There are     19018 function pairs
 Smallest overlap matrix eigenvalue = 2.52E-05
 Guess MOs from SCF MO coefficient file

 -----------------------------------------------------------------------
  General SCF calculation program by
  Eric Jon Sundstrom, Paul Horn, Yuezhi Mao, Dmitri Zuev, Alec White,
  David Stuck, Shaama M.S., Shane Yost, Joonho Lee, David Small,
  Daniel Levine, Susi Lehtola, Hugh Burton, Evgeny Epifanovsky,
  Bang C. Huynh
 -----------------------------------------------------------------------
 Exchange:     0.2000 Hartree-Fock + 0.0800 Slater + 0.7200 B88
 Correlation:  0.1900 VWN1RPA + 0.8100 LYP
 Using Euler-Maclaurin-Lebedev (99,590) quadrature formula
 using 16 threads for integral computing
 -------------------------------------------------------
 OpenMP Integral computing Module                
 Release: version 2.0, May 2017, Q-Chem Inc. Pleasanton 
 -------------------------------------------------------
 A restricted SCF calculation will be
 performed using DIIS
 SCF converges when DIIS error is below 1.0e-09
 ---------------------------------------
  Cycle       Energy         DIIS error
 ---------------------------------------
    1    -404.5882274611      4.88e-05  
    2    -404.5882470536      7.23e-06  
    3    -404.5882470996      8.07e-06  
    4    -404.5882472913      4.14e-06  
    5    -404.5882473560      3.96e-07  
    6    -404.5882473566      1.64e-07  
    7    -404.5882473567      3.42e-08  
    8    -404.5882473567      1.15e-08  
    9    -404.5882473567      4.21e-09  
   10    -404.5882473567      1.08e-09  
   11    -404.5882473567      3.42e-10  Convergence criterion met
 ---------------------------------------
 SCF time:   CPU 544.27s  wall 34.00s 
 SCF   energy in the final basis set =     -404.5882473567
 Total energy in the final basis set =     -404.5882473567
 
 --------------------------------------------------------------
 
                    Orbital Energies (a.u.)
 --------------------------------------------------------------
 
 Alpha MOs
 -- Occupied --
-19.1337 -14.3815 -10.2973 -10.2462 -10.2177 -10.2169 -10.2164 -10.2117
-10.2105  -1.0449  -0.9432  -0.8547  -0.7733  -0.7690  -0.6593  -0.6431
 -0.6092  -0.5941  -0.5441  -0.5049  -0.4836  -0.4724  -0.4682  -0.4361
 -0.4313  -0.4180  -0.4106  -0.3917  -0.3765  -0.3754  -0.3563  -0.3450
 -0.3389  -0.2700  -0.2683
 -- Virtual --
 -0.0298  -0.0105  -0.0091  -0.0014   0.0066   0.0133   0.0224   0.0299
  0.0339   0.0392   0.0489   0.0633   0.0662   0.0670   0.0716   0.0763
  0.0827   0.0901   0.1020   0.1123   0.1150   0.1269   0.1301   0.1384
  0.1473   0.1479   0.1557   0.1640   0.1731   0.1767   0.1919   0.1933
  0.1965   0.1988   0.2152   0.2180   0.2333   0.2392   0.2442   0.2468
  0.2595   0.2618   0.2676   0.2708   0.2735   0.2892   0.2995   0.3046
  0.3087   0.3211   0.3385   0.3409   0.3525   0.3703   0.3850   0.3951
  0.4205   0.4349   0.4847   0.5820   0.6092   0.6255   0.6333   0.6419
  0.6533   0.6720   0.6981   0.7066   0.7258   0.7312   0.7573   0.7635
  0.7728   0.7849   0.8004   0.8226   0.8344   0.8897   0.9367   0.9454
  0.9460   0.9595   0.9893   1.0081   1.0119   1.0281   1.0594   1.0739
  1.0849   1.0915   1.0930   1.1251   1.1372   1.1395   1.1523   1.1620
  1.2129   1.2516   1.2854   1.3234   1.3365   1.3588   1.3647   1.3932
  1.4608   1.4691   1.4776   1.5345   1.5560   1.5914   1.6959   1.7022
  1.7072   1.7306   1.7586   1.7871   1.8392   1.8540   1.8763   1.8796
  1.8859   1.9225   1.9602   1.9842   1.9877   2.0214   2.0309   2.0603
  2.0723   2.1132   2.1771   2.2016   2.2616   2.2904   2.2923   2.3202
  2.3703   2.3864   2.3865   2.3936   2.4290   2.5443   2.5682   2.6041
  2.6406   2.6636   2.6812   2.7300   2.7553   2.8092   2.8552   3.0073
  3.1769   4.0742   4.1739   4.2268   4.2619   4.3075   4.4093   4.5698
  4.5779   4.6500
 --------------------------------------------------------------
 
          Ground-State Mulliken Net Atomic Charges

     Atom                 Charge (a.u.)
  ----------------------------------------
      1 C                    -0.231684
      2 C                    -0.542639
      3 C                    -0.260876
      4 C                    -0.424847
      5 C                    -0.381890
      6 C                    -0.426833
      7 H                     0.216231
      8 H                     0.239401
      9 H                     0.202010
     10 H                     0.216336
     11 H                     0.196789
     12 H                     0.192666
     13 H                     0.179715
     14 H                     0.199528
     15 H                     0.196953
     16 H                     0.192308
     17 H                     0.201457
     18 N                    -0.380082
     19 H                     0.403240
     20 C                     0.336606
     21 H                     0.164430
     22 O                    -0.488818
  ----------------------------------------
  Sum of atomic charges =     0.000000

 -----------------------------------------------------------------
                    Cartesian Multipole Moments
 -----------------------------------------------------------------
    Charge (ESU x 10^10)
                -0.0000
    Dipole Moment (Debye)
         X      -3.9180      Y      -0.5478      Z       1.3725
       Tot       4.1874
    Quadrupole Moments (Debye-Ang)
        XX     -55.8995     XY       0.1181     YY     -57.0554
        XZ       1.7819     YZ       0.3196     ZZ     -56.6838
    Octopole Moments (Debye-Ang^2)
       XXX     291.4963    XXY       9.8896    XYY     101.7182
       YYY      35.8072    XXZ     134.7534    XYZ       0.6105
       YYZ     129.7056    XZZ     104.3145    YZZ      11.8834
       ZZZ     397.8725
    Hexadecapole Moments (Debye-Ang^3)
      XXXX   -1777.4466   XXXY     -87.4075   XXYY    -366.2920
      XYYY     -90.2569   YYYY    -404.1869   XXXZ    -998.5286
      XXYZ     -38.7345   XYYZ    -327.2946   YYYZ    -111.9557
      XXZZ    -768.5862   XYZZ     -32.2193   YYZZ    -516.9610
      XZZZ   -1025.0896   YZZZ    -115.3199   ZZZZ   -2721.6998
 -----------------------------------------------------------------
 Calculating analytic gradient of the SCF energy
 Gradient of SCF Energy
            1           2           3           4           5           6
    1   0.0000089  -0.0000239   0.0000119   0.0000425   0.0000516   0.0000358
    2  -0.0000237  -0.0000079  -0.0000075  -0.0000041   0.0000049   0.0000134
    3   0.0000040  -0.0000107  -0.0000364  -0.0000154  -0.0000525  -0.0000135
            7           8           9          10          11          12
    1  -0.0000117  -0.0000124  -0.0000283  -0.0000158   0.0000531   0.0000500
    2  -0.0000088   0.0000087   0.0000010   0.0000112   0.0000089   0.0000069
    3   0.0000091   0.0000409  -0.0000364   0.0000167   0.0000105  -0.0000482
           13          14          15          16          17          18
    1   0.0000883   0.0000416   0.0000545   0.0000507  -0.0000210  -0.0000654
    2   0.0000125   0.0000043   0.0000062   0.0000050  -0.0000036   0.0000475
    3  -0.0000427  -0.0000736   0.0000164  -0.0000371  -0.0000402   0.0000733
           19          20          21          22
    1  -0.0000686  -0.0000952  -0.0000985  -0.0000479
    2   0.0000015  -0.0000823   0.0000013   0.0000045
    3  -0.0000094   0.0001019   0.0000611   0.0000822
 Max gradient component =       1.019E-04
 RMS gradient           =       4.204E-05
 Gradient time:  CPU 122.54 s  wall 7.80 s
 Geometry Optimization Parameters
   NAtoms,    NIC,     NZ,  NCons,   NDum,   NFix, NCnnct, MaxDiis
       22     172       0       0       0       0       0       0

 Cartesian Hessian Update
 Hessian updated using BFGS update


** GEOMETRY OPTIMIZATION IN DELOCALIZED INTERNAL COORDINATES **
   Searching for a Minimum

   Optimization Cycle:   5

                       Coordinates (Angstroms)
     ATOM                X               Y               Z
      1  C        -2.4312974331    0.9934796790   -2.3491659810
      2  C        -1.5788821034   -0.2170810672   -1.9268413733
      3  C        -2.2650920265   -1.5394295613   -2.3115544061
      4  C        -2.5802730430   -1.5826964878   -3.8165383545
      5  C        -3.4162377786   -0.3703882327   -4.2587519967
      6  C        -2.7452993998    0.9525218942   -3.8542339233
      7  H        -1.6217252864   -2.3807901105   -2.0270029696
      8  H        -0.6118403602   -0.1593067570   -2.4381546468
      9  H        -3.3723782438    0.9918432556   -1.7773376184
     10  H        -1.9027830133    1.9184001005   -2.0889725653
     11  H        -1.6342270778   -1.5953849676   -4.3795993690
     12  H        -3.1024243850   -2.5170173767   -4.0621680318
     13  H        -3.5767750153   -0.3974076748   -5.3459148284
     14  H        -4.4119450010   -0.4282540255   -3.7934782749
     15  H        -1.8074643499    1.0711477456   -4.4187128884
     16  H        -3.3835073840    1.8037044849   -4.1266131714
     17  H        -3.1999602657   -1.6448660132   -1.7388633108
     18  N        -1.2501311054   -0.1774373934   -0.5042977832
     19  H        -1.9959545300   -0.2747879726    0.1751334869
     20  C         0.0157599228    0.0066983716   -0.0330371254
     21  H         0.0623486980    0.0113240251    1.0706932605
     22  O         1.0114244790    0.1517607023   -0.7312226493
   Point Group: c1    Number of degrees of freedom:    60


   Energy is   -404.588247357

 Hessian updated using BFGS update

 60 Hessian modes will be used to form the next step
  Hessian Eigenvalues:
     0.005477    0.005974    0.006758    0.006910    0.012515    0.019326
     0.019503    0.020833    0.036393    0.038464    0.039417    0.042359
     0.048269    0.048450    0.048895    0.055278    0.055706    0.056086
     0.059894    0.066879    0.081109    0.081525    0.081594    0.082020
     0.082100    0.084110    0.084458    0.087811    0.119846    0.120970
     0.143080    0.153774    0.160005    0.160481    0.175172    0.203835
     0.211582    0.252949    0.270032    0.272626    0.275543    0.286666
     0.286942    0.287675    0.328063    0.334538    0.334896    0.335935
     0.336446    0.336549    0.339363    0.339447    0.339815    0.340174
     0.340395    0.342231    0.362827    0.453281    0.526361    0.941129

 Minimum search - taking simple RFO step
 Searching for Lamda that Minimizes Along All modes
 Value Taken    Lamda =  -0.00000033
 Step Taken.  Stepsize is  0.006577

                             Maximum     Tolerance    Cnvgd?
         Gradient           0.000034      0.000100     YES
         Displacement       0.004044      0.000100      NO
         Energy change     -0.000007      0.000000      NO


 New Cartesian Coordinates Obtained by Inverse Iteration

 Displacement from previous Coordinates is:  0.012421
 ----------------------------------------------------------------
             Standard Nuclear Orientation (Angstroms)
    I     Atom           X                Y                Z
 ----------------------------------------------------------------
    1      C      -2.4307761697     0.9931018984    -2.3489915679
    2      C      -1.5787888204    -0.2178472649    -1.9268763982
    3      C      -2.2656111421    -1.5398331883    -2.3116348888
    4      C      -2.5807773174    -1.5828105392    -3.8166317040
    5      C      -3.4162007912    -0.3701004471    -4.2587492433
    6      C      -2.7447393093     0.9524855767    -3.8540670126
    7      H      -1.6226140060    -2.3814957903    -2.0271791287
    8      H      -0.6117334603    -0.1603471465    -2.4382123010
    9      H      -3.3718311129     0.9917006056    -1.7771332939
   10      H      -1.9018638245     1.9177369015    -2.0886536581
   11      H      -1.6347176659    -1.5958971072    -4.3796746328
   12      H      -3.1033563337    -2.5168814280    -4.0622974079
   13      H      -3.5767007575    -0.3969487235    -5.3459275333
   14      H      -4.4119523124    -0.4275960326    -3.7935214117
   15      H      -1.8068445075     1.0708506701    -4.4185123776
   16      H      -3.3826299401     1.8039557497    -4.1262919845
   17      H      -3.2005322705    -1.6448892349    -1.7389577324
   18      N      -1.2499510815    -0.1785843256    -0.5044262925
   19      H      -1.9955330438    -0.2775488097     0.1750631832
   20      C       0.0155323531     0.0084545826    -0.0331920286
   21      H       0.0621155215     0.0123951140     1.0705495534
   22      O       1.0108412896     0.1561315575    -0.7313166590
 ----------------------------------------------------------------
 Nuclear Repulsion Energy =         467.25974152 hartrees
 There are       35 alpha and       35 beta electrons
 Applying Cartesian multipole field
    Component          Value
    ---------          -----
     (0,0,1)       -3.89000E-03
 Nucleus-field energy     =     1.1440644769 hartrees
 Requested basis set is 6-31+G(d)
 There are 71 shells and 197 basis functions
 A cutoff of  1.0D-14 yielded   2415 shell pairs
 There are     19018 function pairs
 Smallest overlap matrix eigenvalue = 2.52E-05
 Guess MOs from SCF MO coefficient file

 -----------------------------------------------------------------------
  General SCF calculation program by
  Eric Jon Sundstrom, Paul Horn, Yuezhi Mao, Dmitri Zuev, Alec White,
  David Stuck, Shaama M.S., Shane Yost, Joonho Lee, David Small,
  Daniel Levine, Susi Lehtola, Hugh Burton, Evgeny Epifanovsky,
  Bang C. Huynh
 -----------------------------------------------------------------------
 Exchange:     0.2000 Hartree-Fock + 0.0800 Slater + 0.7200 B88
 Correlation:  0.1900 VWN1RPA + 0.8100 LYP
 Using Euler-Maclaurin-Lebedev (99,590) quadrature formula
 using 16 threads for integral computing
 -------------------------------------------------------
 OpenMP Integral computing Module                
 Release: version 2.0, May 2017, Q-Chem Inc. Pleasanton 
 -------------------------------------------------------
 A restricted SCF calculation will be
 performed using DIIS
 SCF converges when DIIS error is below 1.0e-09
 ---------------------------------------
  Cycle       Energy         DIIS error
 ---------------------------------------
    1    -404.5882414114      2.54e-05  
    2    -404.5882475818      3.42e-06  
    3    -404.5882476638      1.46e-06  
    4    -404.5882476724      5.66e-07  
    5    -404.5882476739      1.34e-07  
    6    -404.5882476740      5.63e-08  
    7    -404.5882476740      2.88e-08  
    8    -404.5882476740      3.79e-09  
    9    -404.5882476740      2.10e-09  
   10    -404.5882476740      2.75e-10  Convergence criterion met
 ---------------------------------------
 SCF time:   CPU 497.52s  wall 32.00s 
 SCF   energy in the final basis set =     -404.5882476740
 Total energy in the final basis set =     -404.5882476740
 
 --------------------------------------------------------------
 
                    Orbital Energies (a.u.)
 --------------------------------------------------------------
 
 Alpha MOs
 -- Occupied --
-19.1337 -14.3815 -10.2973 -10.2462 -10.2177 -10.2169 -10.2164 -10.2117
-10.2104  -1.0449  -0.9433  -0.8547  -0.7733  -0.7690  -0.6593  -0.6431
 -0.6092  -0.5941  -0.5441  -0.5049  -0.4836  -0.4724  -0.4682  -0.4361
 -0.4313  -0.4180  -0.4106  -0.3917  -0.3765  -0.3754  -0.3563  -0.3450
 -0.3389  -0.2701  -0.2683
 -- Virtual --
 -0.0298  -0.0105  -0.0091  -0.0014   0.0066   0.0133   0.0224   0.0298
  0.0339   0.0392   0.0489   0.0633   0.0661   0.0671   0.0716   0.0763
  0.0827   0.0901   0.1020   0.1123   0.1150   0.1269   0.1302   0.1384
  0.1473   0.1480   0.1558   0.1640   0.1731   0.1767   0.1919   0.1933
  0.1965   0.1989   0.2152   0.2180   0.2333   0.2392   0.2442   0.2468
  0.2594   0.2619   0.2676   0.2708   0.2736   0.2892   0.2995   0.3046
  0.3087   0.3211   0.3384   0.3409   0.3525   0.3704   0.3850   0.3951
  0.4205   0.4349   0.4847   0.5820   0.6092   0.6255   0.6333   0.6419
  0.6533   0.6720   0.6981   0.7065   0.7257   0.7313   0.7573   0.7635
  0.7728   0.7849   0.8004   0.8226   0.8344   0.8897   0.9367   0.9454
  0.9461   0.9595   0.9893   1.0081   1.0119   1.0282   1.0594   1.0739
  1.0849   1.0915   1.0930   1.1251   1.1372   1.1396   1.1523   1.1621
  1.2129   1.2515   1.2854   1.3234   1.3365   1.3587   1.3649   1.3932
  1.4607   1.4692   1.4776   1.5345   1.5560   1.5914   1.6959   1.7023
  1.7073   1.7307   1.7585   1.7872   1.8392   1.8541   1.8763   1.8796
  1.8859   1.9224   1.9602   1.9842   1.9878   2.0214   2.0310   2.0603
  2.0723   2.1132   2.1771   2.2015   2.2618   2.2903   2.2923   2.3202
  2.3703   2.3864   2.3866   2.3936   2.4290   2.5444   2.5682   2.6042
  2.6406   2.6637   2.6813   2.7300   2.7553   2.8092   2.8552   3.0074
  3.1770   4.0742   4.1740   4.2268   4.2619   4.3075   4.4093   4.5698
  4.5779   4.6500
 --------------------------------------------------------------
 
          Ground-State Mulliken Net Atomic Charges

     Atom                 Charge (a.u.)
  ----------------------------------------
      1 C                    -0.231214
      2 C                    -0.542621
      3 C                    -0.261373
      4 C                    -0.424789
      5 C                    -0.381896
      6 C                    -0.426863
      7 H                     0.216228
      8 H                     0.239371
      9 H                     0.202026
     10 H                     0.216349
     11 H                     0.196785
     12 H                     0.192664
     13 H                     0.179714
     14 H                     0.199528
     15 H                     0.196959
     16 H                     0.192311
     17 H                     0.201451
     18 N                    -0.380084
     19 H                     0.403240
     20 C                     0.336592
     21 H                     0.164412
     22 O                    -0.488791
  ----------------------------------------
  Sum of atomic charges =     0.000000

 -----------------------------------------------------------------
                    Cartesian Multipole Moments
 -----------------------------------------------------------------
    Charge (ESU x 10^10)
                -0.0000
    Dipole Moment (Debye)
         X      -3.9169      Y      -0.5562      Z       1.3725
       Tot       4.1875
    Quadrupole Moments (Debye-Ang)
        XX     -55.8970     XY       0.1113     YY     -57.0578
        XZ       1.7806     YZ       0.3264     ZZ     -56.6854
    Octopole Moments (Debye-Ang^2)
       XXX     291.5131    XXY       9.8432    XYY     101.7120
       YYY      35.7566    XXZ     134.7523    XYZ       0.6219
       YYZ     129.7109    XZZ     104.3209    YZZ      11.8577
       ZZZ     397.8810
    Hexadecapole Moments (Debye-Ang^3)
      XXXX   -1777.3368   XXXY     -87.5945   XXYY    -366.2829
[...]

 Mode:                40                     41                     42
 Frequency:      1412.56                1505.00                1507.88
 Force Cnst:      1.7118                 1.4493                 1.4627
 Red. Mass:       1.4561                 1.0860                 1.0919
 IR Active:          YES                    YES                    YES
 IR Intens:        1.294                  0.475                  3.403
 Raman Active:       YES                    YES                    YES
               X      Y      Z        X      Y      Z        X      Y      Z
 C          0.036 -0.056  0.093    0.019 -0.033 -0.038    0.011 -0.022 -0.002
 C         -0.050  0.025 -0.097    0.000 -0.015 -0.002   -0.001  0.003 -0.012
 C          0.043  0.044  0.082   -0.010 -0.021  0.031    0.014  0.026 -0.009
 C          0.002 -0.025  0.004   -0.011  0.018  0.025   -0.007  0.003 -0.004
 C         -0.006 -0.002  0.002   -0.011  0.013 -0.005   -0.065 -0.004 -0.032
 C          0.001  0.032  0.007    0.008  0.018 -0.026   -0.012 -0.018  0.012
 H         -0.110 -0.183 -0.310    0.245  0.100 -0.208   -0.185 -0.080  0.131
 H          0.277 -0.178  0.482   -0.002  0.063 -0.003    0.018 -0.016  0.021
 H         -0.190  0.179 -0.292    0.145  0.388  0.182    0.023  0.170  0.021
 H         -0.109  0.139 -0.290   -0.351  0.117  0.283   -0.131  0.043  0.088
 H          0.020 -0.004  0.029   -0.099 -0.237 -0.123    0.008 -0.043  0.023
 H         -0.071  0.061 -0.157    0.217 -0.078 -0.175    0.014 -0.004 -0.036
 H         -0.058 -0.007  0.005    0.090  0.002 -0.018    0.587  0.015 -0.110
 H         -0.043  0.019 -0.060    0.038 -0.054  0.087    0.230  0.022  0.555
 H          0.010 -0.040  0.013    0.119 -0.220  0.134   -0.069  0.197 -0.058
 H         -0.090 -0.083 -0.162   -0.213 -0.093  0.165    0.152  0.060 -0.149
 H         -0.141 -0.098 -0.251   -0.132  0.257 -0.149    0.065 -0.222  0.055
 N         -0.008 -0.006 -0.036   -0.000 -0.000  0.000   -0.004 -0.001 -0.004
 H          0.120  0.022  0.110    0.001  0.005  0.003    0.022  0.004  0.026
 C          0.012  0.002  0.027    0.001  0.000 -0.001    0.003  0.001  0.002
 H          0.006  0.003  0.043   -0.000 -0.000 -0.000    0.000 -0.000  0.005
 O          0.002  0.001 -0.007   -0.001 -0.000  0.001   -0.001 -0.000 -0.000
 TransDip   0.005  0.018  0.031    0.005  0.020  0.009    0.052  0.013  0.025

 Mode:                43                     44                     45
 Frequency:      1511.10                1515.74                1527.64
 Force Cnst:      1.4747                 1.4742                 1.5563
 Red. Mass:       1.0961                 1.0890                 1.1319
 IR Active:          YES                    YES                    YES
 IR Intens:        5.352                 12.962                 11.255
 Raman Active:       YES                    YES                    YES
               X      Y      Z        X      Y      Z        X      Y      Z
 C          0.008 -0.028 -0.025   -0.011  0.021  0.018   -0.011  0.030  0.020
 C         -0.001  0.005 -0.001    0.007  0.001  0.012   -0.016 -0.004  0.002
 C         -0.007 -0.029  0.022   -0.013 -0.031  0.027   -0.010 -0.032  0.021
 C          0.014 -0.039 -0.034   -0.016  0.033  0.024    0.010 -0.030 -0.016
 C          0.008  0.004  0.004   -0.005  0.001  0.004   -0.036 -0.002 -0.026
 C         -0.007 -0.034  0.031   -0.014 -0.037  0.026    0.008  0.030 -0.017
 H          0.209  0.070 -0.179    0.271  0.113 -0.207    0.251  0.093 -0.208
 H          0.003 -0.021  0.005   -0.011  0.002 -0.015    0.015  0.003  0.066
 H          0.090  0.266  0.118   -0.080 -0.225 -0.096   -0.079 -0.286 -0.092
 H         -0.223  0.058  0.194    0.202 -0.073 -0.145    0.227 -0.063 -0.194
 H          0.133  0.382  0.162   -0.113 -0.335 -0.132    0.071  0.245  0.082
 H         -0.322  0.095  0.266    0.291 -0.104 -0.208   -0.210  0.064  0.148
 H         -0.076 -0.032  0.014    0.058  0.000  0.000    0.322  0.012 -0.072
 H         -0.030 -0.005 -0.073    0.016 -0.003  0.049    0.133  0.007  0.317
 H         -0.135  0.304 -0.146   -0.142  0.345 -0.142    0.088 -0.236  0.085
 H          0.264  0.093 -0.218    0.298  0.125 -0.222   -0.203 -0.075  0.149
 H         -0.097  0.249 -0.104   -0.132  0.301 -0.138   -0.109  0.306 -0.105
 N          0.003 -0.001  0.002   -0.010 -0.002 -0.011    0.036  0.009  0.030
 H         -0.010  0.002 -0.010    0.031  0.009  0.037   -0.144 -0.035 -0.179
 C         -0.000 -0.000 -0.002    0.004  0.001  0.005   -0.021 -0.007 -0.015
 H         -0.001  0.001 -0.003    0.001  0.000  0.009   -0.002  0.001 -0.031
 O         -0.001 -0.000  0.001    0.001  0.000 -0.001    0.003  0.001  0.002
 TransDip  -0.019  0.072 -0.004    0.095  0.012 -0.064   -0.073 -0.030 -0.073

 Mode:                46                     47                     48
 Frequency:      1538.95                1741.16                2226.38
 Force Cnst:      2.2885                15.4020                 7.1106
 Red. Mass:       1.6400                 8.6229                 2.4348
 IR Active:          YES                    YES                    YES
 IR Intens:      151.867                409.251                 76.024
 Raman Active:       YES                    YES                    YES
               X      Y      Z        X      Y      Z        X      Y      Z
 C         -0.004  0.006  0.010   -0.002  0.004  0.016   -0.000  0.000 -0.000
 C          0.077  0.017  0.045    0.003  0.002 -0.035    0.001  0.000  0.002
 C         -0.004 -0.014  0.015   -0.003 -0.002  0.017   -0.000 -0.000 -0.000
 C         -0.000 -0.013 -0.017    0.002  0.004 -0.004    0.000 -0.000  0.000
 C         -0.010  0.000 -0.006   -0.001  0.000  0.001   -0.000  0.000 -0.000
 C         -0.001  0.012 -0.014    0.001 -0.005 -0.003   -0.000  0.000  0.000
 H          0.089  0.030 -0.056    0.003 -0.011 -0.023    0.001  0.001 -0.000
 H         -0.127  0.000 -0.349    0.084  0.021  0.072    0.005  0.004  0.012
 H         -0.049 -0.043 -0.074   -0.028  0.000 -0.030   -0.001 -0.001 -0.001
 H          0.093 -0.037 -0.036    0.028 -0.000 -0.021    0.003 -0.001  0.000
 H          0.061  0.128  0.079    0.006 -0.001 -0.001   -0.000  0.000 -0.000
 H         -0.113  0.025  0.103    0.003 -0.008  0.027    0.000  0.000  0.000
 H          0.098 -0.002 -0.021    0.007 -0.002 -0.002   -0.000 -0.000  0.000
 H          0.036  0.001  0.089   -0.001 -0.001  0.001    0.000 -0.000 -0.000
 H          0.064 -0.114  0.075    0.009  0.004  0.005    0.000 -0.000  0.000
 H         -0.107 -0.035  0.086    0.001  0.008  0.028    0.000 -0.000  0.000
 H         -0.063  0.048 -0.087   -0.024 -0.021 -0.019   -0.001 -0.000  0.000
 N         -0.136 -0.033 -0.113   -0.079 -0.024  0.033    0.006  0.002  0.013
 H          0.491  0.127  0.618   -0.286 -0.097 -0.207   -0.042 -0.012 -0.059
 C          0.066  0.020  0.057    0.568  0.191 -0.256    0.008  0.011 -0.203
 H          0.010 -0.002  0.114   -0.186 -0.035 -0.452    0.072 -0.022  0.973
 O         -0.004 -0.001 -0.010   -0.322 -0.113  0.237   -0.018 -0.007  0.020
 TransDip   0.307  0.084  0.234    0.621  0.185 -0.011    0.037  0.025 -0.276

 Mode:                49                     50                     51
 Frequency:      3007.59                3011.44                3013.27
 Force Cnst:      5.7053                 5.7182                 5.6940
 Red. Mass:       1.0705                 1.0702                 1.0644
 IR Active:          YES                    YES                    YES
 IR Intens:       21.494                 10.205                 32.655
 Raman Active:       YES                    YES                    YES
               X      Y      Z        X      Y      Z        X      Y      Z
 C          0.015 -0.004 -0.012    0.020 -0.001 -0.013    0.008 -0.002 -0.005
 C          0.003  0.001 -0.001   -0.002  0.000  0.000   -0.004  0.000  0.002
 C         -0.042 -0.015  0.034    0.012  0.002 -0.008    0.014  0.010 -0.014
 C          0.032 -0.008 -0.024   -0.018  0.007  0.015    0.025 -0.005 -0.017
 C          0.003  0.001  0.005    0.009  0.000 -0.023   -0.059 -0.002 -0.008
 C         -0.016 -0.006  0.013   -0.042 -0.023  0.038    0.004 -0.009  0.005
 H         -0.106  0.124 -0.032    0.010 -0.010  0.003    0.071 -0.093  0.023
 H         -0.039 -0.003  0.021    0.022 -0.000 -0.011    0.049  0.001 -0.027
 H         -0.216  0.001  0.132   -0.257  0.005  0.157   -0.107  0.002  0.063
 H          0.034  0.043  0.011    0.013  0.010  0.003    0.015  0.021  0.003
 H         -0.448  0.012  0.266    0.273 -0.008 -0.161   -0.336  0.010  0.201
 H          0.063  0.084  0.020   -0.052 -0.077 -0.018    0.034  0.051  0.006
 H         -0.008 -0.005 -0.068    0.032  0.001  0.216    0.044  0.004  0.412
 H         -0.020 -0.002  0.012   -0.143 -0.004  0.062    0.657  0.021 -0.325
 H          0.244  0.021 -0.146    0.673  0.059 -0.400    0.033 -0.001 -0.018
 H         -0.045  0.053 -0.013   -0.163  0.207 -0.054   -0.084  0.110 -0.035
 H          0.618  0.048 -0.373   -0.153 -0.013  0.092   -0.234 -0.017  0.139
 N         -0.000 -0.000 -0.000    0.000  0.000  0.000   -0.000 -0.000  0.000
 H         -0.001 -0.002 -0.002    0.001 -0.000  0.001    0.001  0.001  0.002
 C          0.000  0.000 -0.000   -0.000 -0.000  0.000    0.000  0.000  0.000
 H         -0.000  0.000 -0.000    0.000  0.000  0.000    0.000  0.000  0.000
 O          0.000 -0.000  0.000    0.000  0.000 -0.000   -0.000 -0.000 -0.000
 TransDip  -0.011 -0.142  0.042   -0.057 -0.060  0.061   -0.072 -0.046 -0.162

 Mode:                52                     53                     54
 Frequency:      3014.77                3019.28                3050.52
 Force Cnst:      5.6871                 5.7277                 6.0018
 Red. Mass:       1.0620                 1.0664                 1.0947
 IR Active:          YES                    YES                    YES
 IR Intens:       27.788                 38.368                 94.094
 Raman Active:       YES                    YES                    YES
               X      Y      Z        X      Y      Z        X      Y      Z
 C          0.006 -0.004 -0.006   -0.045  0.020  0.041   -0.004 -0.003  0.001
 C          0.003 -0.000 -0.002    0.009  0.000 -0.004    0.001  0.000 -0.000
 C         -0.023 -0.016  0.024   -0.009 -0.004  0.008   -0.005  0.004  0.001
 C         -0.021  0.028  0.029    0.005  0.003 -0.001   -0.004 -0.021 -0.011
 C         -0.027 -0.001 -0.019   -0.005 -0.000 -0.013    0.023  0.000 -0.078
 C          0.014  0.003 -0.010   -0.003 -0.022  0.015   -0.006  0.022 -0.011
 H         -0.128  0.166 -0.044   -0.027  0.035 -0.009    0.038 -0.055  0.015
 H         -0.042  0.001  0.023   -0.112 -0.005  0.062   -0.015 -0.000  0.008
 H         -0.099 -0.001  0.059    0.706 -0.005 -0.426    0.024 -0.001 -0.013
 H          0.030  0.043  0.010   -0.159 -0.233 -0.056    0.023  0.039  0.010
 H          0.451 -0.006 -0.265   -0.034  0.001  0.021   -0.097  0.000  0.054
 H         -0.208 -0.322 -0.079   -0.024 -0.040 -0.010    0.153  0.250  0.065
 H          0.045  0.008  0.363    0.024  0.002  0.173    0.114  0.011  0.756
 H          0.282  0.007 -0.143    0.040  0.003 -0.022   -0.394 -0.012  0.176
 H         -0.187 -0.016  0.113    0.204  0.013 -0.119   -0.096 -0.006  0.053
 H          0.017 -0.020  0.002   -0.175  0.240 -0.065    0.177 -0.247  0.072
 H          0.402  0.028 -0.242    0.143  0.013 -0.085    0.026  0.003 -0.015
 N          0.000  0.000 -0.000    0.000 -0.000 -0.000   -0.000 -0.000 -0.000
 H         -0.000 -0.002 -0.002   -0.001  0.001 -0.003    0.000  0.000 -0.000
 C         -0.000  0.000 -0.000    0.000  0.000 -0.000    0.000  0.000  0.000
 H         -0.000 -0.000 -0.000   -0.000 -0.000 -0.000   -0.000 -0.000 -0.000
 O          0.000  0.000 -0.000    0.000  0.000  0.000   -0.000 -0.000  0.000
 TransDip  -0.155  0.054  0.039   -0.147 -0.019  0.131   -0.031  0.000 -0.309

 Mode:                55                     56                     57
 Frequency:      3058.67                3063.68                3073.19
 Force Cnst:      6.0491                 6.0839                 6.0481
 Red. Mass:       1.0974                 1.1001                 1.0869
 IR Active:          YES                    YES                    YES
 IR Intens:       64.752                 82.482                 12.270
 Raman Active:       YES                    YES                    YES
               X      Y      Z        X      Y      Z        X      Y      Z
 C          0.006 -0.004 -0.006   -0.007  0.003  0.006    0.008  0.017  0.006
 C         -0.000  0.001  0.000    0.014  0.000 -0.007   -0.042 -0.002  0.025
 C         -0.005 -0.004  0.005   -0.007 -0.002  0.005    0.044 -0.048  0.009
 C         -0.046 -0.044 -0.001   -0.044 -0.037  0.003   -0.002 -0.007 -0.004
 C          0.000 -0.000 -0.001   -0.027 -0.001  0.025   -0.002  0.000 -0.002
 C          0.049 -0.040  0.002   -0.047  0.034  0.003   -0.006  0.006 -0.001
 H         -0.028  0.037 -0.012   -0.006  0.009 -0.002   -0.420  0.577 -0.181
 H          0.002  0.002 -0.001   -0.159 -0.006  0.089    0.521  0.018 -0.287
 H         -0.096  0.000  0.060    0.095 -0.001 -0.061    0.025  0.002 -0.011
 H          0.027  0.042  0.012   -0.015 -0.024 -0.006   -0.124 -0.197 -0.057
 H          0.218 -0.015 -0.136    0.259 -0.017 -0.158   -0.028 -0.000  0.016
 H          0.328  0.541  0.147    0.274  0.456  0.123    0.052  0.085  0.023
 H          0.001 -0.001  0.006   -0.024 -0.002 -0.141    0.004 -0.000  0.025
 H         -0.003 -0.003  0.001    0.333  0.011 -0.155    0.010  0.001 -0.005
 H         -0.220 -0.028  0.139    0.258  0.034 -0.158    0.021  0.003 -0.015
 H         -0.359  0.505 -0.153    0.304 -0.431  0.129    0.052 -0.073  0.022
 H          0.079  0.006 -0.049    0.085  0.007 -0.055   -0.104 -0.016  0.072
 N         -0.000 -0.000  0.000   -0.000 -0.000 -0.000    0.000  0.000  0.000
 H          0.000 -0.001 -0.000    0.001  0.000 -0.002   -0.006 -0.001  0.003
 C          0.000 -0.000 -0.000    0.000  0.000 -0.000   -0.001 -0.000  0.000
 H         -0.000  0.000  0.000   -0.000 -0.000 -0.001    0.000  0.000  0.001
 O          0.000 -0.000  0.000   -0.000 -0.000  0.000    0.000  0.000 -0.000
 TransDip   0.011 -0.257 -0.002   -0.288 -0.012  0.038    0.050 -0.067  0.075

 Mode:                58                     59                     60
 Frequency:      3082.21                3091.97                3591.75
 Force Cnst:      6.1148                 6.1666                 8.1936
 Red. Mass:       1.0925                 1.0948                 1.0780
 IR Active:          YES                    YES                    YES
 IR Intens:       35.115                 33.193                 19.784
 Raman Active:       YES                    YES                    YES
               X      Y      Z        X      Y      Z        X      Y      Z
 C         -0.038 -0.045 -0.007   -0.046 -0.043 -0.001    0.000  0.000 -0.000
 C          0.032  0.001 -0.018   -0.047 -0.002  0.025   -0.001  0.000 -0.001
 C          0.040 -0.033  0.002   -0.024  0.018  0.001    0.000 -0.000 -0.000
 C          0.007  0.001 -0.004   -0.006 -0.001  0.003    0.000  0.000 -0.000
 C          0.001  0.001 -0.001   -0.003  0.000  0.004    0.000  0.000 -0.000
 C         -0.001 -0.003  0.002   -0.008 -0.000  0.004    0.000 -0.000 -0.000
 H         -0.300  0.416 -0.130    0.157 -0.220  0.067   -0.000  0.001  0.000
 H         -0.388 -0.016  0.212    0.550  0.019 -0.298    0.007 -0.000 -0.007
 H          0.113 -0.008 -0.076    0.231 -0.014 -0.144    0.000 -0.001  0.001
 H          0.341  0.548  0.159    0.325  0.526  0.151   -0.000 -0.001  0.000
 H         -0.074  0.003  0.047    0.061 -0.003 -0.039   -0.000 -0.000 -0.000
 H         -0.011 -0.019 -0.004    0.008  0.013  0.003   -0.000 -0.000  0.000
 H          0.001 -0.001  0.007   -0.004 -0.001 -0.027   -0.000 -0.000 -0.000
 H         -0.018  0.001  0.008    0.039  0.002 -0.017   -0.000 -0.000  0.000
 H          0.026  0.002 -0.016    0.085  0.009 -0.055   -0.000  0.000 -0.000
 H         -0.023  0.032 -0.010    0.005 -0.006  0.001   -0.000  0.000 -0.000
 H         -0.179 -0.023  0.112    0.134  0.018 -0.081   -0.000  0.001  0.001
 N         -0.001  0.000 -0.000    0.001  0.000  0.001   -0.053 -0.016  0.048
 H          0.005 -0.000 -0.001   -0.007 -0.000 -0.000    0.712  0.215 -0.664
 C          0.001  0.000 -0.000   -0.001 -0.001  0.000    0.001  0.000  0.002
 H         -0.000 -0.000 -0.001    0.000  0.000  0.001   -0.001 -0.000 -0.003
 O         -0.000  0.000  0.000    0.000  0.000 -0.001    0.001  0.000 -0.000
 TransDip   0.042 -0.176 -0.056   -0.164 -0.037  0.077    0.122  0.040 -0.062

 STANDARD THERMODYNAMIC QUANTITIES AT   298.18 K  AND     1.00 ATM

   This Molecule has  0 Imaginary Frequencies
   Zero point vibrational energy:      122.022 kcal/mol

   Atom    1 Element C  Has Mass   12.00000
   Atom    2 Element C  Has Mass   12.00000
   Atom    3 Element C  Has Mass   12.00000
   Atom    4 Element C  Has Mass   12.00000
   Atom    5 Element C  Has Mass   12.00000
   Atom    6 Element C  Has Mass   12.00000
   Atom    7 Element H  Has Mass    1.00783
   Atom    8 Element H  Has Mass    1.00783
   Atom    9 Element H  Has Mass    1.00783
   Atom   10 Element H  Has Mass    1.00783
   Atom   11 Element H  Has Mass    1.00783
   Atom   12 Element H  Has Mass    1.00783
   Atom   13 Element H  Has Mass    1.00783
   Atom   14 Element H  Has Mass    1.00783
   Atom   15 Element H  Has Mass    1.00783
   Atom   16 Element H  Has Mass    1.00783
   Atom   17 Element H  Has Mass    1.00783
   Atom   18 Element N  Has Mass   14.00307
   Atom   19 Element H  Has Mass    1.00783
   Atom   20 Element C  Has Mass   12.00000
   Atom   21 Element H  Has Mass    2.01410
   Atom   22 Element O  Has Mass   15.99491
   Molecular Mass:   128.106042 amu
   Principal axes and moments of inertia in amu*Bohr^2:
                             1           2           3
    Eigenvalues --      547.76737  1975.87972  2192.94319
          X               0.65530     0.02070     0.75508
          Y               0.12809     0.98210    -0.13809
          Z               0.74443    -0.18720    -0.64092
   Rotational Symmetry Number is   1
   The Molecule is an Asymmetric Top
   Translational Enthalpy:        0.889 kcal/mol
   Rotational Enthalpy:           0.889 kcal/mol
   Vibrational Enthalpy:        125.885 kcal/mol
   gas constant (RT):             0.593 kcal/mol
   Translational Entropy:        40.457  cal/mol.K
   Rotational Entropy:           29.252  cal/mol.K
   Vibrational Entropy:          25.157  cal/mol.K

   Total Enthalpy:              128.255 kcal/mol
   Total Entropy:                94.866  cal/mol.K
Archival summary:
1\1\node025\FREQ\ProcedureUnspecified\6-31+G*\11713\ymao90\SunMar704:38:442021SunMar704:38:442021\0\\#,FREQ,ProcedureUnspecified,6-31+G*,\\0,1\N\H,1,1.01353\C,1,1.36296,2,117.761\H,3,1.10478,1,112.74,2,3.15291,0\O,3,1.22476,1,124.881,2,-177.293,0\C,1,1.46106,2,119.026,3,-175.757,0\H,6,1.09571,1,104.95,2,-167.735,0\C,6,1.53722,1,111.255,2,-50.0897,0\H,8,1.09692,6,109.56,1,-56.3368,0\H,8,1.10158,6,109.396,1,60.4771,0\C,8,1.53843,6,111.053,1,-178.787,0\H,11,1.09813,8,109.854,6,-177.866,0\H,11,1.101,8,108.923,6,65.8106,0\C,11,1.53769,8,111.822,6,-54.9675,0\H,14,1.09929,11,110.105,8,176.771,0\H,14,1.10057,11,109.191,8,-66.5902,0\C,14,1.53745,11,111.445,8,54.124,0\H,17,1.09817,14,110.366,11,-176.727,0\H,17,1.10103,14,109.274,11,66.4693,0\C,17,1.53766,14,111.606,11,-54.1566,0\H,20,1.09632,17,110.707,14,176.742,0\H,20,1.10092,17,109.6,14,-65.5411,0\\\@

 Total job time:  5115.85s(wall), 80986.38s(cpu) 
 Sun Mar  7 04:38:44 2021

        *************************************************************
        *                                                           *
        *  Thank you very much for using Q-Chem.  Have a nice day.  *
        *                                                           *
        *************************************************************


