                  Welcome to Q-Chem
     A Quantum Leap Into The Future Of Chemistry


 Q-Chem 5.2 (devel), Q-Chem, Inc., Pleasanton, CA (2019)

 Yihan Shao,  Zhengting Gan,  E. Epifanovsky,  A. T. B. Gilbert,  M. Wormit,  
 J. Kussmann,  A. W. Lange,  A. Behn,  Jia Deng,  Xintian Feng,  D. Ghosh,  
 M. Goldey,  P. R. Horn,  L. D. Jacobson,  I. Kaliman,  T. Kus,  A. Landau,  
 Jie Liu,  E. I. Proynov,  R. M. Richard,  R. P. Steele,  E. J. Sundstrom,  
 H. L. Woodcock III,  P. M. Zimmerman,  D. Zuev,  B. Alam,  B. Albrecht,  
 E. Alguire,  S. A. Baeppler,  D. Barton,  Z. Benda,  Y. A. Bernard,  
 E. J. Berquist,  K. B. Bravaya,  H. Burton,  K. Carter-Fenk,  D. Casanova,  
 Chun-Min Chang,  Yunqing Chen,  A. Chien,  K. D. Closser,  M. P. Coons,  
 S. Coriani,  S. Dasgupta,  A. L. Dempwolff,  M. Diedenhofen,  Hainam Do,  
 R. G. Edgar,  Po-Tung Fang,  S. Faraji,  S. Fatehi,  Qingguo Feng,  
 J. Fosso-Tande,  J. Gayvert,  Qinghui Ge,  A. Ghysels,  G. Gidofalvi,  
 J. Gomes,  J. Gonthier,  A. Gunina,  D. Hait,  M. W. D. Hanson-Heine,  
 P. H. P. Harbach,  A. W. Hauser,  M. F. Herbst,  J. E. Herr,  
 E. G. Hohenstein,  Z. C. Holden,  Kerwin Hui,  B. C. Huynh,  T.-C. Jagau,  
 Hyunjun Ji,  B. Kaduk,  K. Khistyaev,  Jaehoon Kim,  P. Klunzinger,  K. Koh,  
 D. Kosenkov,  L. Koulias,  T. Kowalczyk,  C. M. Krauter,  A. Kunitsa,  
 Ka Un Lao,  A. Laurent,  K. V. Lawler,  Joonho Lee,  D. Lefrancois,  
 S. Lehtola,  D. S. Levine,  Yi-Pei Li,  You-Sheng Lin,  Fenglai Liu,  
 Kuan-Yu Liu,  E. Livshits,  M. Loipersberger,  A. Luenser,  P. Manohar,  
 E. Mansoor,  S. F. Manzer,  Shan-Ping Mao,  Yuezhi Mao,  N. Mardirossian,  
 A. V. Marenich,  T. Markovich,  L. A. Martinez-Martinez,  S. A. Maurer,  
 N. J. Mayhall,  S. C. McKenzie,  J.-M. Mewes,  P. Morgante,  A. F. Morrison,  
 J. W. Mullinax,  K. Nanda,  T. S. Nguyen-Beck,  R. Olivares-Amaya,  
 J. A. Parkhill,  S. K. Paul,  F. Pavosevic,  Zheng Pei,  T. M. Perrine,  
 F. Plasser,  P. Pokhilko,  S. Prager,  A. Prociuk,  E. Ramos,  B. Rana,  
 D. R. Rehn,  F. Rob,  M. Scheurer,  M. Schneider,  N. Sergueev,  
 S. M. Sharada,  S. Sharma,  D. W. Small,  T. Stauch,  C. J. Stein,  
 T. Stein,  Yu-Chuan Su,  S. P. Veccham,  Zhen Tao,  A. J. W. Thom,  
 A. Tkatchenko,  T. Tsuchimochi,  N. M. Tubman,  L. Vogt,  M. L. Vidal,  
 O. Vydrov,  M. A. Watson,  J. Wenzel,  M. de Wergifosse,  T. A. Wesolowski,  
 A. White,  J. Witte,  A. Yamada,  Jun Yang,  K. Yao,  S. Yeganeh,  
 S. R. Yost,  Zhi-Qiang You,  A. Zech,  Igor Ying Zhang,  Xing Zhang,  
 Yan Zhao,  Ying Zhu,  B. R. Brooks,  G. K. L. Chan,  C. J. Cramer,  
 M. S. Gordon,  W. J. Hehre,  A. Klamt,  M. W. Schmidt,  C. D. Sherrill,  
 D. G. Truhlar,  A. Aspuru-Guzik,  R. Baer,  A. T. Bell,  N. A. Besley,  
 Jeng-Da Chai,  A. E. DePrince, III,  R. A. DiStasio Jr.,  A. Dreuw,  
 B. D. Dunietz,  T. R. Furlani,  Chao-Ping Hsu,  Yousung Jung,  Jing Kong,  
 D. S. Lambrecht,  WanZhen Liang,  C. Ochsenfeld,  V. A. Rassolov,  
 L. V. Slipchenko,  J. E. Subotnik,  T. Van Voorhis,  J. M. Herbert,  
 A. I. Krylov,  P. M. W. Gill,  M. Head-Gordon

 Contributors to earlier versions of Q-Chem not listed above: 
 R. D. Adamson,  B. Austin,  J. Baker,  G. J. O. Beran,  K. Brandhorst,  
 S. T. Brown,  E. F. C. Byrd,  A. K. Chakraborty,  C.-L. Cheng,  
 Siu Hung Chien,  D. M. Chipman,  D. L. Crittenden,  H. Dachsel,  
 R. J. Doerksen,  A. D. Dutoi,  L. Fusti-Molnar,  W. A. Goddard III,  
 A. Golubeva-Zadorozhnaya,  S. R. Gwaltney,  G. Hawkins,  A. Heyden,  
 S. Hirata,  G. Kedziora,  F. J. Keil,  C. Kelley,  Jihan Kim,  R. A. King,  
 R. Z. Khaliullin,  P. P. Korambath,  W. Kurlancheek,  A. M. Lee,  M. S. Lee,  
 S. V. Levchenko,  Ching Yeh Lin,  D. Liotard,  R. C. Lochan,  I. Lotan,  
 P. E. Maslen,  N. Nair,  D. P. O'Neill,  D. Neuhauser,  E. Neuscamman,  
 C. M. Oana,  R. Olson,  B. Peters,  R. Peverati,  P. A. Pieniazek,  
 Y. M. Rhee,  J. Ritchie,  M. A. Rohrdanz,  E. Rosta,  N. J. Russ,  
 H. F. Schaefer III,  N. E. Schultz,  N. Shenvi,  A. C. Simmonett,  A. Sodt,  
 D. Stuck,  K. S. Thanthiriwatte,  V. Vanovschi,  Tao Wang,  A. Warshel,  
 C. F. Williams,  Q. Wu,  X. Xu,  W. Zhang

 Please cite Q-Chem as follows:
 Y. Shao et al., Mol. Phys. 113, 184-215 (2015)
 DOI: 10.1080/00268976.2014.952696

 Q-Chem 5.2.2 for Intel X86 EM64T Linux

 Parts of Q-Chem use Armadillo 9.800.1 (Horizon Scraper).
 http://arma.sourceforge.net/

 Q-Chem begins on Sun Mar  7 04:26:25 2021  

Host: node026
0

     Scratch files written to /home/ymao90/scratch/CCX_CD_+6020210307030514//

Checking the input file for inconsistencies... 	...done.

--------------------------------------------------------------
User input:
--------------------------------------------------------------
$molecule
0 1
C     -2.4083508923    0.9984834764   -2.3662547437
C     -1.5543120384   -0.2118403749   -1.9459885704
C     -2.2384976761   -1.5367925874   -2.3261896725
C     -2.5867463449   -1.5816552836   -3.8234193167
C     -3.4377297730   -0.3731774783   -4.2445934317
C     -2.7551397527    0.9499468362   -3.8636626912
H     -1.5849547626   -2.3750094827   -2.0545927530
H     -0.5831065672   -0.1532425547   -2.4485260558
H     -3.3388117820    1.0024650072   -1.7759883684
H     -1.8720534969    1.9234708349   -2.1213670712
H     -1.6555784977   -1.5918293252   -4.4093866053
H     -3.1102152921   -2.5181807775   -4.0551406051
H     -3.6290653549   -0.4033428377   -5.3251377272
H     -4.4201020066   -0.4306546907   -3.7508934023
H     -1.8320207629    1.0648782183   -4.4511997179
H     -3.3973970401    1.8010825553   -4.1242295555
H     -3.1618885583   -1.6469527918   -1.7346449512
N     -1.2474445251   -0.1731895513   -0.5151412109
H     -2.0131265263   -0.2687147311    0.1418849346
C      0.0000000000    0.0000000000    0.0000000000
H      0.0000000000    0.0000000000    1.1070732462
O      1.0278769477    0.1402881570   -0.6492362509
$end

$rem
JOBTYPE  OPT
METHOD  B3LYP
BASIS  6-31+G(D)
SYMMETRY  FALSE
SYM_IGNORE  TRUE
MEM_TOTAL  8000
MEM_STATIC  2000
MAX_SUB_FILE_NUM  16000
BASIS_LIN_DEP_THRESH  6
THRESH  14
SCF_CONVERGENCE  9
GEN_SCFMAN  TRUE
SCF_GUESS  SAD
FD_MAT_VEC_PROD  FALSE
XC_GRID  000099000590
NL_GRID  1
MAX_SCF_CYCLES  200
GEOM_OPT_TOL_GRADIENT  100
GEOM_OPT_TOL_DISPLACEMENT  100
GEOM_OPT_TOL_ENERGY  10
$end

$multipole_field
Z   -0.011669
$end


--------------------------------------------------------------
 ----------------------------------------------------------------
             Standard Nuclear Orientation (Angstroms)
    I     Atom           X                Y                Z
 ----------------------------------------------------------------
    1      C      -2.4083508923     0.9984834764    -2.3662547437
    2      C      -1.5543120384    -0.2118403749    -1.9459885704
    3      C      -2.2384976761    -1.5367925874    -2.3261896725
    4      C      -2.5867463449    -1.5816552836    -3.8234193167
    5      C      -3.4377297730    -0.3731774783    -4.2445934317
    6      C      -2.7551397527     0.9499468362    -3.8636626912
    7      H      -1.5849547626    -2.3750094827    -2.0545927530
    8      H      -0.5831065672    -0.1532425547    -2.4485260558
    9      H      -3.3388117820     1.0024650072    -1.7759883684
   10      H      -1.8720534969     1.9234708349    -2.1213670712
   11      H      -1.6555784977    -1.5918293252    -4.4093866053
   12      H      -3.1102152921    -2.5181807775    -4.0551406051
   13      H      -3.6290653549    -0.4033428377    -5.3251377272
   14      H      -4.4201020066    -0.4306546907    -3.7508934023
   15      H      -1.8320207629     1.0648782183    -4.4511997179
   16      H      -3.3973970401     1.8010825553    -4.1242295555
   17      H      -3.1618885583    -1.6469527918    -1.7346449512
   18      N      -1.2474445251    -0.1731895513    -0.5151412109
   19      H      -2.0131265263    -0.2687147311     0.1418849346
   20      C       0.0000000000     0.0000000000     0.0000000000
   21      H       0.0000000000     0.0000000000     1.1070732462
   22      O       1.0278769477     0.1402881570    -0.6492362509
 ----------------------------------------------------------------
 Nuclear Repulsion Energy =         466.63298041 hartrees
 There are       35 alpha and       35 beta electrons
 Requested basis set is 6-31+G(d)
 There are 71 shells and 197 basis functions

 Total QAlloc Memory Limit   8000 MB
 Mega-Array Size      1956 MB
 MEM_STATIC part      2000 MB
 Applying Cartesian multipole field
    Component          Value
    ---------          -----
     (0,0,1)       -1.16690E-02
 Nucleus-field energy     =     3.4228485067 hartrees
 A cutoff of  1.0D-14 yielded   2413 shell pairs
 There are     18998 function pairs
 Smallest overlap matrix eigenvalue = 2.48E-05
 Guess from superposition of atomic densities
 Warning:  Energy on first SCF cycle will be non-variational
 SAD guess density has 70.000000 electrons

 -----------------------------------------------------------------------
  General SCF calculation program by
  Eric Jon Sundstrom, Paul Horn, Yuezhi Mao, Dmitri Zuev, Alec White,
  David Stuck, Shaama M.S., Shane Yost, Joonho Lee, David Small,
  Daniel Levine, Susi Lehtola, Hugh Burton, Evgeny Epifanovsky,
  Bang C. Huynh
 -----------------------------------------------------------------------
 Exchange:     0.2000 Hartree-Fock + 0.0800 Slater + 0.7200 B88
 Correlation:  0.1900 VWN1RPA + 0.8100 LYP
 Using Euler-Maclaurin-Lebedev (99,590) quadrature formula
 using 16 threads for integral computing
 -------------------------------------------------------
 OpenMP Integral computing Module                
 Release: version 2.0, May 2017, Q-Chem Inc. Pleasanton 
 -------------------------------------------------------
 A restricted SCF calculation will be
 performed using DIIS
 SCF converges when DIIS error is below 1.0e-09
 ---------------------------------------
  Cycle       Energy         DIIS error
 ---------------------------------------
    1    -406.2319617863      5.08e-02  
    2    -404.3782124275      6.76e-03  
    3    -403.9754089119      1.21e-02  
    4    -404.5649488020      2.65e-03  
    5    -404.5926617714      6.67e-04  
    6    -404.5944224277      1.89e-04  
    7    -404.5945649955      6.82e-05  
    8    -404.5945848124      1.25e-05  
    9    -404.5945854344      4.36e-06  
   10    -404.5945855142      7.85e-07  
   11    -404.5945855167      3.08e-07  
   12    -404.5945855171      4.95e-08  
   13    -404.5945855171      1.31e-08  
   14    -404.5945855171      4.71e-09  
   15    -404.5945855171      1.33e-09  
   16    -404.5945855171      2.89e-10  Convergence criterion met
 ---------------------------------------
 SCF time:   CPU 785.14s  wall 49.00s 
 SCF   energy in the final basis set =     -404.5945855171
 Total energy in the final basis set =     -404.5945855171
 
 --------------------------------------------------------------
 
                    Orbital Energies (a.u.)
 --------------------------------------------------------------
 
 Alpha MOs
 -- Occupied --
-19.1460 -14.3969 -10.3073 -10.2789 -10.2731 -10.2679 -10.2679 -10.2482
-10.2475  -1.0573  -0.9625  -0.8989  -0.8179  -0.8079  -0.6954  -0.6867
 -0.6374  -0.6270  -0.5719  -0.5422  -0.5184  -0.5158  -0.5066  -0.4705
 -0.4675  -0.4556  -0.4361  -0.4215  -0.4207  -0.4141  -0.4000  -0.3860
 -0.3786  -0.2881  -0.2798
 -- Virtual --
 -0.1073  -0.0788  -0.0708  -0.0507  -0.0276  -0.0238  -0.0180  -0.0141
 -0.0078  -0.0015   0.0150   0.0180   0.0276   0.0326   0.0377   0.0390
  0.0424   0.0660   0.0756   0.0828   0.0844   0.0872   0.0984   0.0992
  0.1038   0.1185   0.1230   0.1257   0.1371   0.1385   0.1529   0.1561
  0.1628   0.1679   0.1745   0.1850   0.2054   0.2116   0.2145   0.2195
  0.2253   0.2328   0.2417   0.2485   0.2537   0.2577   0.2755   0.2786
  0.2842   0.2935   0.2952   0.3091   0.3175   0.3436   0.3523   0.3648
  0.3972   0.4030   0.4738   0.5396   0.5619   0.5737   0.5856   0.6040
  0.6051   0.6303   0.6503   0.6667   0.6893   0.6949   0.7226   0.7272
  0.7428   0.7531   0.7791   0.7854   0.8039   0.8723   0.8928   0.8950
  0.9193   0.9231   0.9501   0.9798   0.9903   1.0007   1.0232   1.0254
  1.0463   1.0488   1.0645   1.0750   1.0994   1.1064   1.1209   1.1319
  1.1805   1.2347   1.2676   1.2907   1.3198   1.3235   1.3323   1.3609
  1.4379   1.4440   1.4473   1.4961   1.5335   1.5714   1.6564   1.6604
  1.6684   1.6925   1.7329   1.7538   1.8185   1.8235   1.8329   1.8383
  1.8476   1.9035   1.9152   1.9401   1.9438   1.9814   1.9990   2.0204
  2.0354   2.0822   2.1357   2.1648   2.2219   2.2624   2.2674   2.2790
  2.3220   2.3420   2.3432   2.3703   2.3909   2.5166   2.5352   2.5721
  2.5953   2.6405   2.6491   2.6816   2.7256   2.7748   2.8310   2.9947
  3.1668   4.0483   4.1371   4.2059   4.2185   4.2740   4.4020   4.5157
  4.5329   4.6149
 --------------------------------------------------------------
 
          Ground-State Mulliken Net Atomic Charges

     Atom                 Charge (a.u.)
  ----------------------------------------
      1 C                    -0.211434
      2 C                    -0.554652
      3 C                    -0.241395
      4 C                    -0.445855
      5 C                    -0.369106
      6 C                    -0.448405
      7 H                     0.225931
      8 H                     0.229266
      9 H                     0.216410
     10 H                     0.225147
     11 H                     0.180478
     12 H                     0.183801
     13 H                     0.147432
     14 H                     0.208521
     15 H                     0.180445
     16 H                     0.182560
     17 H                     0.215858
     18 N                    -0.387996
     19 H                     0.420550
     20 C                     0.344272
     21 H                     0.200394
     22 O                    -0.502221
  ----------------------------------------
  Sum of atomic charges =     0.000000

 -----------------------------------------------------------------
                    Cartesian Multipole Moments
 -----------------------------------------------------------------
    Charge (ESU x 10^10)
                 0.0000
    Dipole Moment (Debye)
         X      -3.7823      Y      -0.5132      Z       3.0867
       Tot       4.9088
    Quadrupole Moments (Debye-Ang)
        XX     -56.7452     XY       0.0694     YY     -57.2142
        XZ      -2.4853     YZ      -0.1840     ZZ     -65.3929
    Octopole Moments (Debye-Ang^2)
       XXX     294.1492    XXY      10.1683    XYY     102.5678
       YYY      36.1455    XXZ     148.1683    XYZ       1.7312
       YYZ     133.4042    XZZ     129.6864    YZZ      14.7491
       ZZZ     448.4501
    Hexadecapole Moments (Debye-Ang^3)
      XXXX   -1791.0891   XXXY     -87.3009   XXYY    -370.0338
      XYYY     -90.4577   YYYY    -405.7613   XXXZ   -1051.6818
      XXYZ     -42.4552   XYYZ    -339.4174   YYYZ    -115.6973
      XXZZ    -854.9336   XYZZ     -39.3893   YYZZ    -539.7379
      XZZZ   -1174.8823   YZZZ    -131.4920   ZZZZ   -3007.3174
 -----------------------------------------------------------------
 Calculating analytic gradient of the SCF energy
 Gradient of SCF Energy
            1           2           3           4           5           6
    1   0.0007657  -0.0015354   0.0007969   0.0007569  -0.0001146   0.0007719
    2   0.0001080  -0.0001342   0.0000702   0.0002099  -0.0000128  -0.0002133
    3  -0.0006045  -0.0063233  -0.0005975  -0.0012556  -0.0017814  -0.0012656
            7           8           9          10          11          12
    1   0.0006383  -0.0010987  -0.0010037   0.0005242  -0.0013868   0.0008155
    2  -0.0004600  -0.0001222  -0.0005456   0.0004932  -0.0004383   0.0008760
    3  -0.0000908   0.0000220   0.0006330  -0.0001049   0.0008065   0.0001899
           13          14          15          16          17          18
    1   0.0008118  -0.0006598  -0.0014658   0.0009717  -0.0010862   0.0057614
    2   0.0001131  -0.0000422   0.0002951  -0.0008108   0.0004485   0.0007365
    3   0.0031987  -0.0001169   0.0007961   0.0002611   0.0006451   0.0075928
           19          20          21          22
    1  -0.0000811  -0.0048889  -0.0003284   0.0010350
    2  -0.0000073  -0.0006041  -0.0000622   0.0001024
    3  -0.0013641  -0.0099658   0.0025800   0.0067452
 Max gradient component =       9.966E-03
 RMS gradient           =       2.297E-03
 Gradient time:  CPU 124.33 s  wall 7.91 s
 Geometry Optimization Parameters
   NAtoms,    NIC,     NZ,  NCons,   NDum,   NFix, NCnnct, MaxDiis
       22     172       0       0       0       0       0       0


** GEOMETRY OPTIMIZATION IN DELOCALIZED INTERNAL COORDINATES **
   Searching for a Minimum

   Optimization Cycle:   1

                       Coordinates (Angstroms)
     ATOM                X               Y               Z
      1  C        -2.4083508923    0.9984834764   -2.3662547437
      2  C        -1.5543120384   -0.2118403749   -1.9459885704
      3  C        -2.2384976761   -1.5367925874   -2.3261896725
      4  C        -2.5867463449   -1.5816552836   -3.8234193167
      5  C        -3.4377297730   -0.3731774783   -4.2445934317
      6  C        -2.7551397527    0.9499468362   -3.8636626912
      7  H        -1.5849547626   -2.3750094827   -2.0545927530
      8  H        -0.5831065672   -0.1532425547   -2.4485260558
      9  H        -3.3388117820    1.0024650072   -1.7759883684
     10  H        -1.8720534969    1.9234708349   -2.1213670712
     11  H        -1.6555784977   -1.5918293252   -4.4093866053
     12  H        -3.1102152921   -2.5181807775   -4.0551406051
     13  H        -3.6290653549   -0.4033428377   -5.3251377272
     14  H        -4.4201020066   -0.4306546907   -3.7508934023
     15  H        -1.8320207629    1.0648782183   -4.4511997179
     16  H        -3.3973970401    1.8010825553   -4.1242295555
     17  H        -3.1618885583   -1.6469527918   -1.7346449512
     18  N        -1.2474445251   -0.1731895513   -0.5151412109
     19  H        -2.0131265263   -0.2687147311    0.1418849346
     20  C         0.0000000000    0.0000000000    0.0000000000
     21  H         0.0000000000    0.0000000000    1.1070732462
     22  O         1.0278769477    0.1402881570   -0.6492362509
   Point Group: c1    Number of degrees of freedom:    60


   Energy is   -404.594585517


 Attempting to generate delocalized internal coordinates
 Initial Hessian constructed with Jon Baker's OPTIMIZE code

 60 Hessian modes will be used to form the next step
  Hessian Eigenvalues:
     0.005967    0.006024    0.006964    0.007193    0.012605    0.019501
     0.019786    0.020845    0.020845    0.037215    0.038526    0.039417
     0.041724    0.048166    0.048450    0.048891    0.055292    0.055631
     0.055746    0.059934    0.066958    0.081508    0.081536    0.081616
     0.082032    0.082133    0.084029    0.087513    0.120967    0.121178
     0.142989    0.159989    0.160000    0.160554    0.174868    0.210947
     0.220000    0.220003    0.272263    0.272658    0.275535    0.286789
     0.287121    0.287175    0.329119    0.334466    0.334727    0.335769
     0.336541    0.336553    0.339301    0.339441    0.339454    0.340119
     0.340274    0.342312    0.364811    0.454000    0.528079    0.937134

 Minimum search - taking simple RFO step
 Searching for Lamda that Minimizes Along All modes
 Value Taken    Lamda =  -0.00234333
 Step Taken.  Stepsize is  0.232404

                             Maximum     Tolerance    Cnvgd?
         Gradient           0.016150      0.000100      NO
         Displacement       0.142187      0.000100      NO
         Energy change     *********      0.000000      NO


 New Cartesian Coordinates Obtained by Inverse Iteration

 Displacement from previous Coordinates is:  0.743409
 ----------------------------------------------------------------
             Standard Nuclear Orientation (Angstroms)
    I     Atom           X                Y                Z
 ----------------------------------------------------------------
    1      C      -2.4563954499     0.9919246906    -2.3324683216
    2      C      -1.6081738059    -0.2182760410    -1.9019134640
    3      C      -2.2881031316    -1.5409138385    -2.2959654895
    4      C      -2.5695668360    -1.5835425559    -3.8085869885
    5      C      -3.3926689471    -0.3688938039    -4.2727849742
    6      C      -2.7368581335     0.9558284055    -3.8451543446
    7      H      -1.6489472439    -2.3802885557    -1.9993638608
    8      H      -0.6381878714    -0.1591800554    -2.4098191813
    9      H      -3.4065978841     0.9897283437    -1.7782008835
   10      H      -1.9335479716     1.9154372847    -2.0591422558
   11      H      -1.6083800699    -1.5935862359    -4.3494373382
   12      H      -3.0855041471    -2.5189377046    -4.0682873482
   13      H      -3.5260159734    -0.3936048072    -5.3674290461
   14      H      -4.3989571107    -0.4287990273    -3.8330544099
   15      H      -1.7838800961     1.0766171545    -4.3872144274
   16      H      -3.3704299765     1.8079329045    -4.1305414748
   17      H      -3.2317185982    -1.6498222794    -1.7407792918
   18      N      -1.2597339047    -0.1758122168    -0.4885869701
   19      H      -1.9862424889    -0.2673698526     0.2137287973
   20      C       0.0265474430     0.0034672305    -0.0702770500
   21      H       0.1334989531     0.0177359748     1.0276900138
   22      O       0.9711985418     0.1363876037    -0.8390462106
 ----------------------------------------------------------------
 Nuclear Repulsion Energy =         468.33387016 hartrees
 There are       35 alpha and       35 beta electrons
 Applying Cartesian multipole field
    Component          Value
    ---------          -----
     (0,0,1)       -1.16690E-02
 Nucleus-field energy     =     3.4438976101 hartrees
 Requested basis set is 6-31+G(d)
 There are 71 shells and 197 basis functions
 A cutoff of  1.0D-14 yielded   2417 shell pairs
 There are     19038 function pairs
 Smallest overlap matrix eigenvalue = 2.55E-05
 Guess MOs from SCF MO coefficient file

 -----------------------------------------------------------------------
  General SCF calculation program by
  Eric Jon Sundstrom, Paul Horn, Yuezhi Mao, Dmitri Zuev, Alec White,
  David Stuck, Shaama M.S., Shane Yost, Joonho Lee, David Small,
  Daniel Levine, Susi Lehtola, Hugh Burton, Evgeny Epifanovsky,
  Bang C. Huynh
 -----------------------------------------------------------------------
 Exchange:     0.2000 Hartree-Fock + 0.0800 Slater + 0.7200 B88
 Correlation:  0.1900 VWN1RPA + 0.8100 LYP
 Using Euler-Maclaurin-Lebedev (99,590) quadrature formula
 using 16 threads for integral computing
 -------------------------------------------------------
 OpenMP Integral computing Module                
 Release: version 2.0, May 2017, Q-Chem Inc. Pleasanton 
 -------------------------------------------------------
 A restricted SCF calculation will be
 performed using DIIS
 SCF converges when DIIS error is below 1.0e-09
 ---------------------------------------
  Cycle       Energy         DIIS error
 ---------------------------------------
    1    -404.5822286620      1.32e-03  
    2    -404.5955994190      2.06e-04  
    3    -404.5953329600      3.46e-04  
    4    -404.5958017750      6.90e-05  
    5    -404.5958175109      2.21e-05  
    6    -404.5958195848      3.12e-06  
    7    -404.5958196229      1.38e-06  
    8    -404.5958196320      2.17e-07  
    9    -404.5958196321      1.01e-07  
   10    -404.5958196321      1.44e-08  
   11    -404.5958196321      6.53e-09  
   12    -404.5958196321      9.81e-10  Convergence criterion met
 ---------------------------------------
 SCF time:   CPU 591.62s  wall 37.00s 
 SCF   energy in the final basis set =     -404.5958196321
 Total energy in the final basis set =     -404.5958196321
 
 --------------------------------------------------------------
 
                    Orbital Energies (a.u.)
 --------------------------------------------------------------
 
 Alpha MOs
 -- Occupied --
-19.1484 -14.3965 -10.3098 -10.2743 -10.2725 -10.2668 -10.2666 -10.2458
-10.2449  -1.0612  -0.9609  -0.8965  -0.8155  -0.8051  -0.6933  -0.6843
 -0.6363  -0.6270  -0.5717  -0.5410  -0.5185  -0.5137  -0.5052  -0.4690
 -0.4672  -0.4537  -0.4386  -0.4212  -0.4172  -0.4131  -0.3974  -0.3839
 -0.3769  -0.2883  -0.2833
 -- Virtual --
 -0.1060  -0.0777  -0.0693  -0.0499  -0.0252  -0.0225  -0.0164  -0.0113
 -0.0072  -0.0055   0.0166   0.0189   0.0294   0.0345   0.0380   0.0400
  0.0432   0.0657   0.0725   0.0844   0.0855   0.0874   0.0998   0.1019
  0.1044   0.1210   0.1230   0.1264   0.1375   0.1390   0.1549   0.1585
  0.1616   0.1713   0.1753   0.1868   0.2066   0.2104   0.2144   0.2215
  0.2256   0.2345   0.2409   0.2501   0.2546   0.2597   0.2754   0.2779
  0.2855   0.2944   0.2970   0.3091   0.3171   0.3455   0.3469   0.3653
  0.3984   0.4019   0.4687   0.5435   0.5632   0.5793   0.5868   0.6071
  0.6081   0.6343   0.6509   0.6697   0.6908   0.7020   0.7287   0.7311
  0.7362   0.7546   0.7798   0.7854   0.8031   0.8645   0.8932   0.8968
  0.9158   0.9263   0.9517   0.9818   0.9872   1.0010   1.0214   1.0255
  1.0453   1.0507   1.0605   1.0817   1.1020   1.1070   1.1206   1.1306
  1.1754   1.2351   1.2688   1.2907   1.3209   1.3225   1.3436   1.3606
  1.4326   1.4444   1.4507   1.4873   1.5328   1.5557   1.6598   1.6722
  1.6788   1.7002   1.7389   1.7516   1.8133   1.8233   1.8390   1.8425
  1.8546   1.8939   1.9280   1.9424   1.9454   1.9833   2.0066   2.0189
  2.0468   2.0918   2.1426   2.1765   2.2247   2.2634   2.2721   2.2821
  2.3195   2.3432   2.3449   2.3677   2.3957   2.5136   2.5420   2.5681
  2.5941   2.6346   2.6509   2.6831   2.7296   2.7772   2.8351   2.9958
  3.1528   4.0493   4.1391   4.2070   4.2183   4.2729   4.3916   4.5217
  4.5369   4.6195
 --------------------------------------------------------------
 
          Ground-State Mulliken Net Atomic Charges

     Atom                 Charge (a.u.)
  ----------------------------------------
      1 C                    -0.223768
      2 C                    -0.547058
      3 C                    -0.257498
      4 C                    -0.431091
      5 C                    -0.374434
      6 C                    -0.432498
      7 H                     0.225726
      8 H                     0.234596
      9 H                     0.215981
     10 H                     0.225190
     11 H                     0.182296
     12 H                     0.181434
     13 H                     0.145511
     14 H                     0.206359
     15 H                     0.182467
     16 H                     0.180245
     17 H                     0.215829
     18 N                    -0.396470
     19 H                     0.421934
     20 C                     0.339199
     21 H                     0.205823
     22 O                    -0.499775
  ----------------------------------------
  Sum of atomic charges =     0.000000

 -----------------------------------------------------------------
                    Cartesian Multipole Moments
 -----------------------------------------------------------------
    Charge (ESU x 10^10)
                -0.0000
    Dipole Moment (Debye)
         X      -3.5175      Y      -0.4869      Z       3.5831
       Tot       5.0446
    Quadrupole Moments (Debye-Ang)
        XX     -56.8018     XY       0.0693     YY     -57.3102
        XZ      -2.3906     YZ      -0.1616     ZZ     -66.4764
    Octopole Moments (Debye-Ang^2)
       XXX     297.2668    XXY      10.3428    XYY     103.3169
       YYY      36.4001    XXZ     150.3533    XYZ       1.9016
       YYZ     134.4984    XZZ     130.7252    YZZ      14.8587
       ZZZ     453.4361
    Hexadecapole Moments (Debye-Ang^3)
      XXXX   -1794.7068   XXXY     -87.7200   XXYY    -370.9072
      XYYY     -90.8688   YYYY    -407.3758   XXXZ   -1047.5300
      XXYZ     -42.4489   XYYZ    -337.7469   YYYZ    -115.2742
      XXZZ    -857.4883   XYZZ     -39.8349   YYZZ    -540.0428
      XZZZ   -1173.3370   YZZZ    -131.5168   ZZZZ   -3013.4787
 -----------------------------------------------------------------
 Calculating analytic gradient of the SCF energy
 Gradient of SCF Energy
            1           2           3           4           5           6
    1   0.0001396  -0.0018321   0.0002274  -0.0004215   0.0004458  -0.0004077
    2   0.0001834   0.0000141  -0.0003086  -0.0001892   0.0000361   0.0000834
    3  -0.0003669  -0.0007485  -0.0005303   0.0001617  -0.0006227   0.0001428
            7           8           9          10          11          12
    1   0.0000300   0.0006151   0.0001877   0.0000363   0.0001202   0.0003373
    2   0.0001852   0.0000272  -0.0001398  -0.0001429   0.0000618  -0.0001256
    3   0.0000404   0.0009952   0.0001850   0.0000563  -0.0002211   0.0000039
           13          14          15          16          17          18
    1   0.0000689   0.0003604   0.0001337   0.0003098   0.0001442   0.0046416
    2   0.0000402   0.0000241  -0.0000320   0.0001939   0.0001801   0.0007075
    3   0.0000557  -0.0001545  -0.0002167   0.0000301   0.0001825  -0.0000847
           19          20          21          22
    1  -0.0006108   0.0001156  -0.0005250  -0.0041166
    2  -0.0000604  -0.0002789   0.0000381  -0.0004977
    3  -0.0002500  -0.0007674   0.0013112   0.0007981
 Max gradient component =       4.642E-03
 RMS gradient           =       8.766E-04
 Gradient time:  CPU 123.07 s  wall 9.68 s
 Geometry Optimization Parameters
   NAtoms,    NIC,     NZ,  NCons,   NDum,   NFix, NCnnct, MaxDiis
       22     172       0       0       0       0       0       0

 Cartesian Hessian Update
 Hessian updated using BFGS update


** GEOMETRY OPTIMIZATION IN DELOCALIZED INTERNAL COORDINATES **
   Searching for a Minimum

   Optimization Cycle:   2

                       Coordinates (Angstroms)
     ATOM                X               Y               Z
      1  C        -2.4563954499    0.9919246906   -2.3324683216
      2  C        -1.6081738059   -0.2182760410   -1.9019134640
      3  C        -2.2881031316   -1.5409138385   -2.2959654895
      4  C        -2.5695668360   -1.5835425559   -3.8085869885
      5  C        -3.3926689471   -0.3688938039   -4.2727849742
      6  C        -2.7368581335    0.9558284055   -3.8451543446
      7  H        -1.6489472439   -2.3802885557   -1.9993638608
      8  H        -0.6381878714   -0.1591800554   -2.4098191813
      9  H        -3.4065978841    0.9897283437   -1.7782008835
     10  H        -1.9335479716    1.9154372847   -2.0591422558
     11  H        -1.6083800699   -1.5935862359   -4.3494373382
     12  H        -3.0855041471   -2.5189377046   -4.0682873482
     13  H        -3.5260159734   -0.3936048072   -5.3674290461
     14  H        -4.3989571107   -0.4287990273   -3.8330544099
     15  H        -1.7838800961    1.0766171545   -4.3872144274
     16  H        -3.3704299765    1.8079329045   -4.1305414748
     17  H        -3.2317185982   -1.6498222794   -1.7407792918
     18  N        -1.2597339047   -0.1758122168   -0.4885869701
     19  H        -1.9862424889   -0.2673698526    0.2137287973
     20  C         0.0265474430    0.0034672305   -0.0702770500
     21  H         0.1334989531    0.0177359748    1.0276900138
     22  O         0.9711985418    0.1363876037   -0.8390462106
   Point Group: c1    Number of degrees of freedom:    60


   Energy is   -404.595819632

 Hessian updated using BFGS update

 60 Hessian modes will be used to form the next step
  Hessian Eigenvalues:
     0.005819    0.005976    0.006898    0.007194    0.012604    0.019415
     0.019504    0.020845    0.020865    0.036485    0.038576    0.039417
     0.042120    0.048359    0.048453    0.048898    0.055288    0.055717
     0.056094    0.059951    0.066955    0.081452    0.081535    0.081610
     0.082045    0.082134    0.084390    0.087502    0.120920    0.120976
     0.142969    0.158680    0.160043    0.160514    0.174868    0.203971
     0.211698    0.262016    0.272564    0.273044    0.275533    0.286791
     0.287163    0.287574    0.326989    0.334521    0.334843    0.335850
     0.336547    0.337191    0.339138    0.339448    0.339535    0.340194
     0.340496    0.342611    0.362935    0.454062    0.525501    0.936413

 Minimum search - taking simple RFO step
 Searching for Lamda that Minimizes Along All modes
 Value Taken    Lamda =  -0.00021690
 Step Taken.  Stepsize is  0.120431

                             Maximum     Tolerance    Cnvgd?
         Gradient           0.002874      0.000100      NO
         Displacement       0.050669      0.000100      NO
         Energy change     -0.001234      0.000000      NO


 New Cartesian Coordinates Obtained by Inverse Iteration

 Displacement from previous Coordinates is:  0.231585
 ----------------------------------------------------------------
             Standard Nuclear Orientation (Angstroms)
    I     Atom           X                Y                Z
 ----------------------------------------------------------------
    1      C      -2.4745060372     0.9878130510    -2.3216825387
    2      C      -1.6218163487    -0.2202378405    -1.8938716507
    3      C      -2.3076714456    -1.5402744619    -2.2856173443
    4      C      -2.5653789678    -1.5838007629    -3.8023556472
    5      C      -3.3783697733    -0.3676599002    -4.2809462295
    6      C      -2.7320250922     0.9570808562    -3.8383944692
    7      H      -1.6784551525    -2.3836163970    -1.9789155214
    8      H      -0.6607704719    -0.1618675618    -2.4183108142
    9      H      -3.4326393930     0.9773873141    -1.7813761605
   10      H      -1.9610558783     1.9133934604    -2.0375672611
   11      H      -1.5945926183    -1.5971550977    -4.3258332243
   12      H      -3.0809489545    -2.5170335002    -4.0709562450
   13      H      -3.4872090268    -0.3906913751    -5.3789754309
   14      H      -4.3944404264    -0.4282882674    -3.8637543364
   15      H      -1.7700509473     1.0826998129    -4.3632798799
   16      H      -3.3645066929     1.8074053882    -4.1318864528
   17      H      -3.2603059176    -1.6421004052    -1.7448081536
   18      N      -1.2556382081    -0.1765001143    -0.4863027065
   19      H      -1.9680676094    -0.2694539887     0.2300664329
   20      C       0.0416729948     0.0083557339    -0.0924580724
   21      H       0.1670607106     0.0189220070     1.0015007783
   22      O       0.9810505542     0.1416546675    -0.8709095926
 ----------------------------------------------------------------
 Nuclear Repulsion Energy =         468.30285179 hartrees
 There are       35 alpha and       35 beta electrons
 Applying Cartesian multipole field
    Component          Value
    ---------          -----
     (0,0,1)       -1.16690E-02
 Nucleus-field energy     =     3.4472100265 hartrees
 Requested basis set is 6-31+G(d)
 There are 71 shells and 197 basis functions
 A cutoff of  1.0D-14 yielded   2417 shell pairs
 There are     19073 function pairs
 Smallest overlap matrix eigenvalue = 2.60E-05
 Guess MOs from SCF MO coefficient file

 -----------------------------------------------------------------------
  General SCF calculation program by
  Eric Jon Sundstrom, Paul Horn, Yuezhi Mao, Dmitri Zuev, Alec White,
  David Stuck, Shaama M.S., Shane Yost, Joonho Lee, David Small,
  Daniel Levine, Susi Lehtola, Hugh Burton, Evgeny Epifanovsky,
  Bang C. Huynh
 -----------------------------------------------------------------------
 Exchange:     0.2000 Hartree-Fock + 0.0800 Slater + 0.7200 B88
 Correlation:  0.1900 VWN1RPA + 0.8100 LYP
 Using Euler-Maclaurin-Lebedev (99,590) quadrature formula
 using 16 threads for integral computing
 -------------------------------------------------------
 OpenMP Integral computing Module                
 Release: version 2.0, May 2017, Q-Chem Inc. Pleasanton 
 -------------------------------------------------------
 A restricted SCF calculation will be
 performed using DIIS
 SCF converges when DIIS error is below 1.0e-09
 ---------------------------------------
  Cycle       Energy         DIIS error
 ---------------------------------------
    1    -404.5952359291      2.81e-04  
    2    -404.5959155954      4.00e-05  
    3    -404.5959053601      7.17e-05  
    4    -404.5959251356      1.05e-05  
    5    -404.5959255242      3.38e-06  
    6    -404.5959255725      7.08e-07  
    7    -404.5959255743      3.01e-07  
    8    -404.5959255746      5.44e-08  
    9    -404.5959255747      1.61e-08  
   10    -404.5959255747      4.39e-09  
   11    -404.5959255747      1.18e-09  
   12    -404.5959255747      3.62e-10  Convergence criterion met
 ---------------------------------------
 SCF time:   CPU 595.32s  wall 37.00s 
 SCF   energy in the final basis set =     -404.5959255747
 Total energy in the final basis set =     -404.5959255747
 
 --------------------------------------------------------------
 
                    Orbital Energies (a.u.)
 --------------------------------------------------------------
 
 Alpha MOs
 -- Occupied --
-19.1497 -14.3972 -10.3106 -10.2743 -10.2726 -10.2666 -10.2664 -10.2456
-10.2446  -1.0603  -0.9612  -0.8966  -0.8153  -0.8050  -0.6930  -0.6838
 -0.6366  -0.6275  -0.5718  -0.5409  -0.5184  -0.5140  -0.5052  -0.4686
 -0.4672  -0.4535  -0.4390  -0.4211  -0.4171  -0.4126  -0.3972  -0.3845
 -0.3765  -0.2887  -0.2840
 -- Virtual --
 -0.1058  -0.0775  -0.0691  -0.0499  -0.0248  -0.0224  -0.0162  -0.0110
 -0.0074  -0.0067   0.0166   0.0187   0.0294   0.0347   0.0380   0.0401
  0.0432   0.0656   0.0718   0.0847   0.0856   0.0870   0.0995   0.1026
  0.1045   0.1215   0.1229   0.1268   0.1372   0.1388   0.1551   0.1590
  0.1608   0.1723   0.1750   0.1870   0.2058   0.2096   0.2140   0.2217
  0.2255   0.2349   0.2401   0.2510   0.2548   0.2601   0.2745   0.2778
  0.2856   0.2941   0.2971   0.3083   0.3169   0.3451   0.3458   0.3651
  0.3970   0.4010   0.4668   0.5437   0.5629   0.5803   0.5866   0.6075
  0.6085   0.6356   0.6506   0.6699   0.6909   0.7048   0.7289   0.7318
  0.7360   0.7535   0.7785   0.7865   0.8036   0.8654   0.8937   0.8973
  0.9157   0.9262   0.9521   0.9790   0.9852   1.0008   1.0199   1.0257
  1.0451   1.0509   1.0599   1.0835   1.1022   1.1079   1.1221   1.1306
  1.1758   1.2337   1.2677   1.2928   1.3222   1.3231   1.3464   1.3587
  1.4290   1.4426   1.4538   1.4848   1.5327   1.5557   1.6607   1.6721
  1.6790   1.7001   1.7372   1.7509   1.8121   1.8204   1.8381   1.8455
  1.8538   1.8951   1.9308   1.9427   1.9472   1.9836   2.0052   2.0157
  2.0485   2.0903   2.1446   2.1753   2.2260   2.2617   2.2677   2.2818
  2.3204   2.3430   2.3459   2.3660   2.3967   2.5146   2.5416   2.5670
  2.5941   2.6335   2.6492   2.6847   2.7273   2.7776   2.8361   2.9910
  3.1501   4.0499   4.1391   4.2055   4.2180   4.2716   4.3913   4.5243
  4.5389   4.6210
 --------------------------------------------------------------
 
          Ground-State Mulliken Net Atomic Charges

     Atom                 Charge (a.u.)
  ----------------------------------------
      1 C                    -0.225845
      2 C                    -0.550777
      3 C                    -0.260462
      4 C                    -0.426174
      5 C                    -0.377492
      6 C                    -0.427279
      7 H                     0.225945
      8 H                     0.233590
      9 H                     0.216027
     10 H                     0.225373
     11 H                     0.183287
     12 H                     0.180853
     13 H                     0.145273
     14 H                     0.205595
     15 H                     0.183496
     16 H                     0.179688
     17 H                     0.216028
     18 N                    -0.393876
     19 H                     0.423178
     20 C                     0.338402
     21 H                     0.205225
     22 O                    -0.500058
  ----------------------------------------
  Sum of atomic charges =     0.000000

 -----------------------------------------------------------------
                    Cartesian Multipole Moments
 -----------------------------------------------------------------
    Charge (ESU x 10^10)
                -0.0000
    Dipole Moment (Debye)
         X      -3.5120      Y      -0.4971      Z       3.6366
       Tot       5.0800
    Quadrupole Moments (Debye-Ang)
        XX     -56.8152     XY       0.0704     YY     -57.3336
        XZ      -2.2941     YZ      -0.1446     ZZ     -66.6545
    Octopole Moments (Debye-Ang^2)
       XXX     297.0576    XXY      10.2477    XYY     103.2967
       YYY      36.3096    XXZ     150.5400    XYZ       1.9270
       YYZ     134.6798    XZZ     130.5756    YZZ      14.7839
       ZZZ     454.0992
    Hexadecapole Moments (Debye-Ang^3)
      XXXX   -1796.6455   XXXY     -87.9324   XXYY    -371.3964
      XYYY     -91.2363   YYYY    -407.1826   XXXZ   -1044.7979
      XXYZ     -42.2581   XYYZ    -337.2481   YYYZ    -115.0619
      XXZZ    -857.3878   XYZZ     -39.9628   YYZZ    -539.6207
      XZZZ   -1172.0931   YZZZ    -131.2877   ZZZZ   -3012.0151
 -----------------------------------------------------------------
 Calculating analytic gradient of the SCF energy
 Gradient of SCF Energy
            1           2           3           4           5           6
    1  -0.0001297  -0.0001184  -0.0002188  -0.0000030   0.0001737  -0.0000078
    2  -0.0003456  -0.0000028   0.0002186   0.0000251   0.0000168  -0.0000191
    3  -0.0000505  -0.0004165  -0.0001928   0.0002761  -0.0000674   0.0002742
            7           8           9          10          11          12
    1  -0.0000173   0.0001463  -0.0000199  -0.0000076   0.0003566   0.0001613
    2   0.0001219   0.0000382   0.0000689  -0.0001000   0.0000598  -0.0000622
    3   0.0000215   0.0002723  -0.0000636   0.0000457  -0.0001156  -0.0000645
           13          14          15          16          17          18
    1   0.0001666   0.0001590   0.0003586   0.0001429  -0.0000101  -0.0005244
    2   0.0000314   0.0000165   0.0000032   0.0001109  -0.0000871  -0.0001597
    3  -0.0002809  -0.0001783  -0.0000910  -0.0000431  -0.0000666   0.0005833
           19          20          21          22
    1  -0.0006457  -0.0000784  -0.0003036   0.0004199
    2  -0.0001179   0.0007176  -0.0002963  -0.0002383
    3  -0.0000889   0.0000766   0.0000290   0.0001409
 Max gradient component =       7.176E-04
 RMS gradient           =       2.252E-04
 Gradient time:  CPU 118.69 s  wall 7.58 s
 Geometry Optimization Parameters
   NAtoms,    NIC,     NZ,  NCons,   NDum,   NFix, NCnnct, MaxDiis
       22     172       0       0       0       0       0       0

 Cartesian Hessian Update
 Hessian updated using BFGS update


** GEOMETRY OPTIMIZATION IN DELOCALIZED INTERNAL COORDINATES **
   Searching for a Minimum

   Optimization Cycle:   3

                       Coordinates (Angstroms)
     ATOM                X               Y               Z
      1  C        -2.4745060372    0.9878130510   -2.3216825387
      2  C        -1.6218163487   -0.2202378405   -1.8938716507
      3  C        -2.3076714456   -1.5402744619   -2.2856173443
      4  C        -2.5653789678   -1.5838007629   -3.8023556472
      5  C        -3.3783697733   -0.3676599002   -4.2809462295
      6  C        -2.7320250922    0.9570808562   -3.8383944692
      7  H        -1.6784551525   -2.3836163970   -1.9789155214
      8  H        -0.6607704719   -0.1618675618   -2.4183108142
      9  H        -3.4326393930    0.9773873141   -1.7813761605
     10  H        -1.9610558783    1.9133934604   -2.0375672611
     11  H        -1.5945926183   -1.5971550977   -4.3258332243
     12  H        -3.0809489545   -2.5170335002   -4.0709562450
     13  H        -3.4872090268   -0.3906913751   -5.3789754309
     14  H        -4.3944404264   -0.4282882674   -3.8637543364
     15  H        -1.7700509473    1.0826998129   -4.3632798799
     16  H        -3.3645066929    1.8074053882   -4.1318864528
     17  H        -3.2603059176   -1.6421004052   -1.7448081536
     18  N        -1.2556382081   -0.1765001143   -0.4863027065
     19  H        -1.9680676094   -0.2694539887    0.2300664329
     20  C         0.0416729948    0.0083557339   -0.0924580724
     21  H         0.1670607106    0.0189220070    1.0015007783
     22  O         0.9810505542    0.1416546675   -0.8709095926
   Point Group: c1    Number of degrees of freedom:    60


   Energy is   -404.595925575

 Hessian updated using BFGS update

 60 Hessian modes will be used to form the next step
  Hessian Eigenvalues:
     0.005260    0.005974    0.006855    0.007202    0.012605    0.019052
     0.019502    0.020842    0.022292    0.036535    0.038638    0.039419
     0.042288    0.048239    0.048452    0.048902    0.055293    0.055722
     0.055994    0.060017    0.066959    0.080829    0.081533    0.081606
     0.082056    0.082134    0.084260    0.087502    0.119981    0.120969
     0.142989    0.155819    0.160203    0.160642    0.174872    0.209640
     0.214592    0.266867    0.271900    0.272585    0.275536    0.286828
     0.287165    0.290799    0.330019    0.334543    0.334921    0.335994
     0.336547    0.337003    0.339207    0.339448    0.339487    0.340155
     0.340316    0.342412    0.362923    0.454064    0.544650    0.951819

 Minimum search - taking simple RFO step
 Searching for Lamda that Minimizes Along All modes
 Value Taken    Lamda =  -0.00002250
 Step Taken.  Stepsize is  0.036637

                             Maximum     Tolerance    Cnvgd?
         Gradient           0.000767      0.000100      NO
         Displacement       0.016284      0.000100      NO
         Energy change     -0.000106      0.000000      NO


 New Cartesian Coordinates Obtained by Inverse Iteration

 Displacement from previous Coordinates is:  0.057618
 ----------------------------------------------------------------
             Standard Nuclear Orientation (Angstroms)
    I     Atom           X                Y                Z
 ----------------------------------------------------------------
    1      C      -2.4751483181     0.9863959985    -2.3194053889
    2      C      -1.6231789200    -0.2232737405    -1.8925027329
    3      C      -2.3117823633    -1.5422205850    -2.2846675200
    4      C      -2.5666479900    -1.5845149846    -3.8022779420
    5      C      -3.3759139014    -0.3665211243    -4.2823236336
    6      C      -2.7298509268     0.9573599454    -3.8369390771
    7      H      -1.6863289525    -2.3881290393    -1.9768492038
    8      H      -0.6644969761    -0.1661527599    -2.4211479689
    9      H      -3.4346489915     0.9743952252    -1.7814887457
   10      H      -1.9629441651     1.9121138926    -2.0330974843
   11      H      -1.5949386570    -1.6004840249    -4.3231654321
   12      H      -3.0844253076    -2.5158772133    -4.0728616378
   13      H      -3.4800262013    -0.3885762264    -5.3806168719
   14      H      -4.3939313154    -0.4261611947    -3.8695396397
   15      H      -1.7670177496     1.0837688877    -4.3592679490
   16      H      -3.3619847402     1.8075399664    -4.1312890337
   17      H      -3.2662874589    -1.6405631358    -1.7464745412
   18      N      -1.2528421883    -0.1809095531    -0.4860709063
   19      H      -1.9614733005    -0.2751436970     0.2335054714
   20      C       0.0445122848     0.0073846929    -0.0945287664
   21      H       0.1709187481     0.0283499263     0.9992212380
   22      O       0.9797726883     0.1572513620    -0.8748467540
 ----------------------------------------------------------------
 Nuclear Repulsion Energy =         468.26839979 hartrees
 There are       35 alpha and       35 beta electrons
 Applying Cartesian multipole field
    Component          Value
    ---------          -----
     (0,0,1)       -1.16690E-02
 Nucleus-field energy     =     3.4474915074 hartrees
 Requested basis set is 6-31+G(d)
 There are 71 shells and 197 basis functions
 A cutoff of  1.0D-14 yielded   2417 shell pairs
 There are     19073 function pairs
 Smallest overlap matrix eigenvalue = 2.61E-05
 Guess MOs from SCF MO coefficient file

 -----------------------------------------------------------------------
  General SCF calculation program by
  Eric Jon Sundstrom, Paul Horn, Yuezhi Mao, Dmitri Zuev, Alec White,
  David Stuck, Shaama M.S., Shane Yost, Joonho Lee, David Small,
  Daniel Levine, Susi Lehtola, Hugh Burton, Evgeny Epifanovsky,
  Bang C. Huynh
 -----------------------------------------------------------------------
 Exchange:     0.2000 Hartree-Fock + 0.0800 Slater + 0.7200 B88
 Correlation:  0.1900 VWN1RPA + 0.8100 LYP
 Using Euler-Maclaurin-Lebedev (99,590) quadrature formula
 using 16 threads for integral computing
 -------------------------------------------------------
 OpenMP Integral computing Module                
 Release: version 2.0, May 2017, Q-Chem Inc. Pleasanton 
 -------------------------------------------------------
 A restricted SCF calculation will be
 performed using DIIS
 SCF converges when DIIS error is below 1.0e-09
 ---------------------------------------
  Cycle       Energy         DIIS error
 ---------------------------------------
    1    -404.5957598321      1.34e-04  
    2    -404.5959154471      1.88e-05  
    3    -404.5959172682      1.04e-05  
    4    -404.5959175648      6.83e-06  
    5    -404.5959177315      1.74e-06  
    6    -404.5959177427      5.73e-07  
    7    -404.5959177442      1.29e-07  
    8    -404.5959177443      4.58e-08  
    9    -404.5959177443      9.42e-09  
   10    -404.5959177443      2.21e-09  
   11    -404.5959177443      9.77e-10  Convergence criterion met
 ---------------------------------------
 SCF time:   CPU 538.25s  wall 36.00s 
 SCF   energy in the final basis set =     -404.5959177443
 Total energy in the final basis set =     -404.5959177443
 
 --------------------------------------------------------------
 
                    Orbital Energies (a.u.)
 --------------------------------------------------------------
 
 Alpha MOs
 -- Occupied --
-19.1496 -14.3972 -10.3106 -10.2745 -10.2726 -10.2666 -10.2663 -10.2457
-10.2447  -1.0603  -0.9611  -0.8966  -0.8153  -0.8050  -0.6930  -0.6838
 -0.6366  -0.6274  -0.5718  -0.5409  -0.5185  -0.5140  -0.5052  -0.4686
 -0.4673  -0.4535  -0.4389  -0.4211  -0.4171  -0.4126  -0.3971  -0.3846
 -0.3765  -0.2888  -0.2839
 -- Virtual --
 -0.1058  -0.0775  -0.0691  -0.0499  -0.0248  -0.0224  -0.0162  -0.0109
 -0.0076  -0.0065   0.0167   0.0187   0.0294   0.0346   0.0380   0.0401
  0.0432   0.0656   0.0717   0.0846   0.0857   0.0870   0.0995   0.1027
  0.1045   0.1215   0.1228   0.1270   0.1371   0.1388   0.1551   0.1590
  0.1607   0.1724   0.1750   0.1870   0.2056   0.2094   0.2142   0.2217
  0.2255   0.2350   0.2400   0.2510   0.2551   0.2601   0.2743   0.2779
  0.2856   0.2941   0.2969   0.3081   0.3169   0.3452   0.3458   0.3652
  0.3969   0.4010   0.4667   0.5435   0.5629   0.5803   0.5865   0.6075
  0.6087   0.6357   0.6505   0.6697   0.6908   0.7053   0.7287   0.7324
  0.7354   0.7533   0.7783   0.7870   0.8037   0.8654   0.8937   0.8976
  0.9156   0.9262   0.9522   0.9783   0.9851   1.0005   1.0194   1.0259
  1.0452   1.0510   1.0600   1.0838   1.1022   1.1078   1.1224   1.1306
  1.1758   1.2333   1.2678   1.2929   1.3218   1.3238   1.3474   1.3587
  1.4285   1.4421   1.4537   1.4847   1.5327   1.5552   1.6606   1.6717
  1.6789   1.7003   1.7369   1.7510   1.8118   1.8202   1.8378   1.8454
  1.8544   1.8949   1.9307   1.9426   1.9476   1.9832   2.0046   2.0153
  2.0489   2.0902   2.1448   2.1748   2.2266   2.2632   2.2663   2.2819
  2.3207   2.3427   2.3460   2.3666   2.3969   2.5147   2.5414   2.5668
  2.5942   2.6329   2.6488   2.6848   2.7272   2.7775   2.8358   2.9911
  3.1503   4.0498   4.1391   4.2054   4.2179   4.2715   4.3910   4.5246
  4.5390   4.6205
 --------------------------------------------------------------
 
          Ground-State Mulliken Net Atomic Charges

     Atom                 Charge (a.u.)
  ----------------------------------------
      1 C                    -0.226982
      2 C                    -0.548005
      3 C                    -0.261583
      4 C                    -0.425727
      5 C                    -0.378322
      6 C                    -0.426772
      7 H                     0.225814
      8 H                     0.233180
      9 H                     0.215983
     10 H                     0.225563
     11 H                     0.183436
     12 H                     0.180744
     13 H                     0.145313
     14 H                     0.205474
     15 H                     0.183759
     16 H                     0.179655
     17 H                     0.215995
     18 N                    -0.393552
     19 H                     0.423133
     20 C                     0.338069
     21 H                     0.205219
     22 O                    -0.500391
  ----------------------------------------
  Sum of atomic charges =     0.000000

 -----------------------------------------------------------------
                    Cartesian Multipole Moments
 -----------------------------------------------------------------
    Charge (ESU x 10^10)
                -0.0000
    Dipole Moment (Debye)
         X      -3.5064      Y      -0.5246      Z       3.6427
       Tot       5.0832
    Quadrupole Moments (Debye-Ang)
        XX     -56.8159     XY       0.0284     YY     -57.3413
        XZ      -2.2715     YZ      -0.1099     ZZ     -66.6521
    Octopole Moments (Debye-Ang^2)
       XXX     297.0571    XXY      10.1840    XYY     103.2679
       YYY      36.2514    XXZ     150.4933    XYZ       1.9862
       YYZ     134.6951    XZZ     130.4850    YZZ      14.7527
       ZZZ     454.0624
    Hexadecapole Moments (Debye-Ang^3)
      XXXX   -1796.3992   XXXY     -88.7219   XXYY    -371.4695
      XYYY     -92.0655   YYYY    -407.6464   XXXZ   -1044.2169
      XXYZ     -42.2848   XYYZ    -337.1657   YYYZ    -115.1621
      XXZZ    -857.0405   XYZZ     -40.2928   YYZZ    -539.6219
      XZZZ   -1171.6419   YZZZ    -131.3807   ZZZZ   -3011.4053
 -----------------------------------------------------------------
 Calculating analytic gradient of the SCF energy
 Gradient of SCF Energy
            1           2           3           4           5           6
    1  -0.0000163  -0.0000040   0.0000047   0.0001377   0.0001065   0.0001086
    2  -0.0001684   0.0000993   0.0000769   0.0000253   0.0000121   0.0000287
    3  -0.0000597  -0.0001421  -0.0000876   0.0000198  -0.0000885   0.0000272
            7           8           9          10          11          12
    1  -0.0000329  -0.0000632  -0.0000762  -0.0000478   0.0001874   0.0001374
    2  -0.0000380  -0.0000273   0.0000275   0.0000460   0.0000218   0.0000266
    3   0.0000196   0.0000390  -0.0001195   0.0000454   0.0000300  -0.0001255
           13          14          15          16          17          18
    1   0.0002391   0.0000863   0.0001908   0.0001347  -0.0000615  -0.0006870
    2   0.0000332   0.0000129   0.0000232   0.0000127  -0.0000342   0.0004242
    3  -0.0001364  -0.0001995   0.0000433  -0.0001056  -0.0001297   0.0004049
           19          20          21          22
    1  -0.0002408   0.0001989  -0.0003783   0.0000757
    2   0.0001078  -0.0023447   0.0007171   0.0009173
    3  -0.0000234   0.0003462   0.0000566   0.0001856
 Max gradient component =       2.345E-03
 RMS gradient           =       3.596E-04
 Gradient time:  CPU 122.92 s  wall 8.88 s
 Geometry Optimization Parameters
   NAtoms,    NIC,     NZ,  NCons,   NDum,   NFix, NCnnct, MaxDiis
       22     172       0       0       0       0       0       0

 Cartesian Hessian Update
 Hessian updated using BFGS update


** GEOMETRY OPTIMIZATION IN DELOCALIZED INTERNAL COORDINATES **
   Searching for a Minimum

   Optimization Cycle:   4

                       Coordinates (Angstroms)
     ATOM                X               Y               Z
      1  C        -2.4751483181    0.9863959985   -2.3194053889
      2  C        -1.6231789200   -0.2232737405   -1.8925027329
      3  C        -2.3117823633   -1.5422205850   -2.2846675200
      4  C        -2.5666479900   -1.5845149846   -3.8022779420
      5  C        -3.3759139014   -0.3665211243   -4.2823236336
      6  C        -2.7298509268    0.9573599454   -3.8369390771
      7  H        -1.6863289525   -2.3881290393   -1.9768492038
      8  H        -0.6644969761   -0.1661527599   -2.4211479689
      9  H        -3.4346489915    0.9743952252   -1.7814887457
     10  H        -1.9629441651    1.9121138926   -2.0330974843
     11  H        -1.5949386570   -1.6004840249   -4.3231654321
     12  H        -3.0844253076   -2.5158772133   -4.0728616378
     13  H        -3.4800262013   -0.3885762264   -5.3806168719
     14  H        -4.3939313154   -0.4261611947   -3.8695396397
     15  H        -1.7670177496    1.0837688877   -4.3592679490
     16  H        -3.3619847402    1.8075399664   -4.1312890337
     17  H        -3.2662874589   -1.6405631358   -1.7464745412
     18  N        -1.2528421883   -0.1809095531   -0.4860709063
     19  H        -1.9614733005   -0.2751436970    0.2335054714
     20  C         0.0445122848    0.0073846929   -0.0945287664
     21  H         0.1709187481    0.0283499263    0.9992212380
     22  O         0.9797726883    0.1572513620   -0.8748467540
   Point Group: c1    Number of degrees of freedom:    60


   Energy is   -404.595917744

 Hessian updated using BFGS update

 60 Hessian modes will be used to form the next step
  Hessian Eigenvalues:
     0.004980    0.005974    0.006858    0.007108    0.012559    0.019270
     0.019502    0.020844    0.036501    0.037521    0.039415    0.042154
     0.048136    0.048451    0.048896    0.055019    0.055295    0.055699
     0.059461    0.066831    0.079249    0.081505    0.081552    0.082031
     0.082131    0.083610    0.085009    0.088059    0.118410    0.120968
     0.143169    0.150483    0.159915    0.160341    0.175114    0.203030
     0.211199    0.263923    0.266924    0.272588    0.275556    0.285866
     0.287055    0.287176    0.327107    0.334192    0.334568    0.334950
     0.336022    0.336548    0.338861    0.339445    0.339482    0.340130
     0.340363    0.342390    0.364394    0.452992    0.529803    0.940716

 Minimum search - taking simple RFO step
 Searching for Lamda that Minimizes Along All modes
 Value Taken    Lamda =  -0.00003199
 Step Taken.  Stepsize is  0.020288

                             Maximum     Tolerance    Cnvgd?
         Gradient           0.001298      0.000100      NO
         Displacement       0.017273      0.000100      NO
         Energy change      0.000008      0.000000      NO


 New Cartesian Coordinates Obtained by Inverse Iteration

 Displacement from previous Coordinates is:  0.015727
 ----------------------------------------------------------------
             Standard Nuclear Orientation (Angstroms)
    I     Atom           X                Y                Z
 ----------------------------------------------------------------
    1      C      -2.4750730908     0.9870859751    -2.3198594742
    2      C      -1.6228611603    -0.2225770496    -1.8925554303
    3      C      -2.3110201670    -1.5420229502    -2.2845440568
    4      C      -2.5665381314    -1.5846027346    -3.8022221352
    5      C      -3.3759215446    -0.3667531105    -4.2823256810
    6      C      -2.7303500967     0.9574934060    -3.8374359679
    7      H      -1.6855749965    -2.3879575647    -1.9766926683
    8      H      -0.6642338312    -0.1652083841    -2.4212213373
    9      H      -3.4344827383     0.9745391900    -1.7817675989
   10      H      -1.9632634814     1.9131240874    -2.0338483263
   11      H      -1.5951911049    -1.6009087623    -4.3234535468
   12      H      -3.0845806173    -2.5158898803    -4.0724440919
   13      H      -3.4799881128    -0.3890806890    -5.3804912104
   14      H      -4.3939324687    -0.4265499448    -3.8695568926
   15      H      -1.7679767307     1.0844739059    -4.3601510592
   16      H      -3.3631579377     1.8071350025    -4.1317498219
   17      H      -3.2654939758    -1.6400598215    -1.7462130945
   18      N      -1.2525148575    -0.1796955193    -0.4862309770
   19      H      -1.9606478259    -0.2756578944     0.2334917562
   20      C       0.0435886239     0.0116568508    -0.0936269758
   21      H       0.1708944983     0.0239522454     1.0003861772
   22      O       0.9796550448     0.1535362606    -0.8741221071
 ----------------------------------------------------------------
 Nuclear Repulsion Energy =         468.26529906 hartrees
 There are       35 alpha and       35 beta electrons
 Applying Cartesian multipole field
    Component          Value
    ---------          -----
     (0,0,1)       -1.16690E-02
 Nucleus-field energy     =     3.4473925238 hartrees
 Requested basis set is 6-31+G(d)
 There are 71 shells and 197 basis functions
 A cutoff of  1.0D-14 yielded   2417 shell pairs
 There are     19073 function pairs
 Smallest overlap matrix eigenvalue = 2.61E-05
 Guess MOs from SCF MO coefficient file

 -----------------------------------------------------------------------
  General SCF calculation program by
  Eric Jon Sundstrom, Paul Horn, Yuezhi Mao, Dmitri Zuev, Alec White,
  David Stuck, Shaama M.S., Shane Yost, Joonho Lee, David Small,
  Daniel Levine, Susi Lehtola, Hugh Burton, Evgeny Epifanovsky,
  Bang C. Huynh
 -----------------------------------------------------------------------
 Exchange:     0.2000 Hartree-Fock + 0.0800 Slater + 0.7200 B88
 Correlation:  0.1900 VWN1RPA + 0.8100 LYP
 Using Euler-Maclaurin-Lebedev (99,590) quadrature formula
 using 16 threads for integral computing
 -------------------------------------------------------
 OpenMP Integral computing Module                
 Release: version 2.0, May 2017, Q-Chem Inc. Pleasanton 
 -------------------------------------------------------
 A restricted SCF calculation will be
 performed using DIIS
 SCF converges when DIIS error is below 1.0e-09
 ---------------------------------------
  Cycle       Energy         DIIS error
 ---------------------------------------
    1    -404.5959009466      6.23e-05  
    2    -404.5959320039      1.02e-05  
    3    -404.5959323167      7.87e-06  
    4    -404.5959324542      5.57e-06  
    5    -404.5959325706      7.10e-07  
    6    -404.5959325726      2.50e-07  
    7    -404.5959325729      4.67e-08  
    8    -404.5959325729      1.68e-08  
    9    -404.5959325729      5.38e-09  
   10    -404.5959325729      1.60e-09  
   11    -404.5959325729      4.19e-10  Convergence criterion met
 ---------------------------------------
 SCF time:   CPU 537.93s  wall 34.00s 
 SCF   energy in the final basis set =     -404.5959325729
 Total energy in the final basis set =     -404.5959325729
 
 --------------------------------------------------------------
 
                    Orbital Energies (a.u.)
 --------------------------------------------------------------
 
 Alpha MOs
 -- Occupied --
-19.1495 -14.3971 -10.3105 -10.2745 -10.2726 -10.2666 -10.2663 -10.2458
-10.2447  -1.0604  -0.9611  -0.8966  -0.8153  -0.8050  -0.6931  -0.6838
 -0.6366  -0.6272  -0.5718  -0.5409  -0.5186  -0.5140  -0.5052  -0.4687
 -0.4673  -0.4535  -0.4389  -0.4211  -0.4171  -0.4126  -0.3971  -0.3845
 -0.3766  -0.2887  -0.2839
 -- Virtual --
 -0.1058  -0.0775  -0.0691  -0.0499  -0.0248  -0.0224  -0.0162  -0.0109
 -0.0074  -0.0065   0.0167   0.0187   0.0294   0.0346   0.0381   0.0401
  0.0432   0.0656   0.0717   0.0846   0.0857   0.0870   0.0995   0.1027
  0.1045   0.1215   0.1228   0.1270   0.1371   0.1388   0.1551   0.1590
  0.1607   0.1724   0.1750   0.1870   0.2056   0.2095   0.2142   0.2217
  0.2255   0.2350   0.2399   0.2510   0.2552   0.2600   0.2744   0.2780
  0.2857   0.2941   0.2970   0.3081   0.3169   0.3452   0.3458   0.3653
  0.3970   0.4011   0.4668   0.5434   0.5629   0.5803   0.5865   0.6075
  0.6087   0.6357   0.6505   0.6696   0.6909   0.7053   0.7287   0.7320
  0.7358   0.7533   0.7783   0.7869   0.8037   0.8653   0.8937   0.8977
  0.9156   0.9262   0.9523   0.9783   0.9851   1.0005   1.0194   1.0259
  1.0452   1.0510   1.0601   1.0839   1.1020   1.1079   1.1222   1.1306
  1.1756   1.2336   1.2679   1.2931   1.3219   1.3232   1.3476   1.3587
  1.4282   1.4425   1.4540   1.4847   1.5327   1.5550   1.6604   1.6715
  1.6789   1.7005   1.7371   1.7509   1.8121   1.8202   1.8379   1.8452
  1.8541   1.8948   1.9304   1.9426   1.9476   1.9831   2.0048   2.0153
  2.0489   2.0905   2.1447   2.1748   2.2267   2.2625   2.2682   2.2817
  2.3207   2.3426   2.3460   2.3668   2.3968   2.5147   2.5413   2.5667
  2.5943   2.6331   2.6486   2.6847   2.7275   2.7774   2.8358   2.9915
  3.1506   4.0498   4.1390   4.2055   4.2179   4.2715   4.3909   4.5245
  4.5388   4.6203
 --------------------------------------------------------------
 
          Ground-State Mulliken Net Atomic Charges

     Atom                 Charge (a.u.)
  ----------------------------------------
      1 C                    -0.226050
      2 C                    -0.547579
      3 C                    -0.262507
      4 C                    -0.425771
      5 C                    -0.378426
      6 C                    -0.426979
      7 H                     0.225883
      8 H                     0.233228
      9 H                     0.215964
     10 H                     0.225440
     11 H                     0.183459
     12 H                     0.180775
     13 H                     0.145345
     14 H                     0.205485
     15 H                     0.183736
     16 H                     0.179664
     17 H                     0.215965
     18 N                    -0.393548
     19 H                     0.422996
     20 C                     0.338264
     21 H                     0.205274
     22 O                    -0.500617
  ----------------------------------------
  Sum of atomic charges =     0.000000

 -----------------------------------------------------------------
                    Cartesian Multipole Moments
 -----------------------------------------------------------------
    Charge (ESU x 10^10)
                -0.0000
    Dipole Moment (Debye)
         X      -3.5067      Y      -0.5190      Z       3.6416
       Tot       5.0821
    Quadrupole Moments (Debye-Ang)
        XX     -56.8244     XY       0.0462     YY     -57.3324
        XZ      -2.2677     YZ      -0.1185     ZZ     -66.6392
    Octopole Moments (Debye-Ang^2)
       XXX     297.0839    XXY      10.1526    XYY     103.2620
       YYY      36.1966    XXZ     150.4755    XYZ       1.9666
       YYZ     134.6790    XZZ     130.4708    YZZ      14.7157
       ZZZ     454.0052
    Hexadecapole Moments (Debye-Ang^3)
      XXXX   -1796.3829   XXXY     -88.4927   XXYY    -371.4476
      XYYY     -91.8605   YYYY    -407.6063   XXXZ   -1044.2414
      XXYZ     -42.2338   XYYZ    -337.1707   YYYZ    -115.0870
      XXZZ    -856.9837   XYZZ     -40.1776   YYZZ    -539.6107
      XZZZ   -1171.5984   YZZZ    -131.2596   ZZZZ   -3011.3246
 -----------------------------------------------------------------
 Calculating analytic gradient of the SCF energy
 Gradient of SCF Energy
            1           2           3           4           5           6
    1   0.0000755  -0.0000873   0.0000879   0.0001403   0.0001192   0.0001292
    2   0.0000039  -0.0000007  -0.0000368  -0.0000062   0.0000144   0.0000391
    3  -0.0000245  -0.0000025  -0.0000927  -0.0001019  -0.0001466  -0.0000904
            7           8           9          10          11          12
    1  -0.0000398  -0.0000898  -0.0000784  -0.0000583   0.0001018   0.0001403
    2  -0.0000839   0.0000050  -0.0000181   0.0000751   0.0000123   0.0000473
    3   0.0000201   0.0000388  -0.0001165   0.0000428   0.0000666  -0.0001448
           13          14          15          16          17          18
    1   0.0002575   0.0000878   0.0001016   0.0001456  -0.0000653  -0.0001381
    2   0.0000353   0.0000110   0.0000280  -0.0000148   0.0000059   0.0000037
    3  -0.0000593  -0.0002039   0.0000833  -0.0001095  -0.0001308   0.0001559
           19          20          21          22
    1  -0.0000635  -0.0002402  -0.0002487  -0.0002772
    2  -0.0000050   0.0000417  -0.0000687  -0.0000884
    3   0.0000008   0.0003616   0.0002020   0.0002514
 Max gradient component =       3.616E-04
 RMS gradient           =       1.179E-04
 Gradient time:  CPU 124.48 s  wall 7.92 s
 Geometry Optimization Parameters
   NAtoms,    NIC,     NZ,  NCons,   NDum,   NFix, NCnnct, MaxDiis
       22     172       0       0       0       0       0       0

 Cartesian Hessian Update
 Hessian updated using BFGS update


** GEOMETRY OPTIMIZATION IN DELOCALIZED INTERNAL COORDINATES **
   Searching for a Minimum

   Optimization Cycle:   5

                       Coordinates (Angstroms)
     ATOM                X               Y               Z
      1  C        -2.4750730908    0.9870859751   -2.3198594742
      2  C        -1.6228611603   -0.2225770496   -1.8925554303
      3  C        -2.3110201670   -1.5420229502   -2.2845440568
      4  C        -2.5665381314   -1.5846027346   -3.8022221352
      5  C        -3.3759215446   -0.3667531105   -4.2823256810
      6  C        -2.7303500967    0.9574934060   -3.8374359679
      7  H        -1.6855749965   -2.3879575647   -1.9766926683
      8  H        -0.6642338312   -0.1652083841   -2.4212213373
      9  H        -3.4344827383    0.9745391900   -1.7817675989
     10  H        -1.9632634814    1.9131240874   -2.0338483263
     11  H        -1.5951911049   -1.6009087623   -4.3234535468
     12  H        -3.0845806173   -2.5158898803   -4.0724440919
     13  H        -3.4799881128   -0.3890806890   -5.3804912104
     14  H        -4.3939324687   -0.4265499448   -3.8695568926
     15  H        -1.7679767307    1.0844739059   -4.3601510592
     16  H        -3.3631579377    1.8071350025   -4.1317498219
     17  H        -3.2654939758   -1.6400598215   -1.7462130945
     18  N        -1.2525148575   -0.1796955193   -0.4862309770
     19  H        -1.9606478259   -0.2756578944    0.2334917562
     20  C         0.0435886239    0.0116568508   -0.0936269758
     21  H         0.1708944983    0.0239522454    1.0003861772
     22  O         0.9796550448    0.1535362606   -0.8741221071
   Point Group: c1    Number of degrees of freedom:    60


   Energy is   -404.595932573

 Hessian updated using BFGS update

 60 Hessian modes will be used to form the next step
  Hessian Eigenvalues:
     0.004986    0.005974    0.006857    0.006979    0.012543    0.019263
     0.019502    0.020844    0.036455    0.037944    0.039415    0.042228
     0.048164    0.048450    0.048894    0.055278    0.055444    0.055706
     0.059622    0.066873    0.080241    0.081522    0.081592    0.082050
     0.082117    0.084030    0.086316    0.088538    0.118396    0.120970
     0.143131    0.151138    0.159803    0.160378    0.175238    0.204563
     0.211376    0.265223    0.268303    0.272643    0.275553    0.286357
     0.287085    0.287561    0.327811    0.334308    0.334569    0.334950
     0.336016    0.336548    0.338865    0.339445    0.339480    0.340101
     0.340277    0.342379    0.362396    0.453215    0.531496    0.943014

 Minimum search - taking simple RFO step
 Searching for Lamda that Minimizes Along All modes
 Value Taken    Lamda =  -0.00000197
 Step Taken.  Stepsize is  0.009117

                             Maximum     Tolerance    Cnvgd?
         Gradient           0.000281      0.000100      NO
         Displacement       0.004618      0.000100      NO
         Energy change     -0.000015      0.000000      NO


 New Cartesian Coordinates Obtained by Inverse Iteration

 Displacement from previous Coordinates is:  0.016348
 ----------------------------------------------------------------
             Standard Nuclear Orientation (Angstroms)
    I     Atom           X                Y                Z
 ----------------------------------------------------------------
    1      C      -2.4741444488     0.9864568161    -2.3197476270
    2      C      -1.6224817794    -0.2235351354    -1.8929262202
    3      C      -2.3114351323    -1.5423804693    -2.2847744328
    4      C      -2.5672237639    -1.5847592217    -3.8023391317
    5      C      -3.3760753033    -0.3664301198    -4.2821789172
    6      C      -2.7296930302     0.9573989849    -3.8371997799
    7      H      -1.6858384302    -2.3881878298    -1.9772546829
    8      H      -0.6631458666    -0.1664266921    -2.4204576774
    9      H      -3.4332297162     0.9746706346    -1.7810885794
   10      H      -1.9611935117     1.9117406862    -2.0337216506
   11      H      -1.5959522073    -1.6014220156    -4.3239705815
   12      H      -3.0857050731    -2.5159556002    -4.0721646931
   13      H      -3.4807800550    -0.3885835383    -5.3803932298
   14      H      -4.3938302328    -0.4257165797    -3.8688235154
   15      H      -1.7673080141     1.0838586322    -4.3602805430
   16      H      -3.3620408017     1.8076607730    -4.1308696750
   17      H      -3.2656229913    -1.6403897819    -1.7459264872
   18      N      -1.2527935873    -0.1810607752    -0.4867863221
   19      H      -1.9615626985    -0.2787955382     0.2322916619
   20      C       0.0428680485     0.0135275819    -0.0940975488
   21      H       0.1694666481     0.0256371029     0.9999852343
   22      O       0.9790572446     0.1587247037    -0.8739101213
 ----------------------------------------------------------------
 Nuclear Repulsion Energy =         468.29579466 hartrees
 There are       35 alpha and       35 beta electrons
 Applying Cartesian multipole field
    Component          Value
    ---------          -----
     (0,0,1)       -1.16690E-02
 Nucleus-field energy     =     3.4475097889 hartrees
 Requested basis set is 6-31+G(d)
 There are 71 shells and 197 basis functions
 A cutoff of  1.0D-14 yielded   2417 shell pairs
 There are     19073 function pairs
 Smallest overlap matrix eigenvalue = 2.61E-05
 Guess MOs from SCF MO coefficient file

 -----------------------------------------------------------------------
  General SCF calculation program by
  Eric Jon Sundstrom, Paul Horn, Yuezhi Mao, Dmitri Zuev, Alec White,
  David Stuck, Shaama M.S., Shane Yost, Joonho Lee, David Small,
  Daniel Levine, Susi Lehtola, Hugh Burton, Evgeny Epifanovsky,
  Bang C. Huynh
 -----------------------------------------------------------------------
 Exchange:     0.2000 Hartree-Fock + 0.0800 Slater + 0.7200 B88
 Correlation:  0.1900 VWN1RPA + 0.8100 LYP
 Using Euler-Maclaurin-Lebedev (99,590) quadrature formula
 using 16 threads for integral computing
 -------------------------------------------------------
 OpenMP Integral computing Module                
 Release: version 2.0, May 2017, Q-Chem Inc. Pleasanton 
 -------------------------------------------------------
 A restricted SCF calculation will be
 performed using DIIS
 SCF converges when DIIS error is below 1.0e-09
 ---------------------------------------
  Cycle       Energy         DIIS error
 ---------------------------------------
    1    -404.5959240784      3.17e-05  
    2    -404.5959333810      4.79e-06  
    3    -404.5959334761      3.72e-06  
    4    -404.5959335336      1.23e-06  
    5    -404.5959335393      4.58e-07  
    6    -404.5959335400      1.88e-07  
    7    -404.5959335401      5.77e-08  
    8    -404.5959335401      1.02e-08  
    9    -404.5959335401      2.38e-09  
   10    -404.5959335401      1.17e-09  
   11    -404.5959335401      2.18e-10  Convergence criterion met
 ---------------------------------------
 SCF time:   CPU 526.77s  wall 33.00s 
 SCF   energy in the final basis set =     -404.5959335401
 Total energy in the final basis set =     -404.5959335401
 
 --------------------------------------------------------------
 
                    Orbital Energies (a.u.)
 --------------------------------------------------------------
 
 Alpha MOs
 -- Occupied --
-19.1496 -14.3971 -10.3106 -10.2744 -10.2726 -10.2666 -10.2662 -10.2458
-10.2446  -1.0605  -0.9612  -0.8966  -0.8153  -0.8050  -0.6931  -0.6838
 -0.6366  -0.6273  -0.5718  -0.5409  -0.5185  -0.5140  -0.5051  -0.4687
 -0.4672  -0.4535  -0.4389  -0.4211  -0.4171  -0.4126  -0.3971  -0.3846
 -0.3766  -0.2888  -0.2839
 -- Virtual --
 -0.1058  -0.0775  -0.0691  -0.0499  -0.0248  -0.0224  -0.0162  -0.0109
 -0.0075  -0.0066   0.0167   0.0187   0.0294   0.0346   0.0380   0.0401
  0.0432   0.0656   0.0717   0.0846   0.0856   0.0871   0.0995   0.1027
  0.1045   0.1214   0.1228   0.1271   0.1371   0.1389   0.1551   0.1590
  0.1607   0.1724   0.1750   0.1871   0.2057   0.2094   0.2143   0.2217
  0.2255   0.2351   0.2399   0.2510   0.2551   0.2600   0.2744   0.2779
  0.2857   0.2941   0.2969   0.3081   0.3169   0.3453   0.3459   0.3653
  0.3970   0.4010   0.4668   0.5435   0.5629   0.5803   0.5866   0.6075
  0.6087   0.6357   0.6505   0.6696   0.6908   0.7052   0.7287   0.7320
  0.7358   0.7534   0.7783   0.7869   0.8038   0.8654   0.8937   0.8976
  0.9156   0.9263   0.9523   0.9784   0.9851   1.0006   1.0195   1.0259
  1.0452   1.0510   1.0600   1.0838   1.1020   1.1079   1.1223   1.1307
  1.1757   1.2336   1.2679   1.2929   1.3218   1.3232   1.3473   1.3587
  1.4281   1.4426   1.4540   1.4848   1.5327   1.5553   1.6606   1.6717
  1.6790   1.7006   1.7369   1.7511   1.8121   1.8203   1.8380   1.8453
  1.8542   1.8948   1.9305   1.9426   1.9476   1.9833   2.0053   2.0153
  2.0487   2.0905   2.1448   2.1749   2.2266   2.2623   2.2680   2.2817
  2.3207   2.3428   2.3459   2.3668   2.3969   2.5148   2.5412   2.5668
  2.5944   2.6333   2.6488   2.6848   2.7274   2.7776   2.8360   2.9915
  3.1507   4.0500   4.1391   4.2056   4.2180   4.2716   4.3911   4.5245
  4.5389   4.6205
 --------------------------------------------------------------
 
          Ground-State Mulliken Net Atomic Charges

     Atom                 Charge (a.u.)
  ----------------------------------------
      1 C                    -0.225187
      2 C                    -0.548410
      3 C                    -0.262977
      4 C                    -0.425726
      5 C                    -0.378317
      6 C                    -0.426953
      7 H                     0.225882
      8 H                     0.233236
      9 H                     0.216001
     10 H                     0.225474
     11 H                     0.183410
     12 H                     0.180788
     13 H                     0.145322
     14 H                     0.205495
     15 H                     0.183711
     16 H                     0.179690
     17 H                     0.215986
     18 N                    -0.393457
     19 H                     0.423057
     20 C                     0.338241
     21 H                     0.205199
     22 O                    -0.500465
  ----------------------------------------
  Sum of atomic charges =     0.000000

 -----------------------------------------------------------------
                    Cartesian Multipole Moments
 -----------------------------------------------------------------
    Charge (ESU x 10^10)
                -0.0000
    Dipole Moment (Debye)
         X      -3.5066      Y      -0.5288      Z       3.6408
       Tot       5.0824
    Quadrupole Moments (Debye-Ang)
        XX     -56.8174     XY       0.0387     YY     -57.3374
        XZ      -2.2767     YZ      -0.1089     ZZ     -66.6505
    Octopole Moments (Debye-Ang^2)
       XXX     297.0978    XXY      10.1008    XYY     103.2590
       YYY      36.1431    XXZ     150.4941    XYZ       1.9854
       YYZ     134.6966    XZZ     130.5105    YZZ      14.6894
       ZZZ     454.0592
    Hexadecapole Moments (Debye-Ang^3)
[...]

 Mode:                40                     41                     42
 Frequency:      1414.55                1503.56                1504.34
 Force Cnst:      1.6937                 1.4505                 1.4526
 Red. Mass:       1.4366                 1.0890                 1.0894
 IR Active:          YES                    YES                    YES
 IR Intens:        3.626                  1.464                  1.478
 Raman Active:       YES                    YES                    YES
               X      Y      Z        X      Y      Z        X      Y      Z
 C          0.032 -0.057  0.093    0.020 -0.029 -0.026    0.000 -0.003  0.015
 C         -0.050  0.033 -0.098    0.000 -0.013 -0.007   -0.001  0.012 -0.007
 C          0.038  0.036  0.074   -0.002  0.000  0.018    0.015  0.024 -0.017
 C          0.001 -0.019  0.002   -0.019  0.027  0.026    0.002 -0.010 -0.018
 C         -0.003 -0.003  0.004   -0.043  0.007 -0.025   -0.048 -0.010 -0.028
 C         -0.003  0.028  0.003    0.003  0.012 -0.020   -0.018 -0.033  0.028
 H         -0.098 -0.179 -0.286    0.084  0.034 -0.077   -0.219 -0.092  0.157
 H          0.308 -0.224  0.500    0.005  0.058  0.006    0.017 -0.054  0.018
 H         -0.187  0.203 -0.301    0.100  0.329  0.139   -0.047 -0.032 -0.070
 H         -0.105  0.132 -0.267   -0.301  0.092  0.219    0.054 -0.019 -0.050
 H          0.020 -0.013  0.033   -0.101 -0.325 -0.132    0.059  0.113  0.094
 H         -0.046  0.045 -0.126    0.288 -0.097 -0.214   -0.125  0.041  0.072
 H         -0.054 -0.003  0.003    0.397  0.021 -0.051    0.461  0.014 -0.058
 H         -0.038  0.022 -0.063    0.139 -0.029  0.387    0.156  0.043  0.447
 H          0.016 -0.038  0.027    0.083 -0.138  0.108   -0.142  0.349 -0.146
 H         -0.072 -0.069 -0.139   -0.150 -0.068  0.093    0.305  0.132 -0.235
 H         -0.114 -0.084 -0.224   -0.063  0.063 -0.087    0.091 -0.239  0.097
 N         -0.012 -0.006 -0.038   -0.002 -0.000 -0.002   -0.004 -0.001 -0.003
 H          0.155  0.023  0.131    0.014  0.006  0.016    0.021  0.001  0.021
 C          0.014  0.002  0.029    0.003  0.001  0.001    0.002  0.001  0.002
 H          0.010  0.003  0.046    0.000 -0.001  0.003    0.001  0.000  0.005
 O          0.001  0.001 -0.008   -0.001 -0.000  0.000   -0.000 -0.000 -0.000
 TransDip   0.030  0.025  0.047    0.025  0.025  0.016    0.037 -0.005  0.012

 Mode:                43                     44                     45
 Frequency:      1509.71                1514.12                1526.62
 Force Cnst:      1.4710                 1.4796                 1.5531
 Red. Mass:       1.0954                 1.0954                 1.1311
 IR Active:          YES                    YES                    YES
 IR Intens:        6.165                 13.756                 11.739
 Raman Active:       YES                    YES                    YES
               X      Y      Z        X      Y      Z        X      Y      Z
 C          0.015 -0.037 -0.037   -0.011  0.017  0.014   -0.013  0.030  0.022
 C         -0.002  0.001 -0.002    0.009  0.001  0.012   -0.018 -0.004  0.002
 C         -0.008 -0.029  0.027   -0.015 -0.034  0.029   -0.011 -0.035  0.025
 C          0.014 -0.038 -0.026   -0.017  0.031  0.021    0.010 -0.028 -0.012
 C          0.005  0.007  0.002    0.006  0.002  0.011   -0.032 -0.002 -0.028
 C         -0.004 -0.026  0.018   -0.015 -0.041  0.026    0.008  0.029 -0.013
 H          0.242  0.079 -0.203    0.300  0.119 -0.219    0.284  0.100 -0.229
 H          0.003 -0.000  0.005   -0.015  0.004 -0.023    0.023  0.004  0.080
 H          0.124  0.381  0.184   -0.059 -0.181 -0.081   -0.078 -0.305 -0.107
 H         -0.338  0.084  0.271    0.169 -0.057 -0.107    0.250 -0.061 -0.203
 H          0.098  0.341  0.135   -0.096 -0.316 -0.126    0.053  0.222  0.069
 H         -0.293  0.084  0.207    0.288 -0.104 -0.172   -0.196  0.058  0.117
 H         -0.054 -0.030  0.005   -0.035 -0.006  0.018    0.299  0.014 -0.050
 H         -0.017 -0.022 -0.052   -0.019 -0.009 -0.044    0.110  0.007  0.305
 H         -0.080  0.199 -0.089   -0.145  0.362 -0.150    0.075 -0.213  0.073
 H          0.171  0.057 -0.129    0.323  0.142 -0.209   -0.189 -0.074  0.118
 H         -0.114  0.273 -0.135   -0.142  0.324 -0.162   -0.123  0.336 -0.130
 N          0.004 -0.000  0.003   -0.014 -0.003 -0.013    0.038  0.008  0.027
 H         -0.015  0.003 -0.014    0.050  0.012  0.054   -0.156 -0.030 -0.174
 C         -0.001 -0.001 -0.002    0.007  0.002  0.005   -0.024 -0.006 -0.011
 H         -0.001  0.000 -0.004    0.002  0.000  0.011   -0.003  0.000 -0.028
 O         -0.001  0.000  0.001   -0.001 -0.000 -0.001    0.005  0.001  0.000
 TransDip  -0.028  0.074  0.004    0.102  0.024 -0.055   -0.075 -0.022 -0.077

 Mode:                46                     47                     48
 Frequency:      1537.40                1722.13                2267.65
 Force Cnst:      2.2278                14.3481                 7.4172
 Red. Mass:       1.5998                 8.2113                 2.4481
 IR Active:          YES                    YES                    YES
 IR Intens:      151.145                374.145                 39.980
 Raman Active:       YES                    YES                    YES
               X      Y      Z        X      Y      Z        X      Y      Z
 C         -0.004  0.007  0.010   -0.002  0.003  0.016   -0.000  0.000  0.000
 C          0.080  0.014  0.044   -0.002  0.001 -0.043    0.002  0.000  0.001
 C         -0.005 -0.013  0.014   -0.003 -0.001  0.017   -0.000 -0.000  0.000
 C          0.002 -0.014 -0.016    0.002  0.004 -0.003    0.000  0.000 -0.000
 C         -0.010  0.000 -0.007   -0.001  0.000  0.001   -0.000  0.000 -0.000
 C          0.000  0.014 -0.014    0.002 -0.005 -0.003    0.000 -0.000  0.000
 H          0.093  0.033 -0.053    0.003 -0.012 -0.024    0.001  0.000 -0.000
 H         -0.147 -0.001 -0.373    0.104  0.020  0.107    0.006  0.003  0.013
 H         -0.047 -0.040 -0.078   -0.027  0.003 -0.030   -0.001 -0.001 -0.001
 H          0.090 -0.032 -0.035    0.021  0.004 -0.024    0.002 -0.000  0.000
 H          0.056  0.138  0.081    0.007 -0.000 -0.000    0.000  0.000 -0.000
 H         -0.126  0.031  0.096    0.000 -0.008  0.028   -0.000  0.000  0.000
 H          0.099  0.001 -0.017    0.008 -0.001 -0.003    0.000 -0.000  0.000
 H          0.033  0.001  0.093   -0.001 -0.001  0.001    0.000 -0.000 -0.000
 H          0.066 -0.125  0.080    0.009  0.003  0.005    0.000 -0.000  0.000
 H         -0.120 -0.043  0.086   -0.002  0.007  0.028   -0.000 -0.000  0.000
 H         -0.061  0.047 -0.091   -0.023 -0.022 -0.022   -0.001 -0.000 -0.000
 N         -0.138 -0.027 -0.099   -0.061 -0.015  0.050    0.007  0.002  0.013
 H          0.515  0.106  0.577   -0.313 -0.080 -0.209   -0.043 -0.010 -0.052
 C          0.074  0.018  0.042    0.535  0.135 -0.301   -0.005  0.004 -0.206
 H          0.011 -0.000  0.099   -0.218 -0.037 -0.451    0.133  0.004  0.966
 O         -0.011 -0.003 -0.004   -0.305 -0.080  0.259   -0.018 -0.005  0.023
 TransDip   0.321  0.069  0.217    0.600  0.137 -0.068    0.034  0.014 -0.199

 Mode:                49                     50                     51
 Frequency:      2971.64                2990.79                2997.72
 Force Cnst:      5.5636                 5.6223                 5.6578
 Red. Mass:       1.0693                 1.0668                 1.0686
 IR Active:          YES                    YES                    YES
 IR Intens:       81.166                 32.294                 96.531
 Raman Active:       YES                    YES                    YES
               X      Y      Z        X      Y      Z        X      Y      Z
 C          0.002  0.000  0.000   -0.006 -0.001  0.003    0.005  0.002 -0.002
 C          0.001  0.000 -0.000    0.000 -0.001 -0.000    0.002  0.000 -0.001
 C          0.002 -0.000 -0.000    0.007 -0.001 -0.003    0.005 -0.002 -0.002
 C         -0.011  0.010  0.012   -0.040  0.017  0.031   -0.037  0.009  0.024
 C         -0.019 -0.002 -0.067    0.001 -0.001  0.001    0.028  0.002  0.015
 C         -0.010 -0.011  0.012    0.035  0.019 -0.029   -0.038 -0.014  0.027
 H         -0.006  0.009 -0.004   -0.009  0.018 -0.004   -0.014  0.022 -0.005
 H         -0.007 -0.000  0.004   -0.001  0.003  0.000   -0.021 -0.001  0.014
 H         -0.017  0.001  0.011    0.068 -0.001 -0.039   -0.051  0.000  0.030
 H         -0.005 -0.009 -0.004    0.006  0.017  0.004   -0.011 -0.023 -0.004
 H          0.221 -0.001 -0.116    0.604 -0.008 -0.320    0.513 -0.012 -0.271
 H         -0.081 -0.124 -0.034   -0.123 -0.184 -0.046   -0.063 -0.094 -0.020
 H          0.071  0.013  0.888   -0.001  0.006 -0.013   -0.022 -0.005 -0.316
 H          0.149  0.006 -0.085   -0.012 -0.001  0.005   -0.322 -0.014  0.139
 H          0.216  0.019 -0.114   -0.563 -0.056  0.301    0.550  0.060 -0.293
 H         -0.094  0.117 -0.037    0.140 -0.171  0.050   -0.086  0.106 -0.027
 H         -0.019 -0.002  0.012   -0.076 -0.008  0.044   -0.051 -0.005  0.029
 N          0.000  0.000 -0.000   -0.000  0.000 -0.000    0.000  0.000  0.000
 H          0.000 -0.000 -0.000    0.000 -0.000 -0.000    0.000 -0.000 -0.001
 C          0.000  0.000  0.000    0.000  0.000  0.000   -0.001 -0.000  0.000
 H          0.000  0.000 -0.000    0.000 -0.000  0.000    0.000  0.000  0.000
 O          0.000  0.000 -0.000   -0.000 -0.000  0.000    0.000  0.000 -0.000
 TransDip  -0.186 -0.012 -0.220   -0.013  0.181  0.008   -0.077 -0.007  0.305

 Mode:                52                     53                     54
 Frequency:      3024.95                3026.80                3032.21
 Force Cnst:      5.7758                 5.8117                 5.8735
 Red. Mass:       1.0713                 1.0767                 1.0842
 IR Active:          YES                    YES                    YES
 IR Intens:       11.036                 49.597                 20.522
 Raman Active:       YES                    YES                    YES
               X      Y      Z        X      Y      Z        X      Y      Z
 C          0.016 -0.007 -0.014   -0.034  0.015  0.029    0.027 -0.009 -0.021
 C          0.006  0.000 -0.003    0.010  0.000 -0.005   -0.012 -0.001  0.006
 C         -0.041 -0.022  0.036   -0.010 -0.006  0.010    0.019  0.007 -0.014
 C          0.022  0.031  0.007    0.009  0.017  0.005    0.011  0.023  0.009
 C         -0.001  0.000  0.003   -0.014 -0.001  0.019   -0.047 -0.002  0.040
 C         -0.011  0.011 -0.002    0.033 -0.039  0.010    0.006 -0.015  0.008
 H         -0.168  0.212 -0.064   -0.047  0.063 -0.019    0.047 -0.058  0.017
 H         -0.072 -0.003  0.041   -0.127 -0.006  0.073    0.150  0.007 -0.087
 H         -0.248 -0.005  0.139    0.535  0.008 -0.297   -0.386 -0.005  0.213
 H          0.056  0.084  0.023   -0.120 -0.187 -0.050    0.068  0.102  0.027
 H         -0.041  0.009  0.025    0.008  0.004 -0.002    0.030  0.003 -0.011
 H         -0.224 -0.381 -0.107   -0.122 -0.208 -0.058   -0.167 -0.280 -0.083
 H         -0.003 -0.000 -0.034   -0.016 -0.002 -0.147   -0.032 -0.004 -0.238
 H          0.018 -0.000 -0.006    0.196  0.009 -0.079    0.601  0.026 -0.248
 H          0.028  0.006 -0.016   -0.058 -0.016  0.037    0.049  0.003 -0.023
 H          0.102 -0.141  0.045   -0.344  0.473 -0.151   -0.127  0.171 -0.059
 H          0.662  0.048 -0.366    0.176  0.014 -0.098   -0.276 -0.022  0.152
 N         -0.000 -0.000 -0.000    0.000  0.000 -0.000    0.000  0.000  0.000
 H         -0.000 -0.002 -0.002   -0.000  0.000 -0.002   -0.000 -0.000  0.003
 C          0.000  0.000 -0.000   -0.000  0.000 -0.000   -0.001 -0.000  0.000
 H         -0.000  0.000 -0.000   -0.000 -0.000 -0.000    0.000  0.000  0.000
 O          0.000  0.000  0.000    0.000  0.000  0.000    0.000  0.000 -0.000
 TransDip  -0.021  0.064  0.082   -0.001 -0.053  0.219    0.040  0.025  0.137

 Mode:                55                     56                     57
 Frequency:      3041.56                3050.65                3068.32
 Force Cnst:      5.9408                 5.9969                 5.9928
 Red. Mass:       1.0899                 1.0937                 1.0804
 IR Active:          YES                    YES                    YES
 IR Intens:       82.361                113.871                 25.607
 Raman Active:       YES                    YES                    YES
               X      Y      Z        X      Y      Z        X      Y      Z
 C          0.022 -0.010 -0.019   -0.013  0.005  0.010   -0.001  0.018  0.012
 C         -0.001  0.001  0.001    0.020  0.001 -0.011   -0.063 -0.003  0.037
 C         -0.017 -0.010  0.015   -0.011 -0.005  0.009    0.006 -0.021  0.011
 C         -0.040 -0.039 -0.003   -0.035 -0.029  0.001   -0.008 -0.007 -0.000
 C         -0.000 -0.000 -0.000   -0.046 -0.002  0.026   -0.006 -0.000  0.003
 C          0.041 -0.032  0.003   -0.036  0.024  0.001   -0.008  0.005  0.000
 H         -0.072  0.092 -0.030   -0.032  0.043 -0.013   -0.178  0.242 -0.084
 H          0.017  0.004 -0.010   -0.233 -0.011  0.136    0.759  0.035 -0.434
 H         -0.335 -0.005  0.188    0.182  0.002 -0.105    0.136  0.001 -0.071
 H          0.077  0.120  0.034   -0.034 -0.056 -0.016   -0.127 -0.211 -0.065
 H          0.190 -0.011 -0.107    0.210 -0.012 -0.114    0.046 -0.003 -0.028
 H          0.285  0.485  0.143    0.206  0.356  0.103    0.048  0.080  0.023
 H          0.000 -0.002  0.004   -0.015 -0.002 -0.091   -0.001 -0.000 -0.006
 H          0.000 -0.004 -0.000    0.562  0.024 -0.231    0.069  0.003 -0.028
 H         -0.189 -0.027  0.107    0.208  0.030 -0.114    0.050  0.007 -0.030
 H         -0.302  0.416 -0.139    0.226 -0.315  0.104    0.052 -0.070  0.023
 H          0.265  0.019 -0.148    0.161  0.012 -0.093    0.102  0.008 -0.050
 N         -0.000 -0.000  0.000   -0.000 -0.000 -0.000    0.001  0.000  0.001
 H          0.000 -0.002 -0.000    0.002  0.000 -0.003   -0.009 -0.000  0.002
 C         -0.000  0.000 -0.000    0.001  0.000 -0.000   -0.002 -0.000  0.000
 H         -0.000  0.000  0.000   -0.000 -0.000 -0.001    0.000  0.000  0.001
 O          0.000 -0.000 -0.000   -0.000 -0.000  0.000    0.000  0.000 -0.001
 TransDip   0.018 -0.290 -0.009   -0.340 -0.025  0.030   -0.061  0.003  0.150

 Mode:                58                     59                     60
 Frequency:      3090.93                3096.91                3588.20
 Force Cnst:      6.1761                 6.2074                 8.1832
 Red. Mass:       1.0972                 1.0985                 1.0787
 IR Active:          YES                    YES                    YES
 IR Intens:       28.922                 23.711                 36.415
 Raman Active:       YES                    YES                    YES
               X      Y      Z        X      Y      Z        X      Y      Z
 C         -0.022 -0.025 -0.004   -0.058 -0.059 -0.005   -0.000 -0.000  0.000
 C          0.013  0.000 -0.007   -0.020 -0.001  0.010    0.001 -0.000  0.001
 C          0.063 -0.053  0.006   -0.023  0.018 -0.001   -0.000  0.000  0.000
 C          0.005 -0.001 -0.003   -0.003  0.000  0.002   -0.000 -0.000  0.000
 C          0.001  0.001 -0.001   -0.002  0.000  0.002   -0.000 -0.000  0.000
 C         -0.001 -0.001  0.001   -0.005 -0.002  0.004   -0.000  0.000  0.000
 H         -0.475  0.662 -0.230    0.159 -0.222  0.076    0.000 -0.001 -0.000
 H         -0.146 -0.009  0.082    0.225  0.009 -0.126   -0.006  0.000  0.007
 H          0.078 -0.002 -0.048    0.288 -0.011 -0.167    0.000  0.001 -0.001
 H          0.175  0.299  0.094    0.408  0.700  0.219    0.000  0.001 -0.000
 H         -0.064  0.002  0.037    0.034 -0.002 -0.020    0.000  0.000 -0.000
 H          0.004  0.007  0.003   -0.001 -0.002 -0.001    0.000  0.000  0.000
 H          0.000 -0.001  0.006   -0.001 -0.000 -0.010    0.000  0.000  0.000
 H         -0.016  0.001  0.006    0.027  0.002 -0.009    0.000  0.000 -0.000
 H          0.011  0.001 -0.006    0.065  0.008 -0.039    0.000 -0.000  0.000
 H         -0.004  0.006 -0.002   -0.005  0.008 -0.004    0.000 -0.000  0.000
 H         -0.277 -0.034  0.162    0.123  0.016 -0.070    0.000 -0.001 -0.001
 N         -0.000  0.000 -0.000    0.001  0.000  0.000    0.051  0.012 -0.052
 H          0.002 -0.001  0.000   -0.003  0.000 -0.001   -0.690 -0.154  0.703
 C          0.000 -0.000 -0.000   -0.001 -0.000  0.000   -0.001 -0.000 -0.002
 H         -0.000 -0.000 -0.000    0.000  0.000  0.000    0.002  0.000  0.002
 O         -0.000  0.000  0.000    0.000  0.000 -0.000   -0.001 -0.000  0.001
 TransDip   0.080 -0.151 -0.023   -0.137 -0.065  0.035   -0.146 -0.036  0.121

 STANDARD THERMODYNAMIC QUANTITIES AT   298.18 K  AND     1.00 ATM

   This Molecule has  0 Imaginary Frequencies
   Zero point vibrational energy:      121.936 kcal/mol

   Atom    1 Element C  Has Mass   12.00000
   Atom    2 Element C  Has Mass   12.00000
   Atom    3 Element C  Has Mass   12.00000
   Atom    4 Element C  Has Mass   12.00000
   Atom    5 Element C  Has Mass   12.00000
   Atom    6 Element C  Has Mass   12.00000
   Atom    7 Element H  Has Mass    1.00783
   Atom    8 Element H  Has Mass    1.00783
   Atom    9 Element H  Has Mass    1.00783
   Atom   10 Element H  Has Mass    1.00783
   Atom   11 Element H  Has Mass    1.00783
   Atom   12 Element H  Has Mass    1.00783
   Atom   13 Element H  Has Mass    1.00783
   Atom   14 Element H  Has Mass    1.00783
   Atom   15 Element H  Has Mass    1.00783
   Atom   16 Element H  Has Mass    1.00783
   Atom   17 Element H  Has Mass    1.00783
   Atom   18 Element N  Has Mass   14.00307
   Atom   19 Element H  Has Mass    1.00783
   Atom   20 Element C  Has Mass   12.00000
   Atom   21 Element H  Has Mass    2.01410
   Atom   22 Element O  Has Mass   15.99491
   Molecular Mass:   128.106042 amu
   Principal axes and moments of inertia in amu*Bohr^2:
                             1           2           3
    Eigenvalues --      561.68430  1947.95519  2139.63427
          X               0.66353     0.00771     0.74811
          Y               0.10997     0.98808    -0.10772
          Z               0.74002    -0.15375    -0.65478
   Rotational Symmetry Number is   1
   The Molecule is an Asymmetric Top
   Translational Enthalpy:        0.889 kcal/mol
   Rotational Enthalpy:           0.889 kcal/mol
   Vibrational Enthalpy:        125.755 kcal/mol
   gas constant (RT):             0.593 kcal/mol
   Translational Entropy:        40.457  cal/mol.K
   Rotational Entropy:           29.239  cal/mol.K
   Vibrational Entropy:          24.911  cal/mol.K

   Total Enthalpy:              128.125 kcal/mol
   Total Entropy:                94.607  cal/mol.K
Archival summary:
1\1\node026\FREQ\ProcedureUnspecified\6-31+G*\11713\ymao90\SunMar706:03:012021SunMar706:03:012021\0\\#,FREQ,ProcedureUnspecified,6-31+G*,\\0,1\N\H,1,1.01435\C,1,1.36762,2,118.194\H,3,1.10148,1,113.354,2,2.35454,0\O,3,1.22708,1,123.782,2,-177.953,0\C,1,1.4548,2,120.341,3,-176.823,0\H,6,1.09639,1,104.083,2,-171.904,0\C,6,1.53779,1,112.6,2,-54.7357,0\H,8,1.09619,6,109.62,1,-53.186,0\H,8,1.10024,6,109.937,1,63.9173,0\C,8,1.53983,6,110.367,1,-175.078,0\H,11,1.09942,8,110.079,6,-178.382,0\H,11,1.10261,8,108.676,6,65.1585,0\C,11,1.53918,8,111.943,6,-55.4017,0\H,14,1.1001,11,109.048,8,-67.3728,0\H,14,1.1034,11,110.113,8,176.036,0\C,14,1.53886,11,111.723,8,53.2361,0\H,17,1.09955,14,110.269,11,-175.996,0\H,17,1.10259,14,109.189,11,67.1357,0\C,17,1.53874,14,111.723,11,-53.152,0\H,20,1.09581,17,110.569,14,176.628,0\H,20,1.09996,17,109.8,14,-65.7164,0\\\@

 Total job time:  5307.95s(wall), 83223.46s(cpu) 
 Sun Mar  7 06:03:01 2021

        *************************************************************
        *                                                           *
        *  Thank you very much for using Q-Chem.  Have a nice day.  *
        *                                                           *
        *************************************************************


