                  Welcome to Q-Chem
     A Quantum Leap Into The Future Of Chemistry


 Q-Chem 5.2 (devel), Q-Chem, Inc., Pleasanton, CA (2019)

 Yihan Shao,  Zhengting Gan,  E. Epifanovsky,  A. T. B. Gilbert,  M. Wormit,  
 J. Kussmann,  A. W. Lange,  A. Behn,  Jia Deng,  Xintian Feng,  D. Ghosh,  
 M. Goldey,  P. R. Horn,  L. D. Jacobson,  I. Kaliman,  T. Kus,  A. Landau,  
 Jie Liu,  E. I. Proynov,  R. M. Richard,  R. P. Steele,  E. J. Sundstrom,  
 H. L. Woodcock III,  P. M. Zimmerman,  D. Zuev,  B. Alam,  B. Albrecht,  
 E. Alguire,  S. A. Baeppler,  D. Barton,  Z. Benda,  Y. A. Bernard,  
 E. J. Berquist,  K. B. Bravaya,  H. Burton,  K. Carter-Fenk,  D. Casanova,  
 Chun-Min Chang,  Yunqing Chen,  A. Chien,  K. D. Closser,  M. P. Coons,  
 S. Coriani,  S. Dasgupta,  A. L. Dempwolff,  M. Diedenhofen,  Hainam Do,  
 R. G. Edgar,  Po-Tung Fang,  S. Faraji,  S. Fatehi,  Qingguo Feng,  
 J. Fosso-Tande,  J. Gayvert,  Qinghui Ge,  A. Ghysels,  G. Gidofalvi,  
 J. Gomes,  J. Gonthier,  A. Gunina,  D. Hait,  M. W. D. Hanson-Heine,  
 P. H. P. Harbach,  A. W. Hauser,  M. F. Herbst,  J. E. Herr,  
 E. G. Hohenstein,  Z. C. Holden,  Kerwin Hui,  B. C. Huynh,  T.-C. Jagau,  
 Hyunjun Ji,  B. Kaduk,  K. Khistyaev,  Jaehoon Kim,  P. Klunzinger,  K. Koh,  
 D. Kosenkov,  L. Koulias,  T. Kowalczyk,  C. M. Krauter,  A. Kunitsa,  
 Ka Un Lao,  A. Laurent,  K. V. Lawler,  Joonho Lee,  D. Lefrancois,  
 S. Lehtola,  D. S. Levine,  Yi-Pei Li,  You-Sheng Lin,  Fenglai Liu,  
 Kuan-Yu Liu,  E. Livshits,  M. Loipersberger,  A. Luenser,  P. Manohar,  
 E. Mansoor,  S. F. Manzer,  Shan-Ping Mao,  Yuezhi Mao,  N. Mardirossian,  
 A. V. Marenich,  T. Markovich,  L. A. Martinez-Martinez,  S. A. Maurer,  
 N. J. Mayhall,  S. C. McKenzie,  J.-M. Mewes,  P. Morgante,  A. F. Morrison,  
 J. W. Mullinax,  K. Nanda,  T. S. Nguyen-Beck,  R. Olivares-Amaya,  
 J. A. Parkhill,  S. K. Paul,  F. Pavosevic,  Zheng Pei,  T. M. Perrine,  
 F. Plasser,  P. Pokhilko,  S. Prager,  A. Prociuk,  E. Ramos,  B. Rana,  
 D. R. Rehn,  F. Rob,  M. Scheurer,  M. Schneider,  N. Sergueev,  
 S. M. Sharada,  S. Sharma,  D. W. Small,  T. Stauch,  C. J. Stein,  
 T. Stein,  Yu-Chuan Su,  S. P. Veccham,  Zhen Tao,  A. J. W. Thom,  
 A. Tkatchenko,  T. Tsuchimochi,  N. M. Tubman,  L. Vogt,  M. L. Vidal,  
 O. Vydrov,  M. A. Watson,  J. Wenzel,  M. de Wergifosse,  T. A. Wesolowski,  
 A. White,  J. Witte,  A. Yamada,  Jun Yang,  K. Yao,  S. Yeganeh,  
 S. R. Yost,  Zhi-Qiang You,  A. Zech,  Igor Ying Zhang,  Xing Zhang,  
 Yan Zhao,  Ying Zhu,  B. R. Brooks,  G. K. L. Chan,  C. J. Cramer,  
 M. S. Gordon,  W. J. Hehre,  A. Klamt,  M. W. Schmidt,  C. D. Sherrill,  
 D. G. Truhlar,  A. Aspuru-Guzik,  R. Baer,  A. T. Bell,  N. A. Besley,  
 Jeng-Da Chai,  A. E. DePrince, III,  R. A. DiStasio Jr.,  A. Dreuw,  
 B. D. Dunietz,  T. R. Furlani,  Chao-Ping Hsu,  Yousung Jung,  Jing Kong,  
 D. S. Lambrecht,  WanZhen Liang,  C. Ochsenfeld,  V. A. Rassolov,  
 L. V. Slipchenko,  J. E. Subotnik,  T. Van Voorhis,  J. M. Herbert,  
 A. I. Krylov,  P. M. W. Gill,  M. Head-Gordon

 Contributors to earlier versions of Q-Chem not listed above: 
 R. D. Adamson,  B. Austin,  J. Baker,  G. J. O. Beran,  K. Brandhorst,  
 S. T. Brown,  E. F. C. Byrd,  A. K. Chakraborty,  C.-L. Cheng,  
 Siu Hung Chien,  D. M. Chipman,  D. L. Crittenden,  H. Dachsel,  
 R. J. Doerksen,  A. D. Dutoi,  L. Fusti-Molnar,  W. A. Goddard III,  
 A. Golubeva-Zadorozhnaya,  S. R. Gwaltney,  G. Hawkins,  A. Heyden,  
 S. Hirata,  G. Kedziora,  F. J. Keil,  C. Kelley,  Jihan Kim,  R. A. King,  
 R. Z. Khaliullin,  P. P. Korambath,  W. Kurlancheek,  A. M. Lee,  M. S. Lee,  
 S. V. Levchenko,  Ching Yeh Lin,  D. Liotard,  R. C. Lochan,  I. Lotan,  
 P. E. Maslen,  N. Nair,  D. P. O'Neill,  D. Neuhauser,  E. Neuscamman,  
 C. M. Oana,  R. Olson,  B. Peters,  R. Peverati,  P. A. Pieniazek,  
 Y. M. Rhee,  J. Ritchie,  M. A. Rohrdanz,  E. Rosta,  N. J. Russ,  
 H. F. Schaefer III,  N. E. Schultz,  N. Shenvi,  A. C. Simmonett,  A. Sodt,  
 D. Stuck,  K. S. Thanthiriwatte,  V. Vanovschi,  Tao Wang,  A. Warshel,  
 C. F. Williams,  Q. Wu,  X. Xu,  W. Zhang

 Please cite Q-Chem as follows:
 Y. Shao et al., Mol. Phys. 113, 184-215 (2015)
 DOI: 10.1080/00268976.2014.952696

 Q-Chem 5.2.2 for Intel X86 EM64T Linux

 Parts of Q-Chem use Armadillo 9.800.1 (Horizon Scraper).
 http://arma.sourceforge.net/

 Q-Chem begins on Sun Mar  7 04:25:57 2021  

Host: node023
0

     Scratch files written to /home/ymao90/scratch/CCX_CD_+4020210307030514//

Checking the input file for inconsistencies... 	...done.

--------------------------------------------------------------
User input:
--------------------------------------------------------------
$molecule
0 1
C     -2.4083508923    0.9984834764   -2.3662547437
C     -1.5543120384   -0.2118403749   -1.9459885704
C     -2.2384976761   -1.5367925874   -2.3261896725
C     -2.5867463449   -1.5816552836   -3.8234193167
C     -3.4377297730   -0.3731774783   -4.2445934317
C     -2.7551397527    0.9499468362   -3.8636626912
H     -1.5849547626   -2.3750094827   -2.0545927530
H     -0.5831065672   -0.1532425547   -2.4485260558
H     -3.3388117820    1.0024650072   -1.7759883684
H     -1.8720534969    1.9234708349   -2.1213670712
H     -1.6555784977   -1.5918293252   -4.4093866053
H     -3.1102152921   -2.5181807775   -4.0551406051
H     -3.6290653549   -0.4033428377   -5.3251377272
H     -4.4201020066   -0.4306546907   -3.7508934023
H     -1.8320207629    1.0648782183   -4.4511997179
H     -3.3973970401    1.8010825553   -4.1242295555
H     -3.1618885583   -1.6469527918   -1.7346449512
N     -1.2474445251   -0.1731895513   -0.5151412109
H     -2.0131265263   -0.2687147311    0.1418849346
C      0.0000000000    0.0000000000    0.0000000000
H      0.0000000000    0.0000000000    1.1070732462
O      1.0278769477    0.1402881570   -0.6492362509
$end

$rem
JOBTYPE  OPT
METHOD  B3LYP
BASIS  6-31+G(D)
SYMMETRY  FALSE
SYM_IGNORE  TRUE
MEM_TOTAL  8000
MEM_STATIC  2000
MAX_SUB_FILE_NUM  16000
BASIS_LIN_DEP_THRESH  6
THRESH  14
SCF_CONVERGENCE  9
GEN_SCFMAN  TRUE
SCF_GUESS  SAD
FD_MAT_VEC_PROD  FALSE
XC_GRID  000099000590
NL_GRID  1
MAX_SCF_CYCLES  200
GEOM_OPT_TOL_GRADIENT  100
GEOM_OPT_TOL_DISPLACEMENT  100
GEOM_OPT_TOL_ENERGY  10
$end

$multipole_field
Z   -0.007779
$end


--------------------------------------------------------------
 ----------------------------------------------------------------
             Standard Nuclear Orientation (Angstroms)
    I     Atom           X                Y                Z
 ----------------------------------------------------------------
    1      C      -2.4083508923     0.9984834764    -2.3662547437
    2      C      -1.5543120384    -0.2118403749    -1.9459885704
    3      C      -2.2384976761    -1.5367925874    -2.3261896725
    4      C      -2.5867463449    -1.5816552836    -3.8234193167
    5      C      -3.4377297730    -0.3731774783    -4.2445934317
    6      C      -2.7551397527     0.9499468362    -3.8636626912
    7      H      -1.5849547626    -2.3750094827    -2.0545927530
    8      H      -0.5831065672    -0.1532425547    -2.4485260558
    9      H      -3.3388117820     1.0024650072    -1.7759883684
   10      H      -1.8720534969     1.9234708349    -2.1213670712
   11      H      -1.6555784977    -1.5918293252    -4.4093866053
   12      H      -3.1102152921    -2.5181807775    -4.0551406051
   13      H      -3.6290653549    -0.4033428377    -5.3251377272
   14      H      -4.4201020066    -0.4306546907    -3.7508934023
   15      H      -1.8320207629     1.0648782183    -4.4511997179
   16      H      -3.3973970401     1.8010825553    -4.1242295555
   17      H      -3.1618885583    -1.6469527918    -1.7346449512
   18      N      -1.2474445251    -0.1731895513    -0.5151412109
   19      H      -2.0131265263    -0.2687147311     0.1418849346
   20      C       0.0000000000     0.0000000000     0.0000000000
   21      H       0.0000000000     0.0000000000     1.1070732462
   22      O       1.0278769477     0.1402881570    -0.6492362509
 ----------------------------------------------------------------
 Nuclear Repulsion Energy =         466.63298041 hartrees
 There are       35 alpha and       35 beta electrons
 Requested basis set is 6-31+G(d)
 There are 71 shells and 197 basis functions

 Total QAlloc Memory Limit   8000 MB
 Mega-Array Size      1956 MB
 MEM_STATIC part      2000 MB
 Applying Cartesian multipole field
    Component          Value
    ---------          -----
     (0,0,1)       -7.77900E-03
 Nucleus-field energy     =     2.2818012283 hartrees
 A cutoff of  1.0D-14 yielded   2413 shell pairs
 There are     18998 function pairs
 Smallest overlap matrix eigenvalue = 2.48E-05
 Guess from superposition of atomic densities
 Warning:  Energy on first SCF cycle will be non-variational
 SAD guess density has 70.000000 electrons

 -----------------------------------------------------------------------
  General SCF calculation program by
  Eric Jon Sundstrom, Paul Horn, Yuezhi Mao, Dmitri Zuev, Alec White,
  David Stuck, Shaama M.S., Shane Yost, Joonho Lee, David Small,
  Daniel Levine, Susi Lehtola, Hugh Burton, Evgeny Epifanovsky,
  Bang C. Huynh
 -----------------------------------------------------------------------
 Exchange:     0.2000 Hartree-Fock + 0.0800 Slater + 0.7200 B88
 Correlation:  0.1900 VWN1RPA + 0.8100 LYP
 Using Euler-Maclaurin-Lebedev (99,590) quadrature formula
 using 16 threads for integral computing
 -------------------------------------------------------
 OpenMP Integral computing Module                
 Release: version 2.0, May 2017, Q-Chem Inc. Pleasanton 
 -------------------------------------------------------
 A restricted SCF calculation will be
 performed using DIIS
 SCF converges when DIIS error is below 1.0e-09
 ---------------------------------------
  Cycle       Energy         DIIS error
 ---------------------------------------
    1    -406.2319617827      5.08e-02  
    2    -404.3783484107      6.70e-03  
    3    -403.9858203517      1.20e-02  
    4    -404.5607669559      2.66e-03  
    5    -404.5887013071      6.64e-04  
    6    -404.5904291036      1.95e-04  
    7    -404.5905783923      7.01e-05  
    8    -404.5905993200      1.27e-05  
    9    -404.5905999611      4.35e-06  
   10    -404.5906000401      7.70e-07  
   11    -404.5906000425      3.06e-07  
   12    -404.5906000429      4.87e-08  
   13    -404.5906000429      1.18e-08  
   14    -404.5906000429      4.80e-09  
   15    -404.5906000429      1.19e-09  
   16    -404.5906000429      2.60e-10  Convergence criterion met
 ---------------------------------------
 SCF time:   CPU 775.81s  wall 49.00s 
 SCF   energy in the final basis set =     -404.5906000429
 Total energy in the final basis set =     -404.5906000429
 
 --------------------------------------------------------------
 
                    Orbital Energies (a.u.)
 --------------------------------------------------------------
 
 Alpha MOs
 -- Occupied --
-19.1394 -14.3891 -10.3019 -10.2633 -10.2455 -10.2426 -10.2424 -10.2303
-10.2294  -1.0506  -0.9529  -0.8770  -0.7958  -0.7890  -0.6770  -0.6653
 -0.6196  -0.6143  -0.5570  -0.5227  -0.5009  -0.4939  -0.4893  -0.4530
 -0.4494  -0.4332  -0.4267  -0.4051  -0.3986  -0.3976  -0.3793  -0.3661
 -0.3595  -0.2791  -0.2736
 -- Virtual --
 -0.0676  -0.0425  -0.0373  -0.0246  -0.0016   0.0005   0.0029   0.0054
  0.0114   0.0118   0.0402   0.0431   0.0434   0.0523   0.0539   0.0540
  0.0623   0.0762   0.0874   0.0968   0.1021   0.1076   0.1114   0.1180
  0.1252   0.1316   0.1358   0.1432   0.1557   0.1575   0.1747   0.1749
  0.1787   0.1817   0.1952   0.1990   0.2212   0.2277   0.2312   0.2329
  0.2417   0.2463   0.2543   0.2584   0.2614   0.2738   0.2864   0.2892
  0.2948   0.3115   0.3160   0.3254   0.3283   0.3629   0.3641   0.3790
  0.4112   0.4150   0.4803   0.5601   0.5862   0.5986   0.6093   0.6221
  0.6287   0.6502   0.6742   0.6861   0.7086   0.7119   0.7419   0.7456
  0.7535   0.7696   0.7912   0.8006   0.8196   0.8842   0.9173   0.9210
  0.9300   0.9401   0.9677   0.9950   1.0003   1.0158   1.0427   1.0507
  1.0698   1.0701   1.0755   1.0969   1.1186   1.1246   1.1386   1.1413
  1.1981   1.2430   1.2759   1.3067   1.3296   1.3402   1.3478   1.3742
  1.4511   1.4583   1.4604   1.5177   1.5443   1.5850   1.6719   1.6795
  1.6873   1.7126   1.7439   1.7708   1.8305   1.8398   1.8533   1.8573
  1.8655   1.9144   1.9346   1.9620   1.9651   2.0005   2.0137   2.0413
  2.0521   2.0959   2.1549   2.1813   2.2414   2.2763   2.2802   2.2989
  2.3462   2.3646   2.3649   2.3816   2.4086   2.5312   2.5502   2.5897
  2.6176   2.6529   2.6657   2.7051   2.7397   2.7913   2.8419   3.0014
  3.1745   4.0616   4.1548   4.2167   4.2404   4.2906   4.4075   4.5414
  4.5543   4.6316
 --------------------------------------------------------------
 
          Ground-State Mulliken Net Atomic Charges

     Atom                 Charge (a.u.)
  ----------------------------------------
      1 C                    -0.219493
      2 C                    -0.547284
      3 C                    -0.246991
      4 C                    -0.438379
      5 C                    -0.375273
      6 C                    -0.440576
      7 H                     0.221216
      8 H                     0.233571
      9 H                     0.209035
     10 H                     0.220814
     11 H                     0.188349
     12 H                     0.188501
     13 H                     0.163719
     14 H                     0.204112
     15 H                     0.188374
     16 H                     0.187695
     17 H                     0.208390
     18 N                    -0.383496
     19 H                     0.411668
     20 C                     0.341316
     21 H                     0.181493
     22 O                    -0.496761
  ----------------------------------------
  Sum of atomic charges =     0.000000

 -----------------------------------------------------------------
                    Cartesian Multipole Moments
 -----------------------------------------------------------------
    Charge (ESU x 10^10)
                -0.0000
    Dipole Moment (Debye)
         X      -3.9026      Y      -0.5243      Z       2.1230
       Tot       4.4735
    Quadrupole Moments (Debye-Ang)
        XX     -56.2934     XY       0.1052     YY     -57.1019
        XZ      -0.3758     YZ       0.0521     ZZ     -60.7789
    Octopole Moments (Debye-Ang^2)
       XXX     292.2017    XXY      10.0594    XYY     101.9966
       YYY      35.9903    XXZ     140.9427    XYZ       1.1183
       YYZ     131.2907    XZZ     116.6892    YZZ      13.3230
       ZZZ     421.8220
    Hexadecapole Moments (Debye-Ang^3)
      XXXX   -1782.8181   XXXY     -86.9571   XXYY    -367.8123
      XYYY     -89.9016   YYYY    -404.4758   XXXZ   -1025.8177
      XXYZ     -40.5935   XYYZ    -333.6565   YYYZ    -113.8592
      XXZZ    -810.6114   XYZZ     -35.5605   YYZZ    -528.1473
      XZZZ   -1099.3741   YZZZ    -123.3109   ZZZZ   -2861.6703
 -----------------------------------------------------------------
 Calculating analytic gradient of the SCF energy
 Gradient of SCF Energy
            1           2           3           4           5           6
    1   0.0005367  -0.0010415   0.0005675   0.0004648  -0.0000459   0.0004698
    2   0.0001017  -0.0001033   0.0000583   0.0001286   0.0000002  -0.0001698
    3  -0.0003709  -0.0042210  -0.0003530  -0.0008820  -0.0010569  -0.0009007
            7           8           9          10          11          12
    1   0.0004409  -0.0006929  -0.0007106   0.0003617  -0.0008771   0.0005275
    2  -0.0003242  -0.0000764  -0.0003671   0.0003465  -0.0002895   0.0005561
    3  -0.0000475  -0.0000023   0.0004566  -0.0000551   0.0004929   0.0001059
           13          14          15          16          17          18
    1   0.0005160  -0.0004562  -0.0009308   0.0006251  -0.0007634   0.0038672
    2   0.0000744  -0.0000277   0.0002036  -0.0005101   0.0002960   0.0004948
    3   0.0019567  -0.0000704   0.0004851   0.0001538   0.0004666   0.0050291
           19          20          21          22
    1  -0.0001038  -0.0032206  -0.0002195   0.0006852
    2  -0.0000133  -0.0003914  -0.0000482   0.0000610
    3  -0.0008434  -0.0067612   0.0019260   0.0044916
 Max gradient component =       6.761E-03
 RMS gradient           =       1.535E-03
 Gradient time:  CPU 124.32 s  wall 7.95 s
 Geometry Optimization Parameters
   NAtoms,    NIC,     NZ,  NCons,   NDum,   NFix, NCnnct, MaxDiis
       22     172       0       0       0       0       0       0


** GEOMETRY OPTIMIZATION IN DELOCALIZED INTERNAL COORDINATES **
   Searching for a Minimum

   Optimization Cycle:   1

                       Coordinates (Angstroms)
     ATOM                X               Y               Z
      1  C        -2.4083508923    0.9984834764   -2.3662547437
      2  C        -1.5543120384   -0.2118403749   -1.9459885704
      3  C        -2.2384976761   -1.5367925874   -2.3261896725
      4  C        -2.5867463449   -1.5816552836   -3.8234193167
      5  C        -3.4377297730   -0.3731774783   -4.2445934317
      6  C        -2.7551397527    0.9499468362   -3.8636626912
      7  H        -1.5849547626   -2.3750094827   -2.0545927530
      8  H        -0.5831065672   -0.1532425547   -2.4485260558
      9  H        -3.3388117820    1.0024650072   -1.7759883684
     10  H        -1.8720534969    1.9234708349   -2.1213670712
     11  H        -1.6555784977   -1.5918293252   -4.4093866053
     12  H        -3.1102152921   -2.5181807775   -4.0551406051
     13  H        -3.6290653549   -0.4033428377   -5.3251377272
     14  H        -4.4201020066   -0.4306546907   -3.7508934023
     15  H        -1.8320207629    1.0648782183   -4.4511997179
     16  H        -3.3973970401    1.8010825553   -4.1242295555
     17  H        -3.1618885583   -1.6469527918   -1.7346449512
     18  N        -1.2474445251   -0.1731895513   -0.5151412109
     19  H        -2.0131265263   -0.2687147311    0.1418849346
     20  C         0.0000000000    0.0000000000    0.0000000000
     21  H         0.0000000000    0.0000000000    1.1070732462
     22  O         1.0278769477    0.1402881570   -0.6492362509
   Point Group: c1    Number of degrees of freedom:    60


   Energy is   -404.590600043


 Attempting to generate delocalized internal coordinates
 Initial Hessian constructed with Jon Baker's OPTIMIZE code

 60 Hessian modes will be used to form the next step
  Hessian Eigenvalues:
     0.005967    0.006024    0.006964    0.007193    0.012605    0.019501
     0.019786    0.020845    0.020845    0.037215    0.038526    0.039417
     0.041724    0.048166    0.048450    0.048891    0.055292    0.055631
     0.055746    0.059934    0.066958    0.081508    0.081536    0.081616
     0.082032    0.082133    0.084029    0.087513    0.120967    0.121178
     0.142989    0.159989    0.160000    0.160554    0.174868    0.210947
     0.220000    0.220003    0.272263    0.272658    0.275535    0.286789
     0.287121    0.287175    0.329119    0.334466    0.334727    0.335769
     0.336541    0.336553    0.339301    0.339441    0.339454    0.340119
     0.340274    0.342312    0.364811    0.454000    0.528079    0.937134

 Minimum search - taking simple RFO step
 Searching for Lamda that Minimizes Along All modes
 Value Taken    Lamda =  -0.00108146
 Step Taken.  Stepsize is  0.174791

                             Maximum     Tolerance    Cnvgd?
         Gradient           0.010855      0.000100      NO
         Displacement       0.101219      0.000100      NO
         Energy change     *********      0.000000      NO


 New Cartesian Coordinates Obtained by Inverse Iteration

 Displacement from previous Coordinates is:  0.534101
 ----------------------------------------------------------------
             Standard Nuclear Orientation (Angstroms)
    I     Atom           X                Y                Z
 ----------------------------------------------------------------
    1      C      -2.4434828440     0.9931559374    -2.3416533560
    2      C      -1.5928093407    -0.2166890888    -1.9154051486
    3      C      -2.2750343084    -1.5395580428    -2.3043222306
    4      C      -2.5747520332    -1.5832566003    -3.8127203199
    5      C      -3.4051308531    -0.3700175992    -4.2655865378
    6      C      -2.7420224213     0.9543359036    -3.8501822297
    7      H      -1.6329715104    -2.3791599525    -2.0134828035
    8      H      -0.6236500922    -0.1579027921    -2.4237616167
    9      H      -3.3886597730     0.9906785937    -1.7778260534
   10      H      -1.9179195572     1.9174133458    -2.0749328261
   11      H      -1.6218116815    -1.5943910704    -4.3659774899
   12      H      -3.0934380289    -2.5186585855    -4.0641196328
   13      H      -3.5536063247    -0.3961371746    -5.3562213847
   14      H      -4.4055920848    -0.4292314512    -3.8118249547
   15      H      -1.7973048331     1.0743118625    -4.4047027952
   16      H      -3.3783296809     1.8059735470    -4.1281343317
   17      H      -3.2137379731    -1.6468239846    -1.7394855583
   18      N      -1.2545203679    -0.1752684163    -0.4971435293
   19      H      -1.9924638329    -0.2682219942     0.1922593192
   20      C       0.0207759454     0.0029804517    -0.0500134747
   21      H       0.0953895609     0.0132033495     1.0516101682
   22      O       0.9924073325     0.1392963798    -0.7830077339
 ----------------------------------------------------------------
 Nuclear Repulsion Energy =         467.80104295 hartrees
 There are       35 alpha and       35 beta electrons
 Applying Cartesian multipole field
    Component          Value
    ---------          -----
     (0,0,1)       -7.77900E-03
 Nucleus-field energy     =     2.2917574931 hartrees
 Requested basis set is 6-31+G(d)
 There are 71 shells and 197 basis functions
 A cutoff of  1.0D-14 yielded   2416 shell pairs
 There are     19034 function pairs
 Smallest overlap matrix eigenvalue = 2.53E-05
 Guess MOs from SCF MO coefficient file

 -----------------------------------------------------------------------
  General SCF calculation program by
  Eric Jon Sundstrom, Paul Horn, Yuezhi Mao, Dmitri Zuev, Alec White,
  David Stuck, Shaama M.S., Shane Yost, Joonho Lee, David Small,
  Daniel Levine, Susi Lehtola, Hugh Burton, Evgeny Epifanovsky,
  Bang C. Huynh
 -----------------------------------------------------------------------
 Exchange:     0.2000 Hartree-Fock + 0.0800 Slater + 0.7200 B88
 Correlation:  0.1900 VWN1RPA + 0.8100 LYP
 Using Euler-Maclaurin-Lebedev (99,590) quadrature formula
 using 16 threads for integral computing
 -------------------------------------------------------
 OpenMP Integral computing Module                
 Release: version 2.0, May 2017, Q-Chem Inc. Pleasanton 
 -------------------------------------------------------
 A restricted SCF calculation will be
 performed using DIIS
 SCF converges when DIIS error is below 1.0e-09
 ---------------------------------------
  Cycle       Energy         DIIS error
 ---------------------------------------
    1    -404.5844549840      9.27e-04  
    2    -404.5910813008      1.36e-04  
    3    -404.5909882452      2.17e-04  
    4    -404.5911694293      4.80e-05  
    5    -404.5911771724      1.46e-05  
    6    -404.5911780727      1.93e-06  
    7    -404.5911780867      8.89e-07  
    8    -404.5911780906      1.05e-07  
    9    -404.5911780907      3.85e-08  
   10    -404.5911780907      6.51e-09  
   11    -404.5911780907      2.03e-09  
   12    -404.5911780907      8.21e-10  Convergence criterion met
 ---------------------------------------
 SCF time:   CPU 588.69s  wall 37.00s 
 SCF   energy in the final basis set =     -404.5911780907
 Total energy in the final basis set =     -404.5911780907
 
 --------------------------------------------------------------
 
                    Orbital Energies (a.u.)
 --------------------------------------------------------------
 
 Alpha MOs
 -- Occupied --
-19.1406 -14.3887 -10.3032 -10.2602 -10.2450 -10.2418 -10.2415 -10.2287
-10.2277  -1.0528  -0.9518  -0.8754  -0.7943  -0.7871  -0.6759  -0.6637
 -0.6192  -0.6142  -0.5570  -0.5221  -0.5008  -0.4927  -0.4877  -0.4519
 -0.4491  -0.4320  -0.4282  -0.4053  -0.3965  -0.3954  -0.3776  -0.3651
 -0.3583  -0.2790  -0.2755
 -- Virtual --
 -0.0666  -0.0417  -0.0360  -0.0239  -0.0023   0.0010   0.0042   0.0045
  0.0126   0.0131   0.0400   0.0438   0.0443   0.0525   0.0542   0.0553
  0.0630   0.0755   0.0870   0.0974   0.1013   0.1085   0.1138   0.1189
  0.1252   0.1313   0.1381   0.1452   0.1553   0.1581   0.1755   0.1765
  0.1790   0.1841   0.1964   0.1995   0.2215   0.2274   0.2307   0.2323
  0.2425   0.2472   0.2546   0.2590   0.2621   0.2749   0.2879   0.2888
  0.2970   0.3118   0.3173   0.3260   0.3288   0.3593   0.3648   0.3794
  0.4112   0.4166   0.4770   0.5629   0.5868   0.6026   0.6102   0.6246
  0.6304   0.6530   0.6746   0.6881   0.7091   0.7165   0.7457   0.7468
  0.7516   0.7701   0.7900   0.8036   0.8187   0.8777   0.9180   0.9224
  0.9288   0.9421   0.9691   0.9970   0.9980   1.0144   1.0407   1.0511
  1.0694   1.0708   1.0735   1.1013   1.1200   1.1241   1.1391   1.1414
  1.1941   1.2438   1.2775   1.3073   1.3294   1.3418   1.3536   1.3764
  1.4479   1.4562   1.4640   1.5110   1.5444   1.5739   1.6805   1.6889
  1.6924   1.7121   1.7491   1.7696   1.8269   1.8398   1.8576   1.8612
  1.8699   1.9081   1.9440   1.9637   1.9666   2.0025   2.0185   2.0399
  2.0597   2.1030   2.1598   2.1888   2.2446   2.2778   2.2815   2.3005
  2.3452   2.3648   2.3662   2.3798   2.4125   2.5293   2.5553   2.5864
  2.6175   2.6493   2.6666   2.7065   2.7427   2.7932   2.8450   3.0025
  3.1658   4.0625   4.1565   4.2170   4.2403   4.2903   4.4007   4.5456
  4.5573   4.6346
 --------------------------------------------------------------
 
          Ground-State Mulliken Net Atomic Charges

     Atom                 Charge (a.u.)
  ----------------------------------------
      1 C                    -0.227693
      2 C                    -0.543982
      3 C                    -0.258069
      4 C                    -0.428521
      5 C                    -0.377797
      6 C                    -0.430111
      7 H                     0.220891
      8 H                     0.236774
      9 H                     0.208972
     10 H                     0.220651
     11 H                     0.189212
     12 H                     0.187135
     13 H                     0.162621
     14 H                     0.203050
     15 H                     0.189360
     16 H                     0.186340
     17 H                     0.208637
     18 N                    -0.388750
     19 H                     0.412184
     20 C                     0.338330
     21 H                     0.185348
     22 O                    -0.494585
  ----------------------------------------
  Sum of atomic charges =     0.000000

 -----------------------------------------------------------------
                    Cartesian Multipole Moments
 -----------------------------------------------------------------
    Charge (ESU x 10^10)
                 0.0000
    Dipole Moment (Debye)
         X      -3.7257      Y      -0.5088      Z       2.4691
       Tot       4.4984
    Quadrupole Moments (Debye-Ang)
        XX     -56.3435     XY       0.1009     YY     -57.1663
        XZ      -0.2814     YZ       0.0734     ZZ     -61.4913
    Octopole Moments (Debye-Ang^2)
       XXX     294.2783    XXY      10.1656    XYY     102.4851
       YYY      36.1482    XXZ     142.4566    XYZ       1.2373
       YYZ     132.0434    XZZ     117.3348    YZZ      13.3829
       ZZZ     425.1639
    Hexadecapole Moments (Debye-Ang^3)
      XXXX   -1785.7909   XXXY     -87.3488   XXYY    -368.4722
      XYYY     -90.2880   YYYY    -405.5253   XXXZ   -1022.8272
      XXYZ     -40.5866   XYYZ    -332.4129   YYYZ    -113.5603
      XXZZ    -812.3976   XYZZ     -35.8962   YYZZ    -528.2028
      XZZZ   -1097.9633   YZZZ    -123.2863   ZZZZ   -2864.2830
 -----------------------------------------------------------------
 Calculating analytic gradient of the SCF energy
 Gradient of SCF Energy
            1           2           3           4           5           6
    1   0.0000762  -0.0014239   0.0001339  -0.0002493   0.0003687  -0.0002393
    2   0.0001105  -0.0000216  -0.0001986  -0.0001639   0.0000315   0.0000864
    3  -0.0002392  -0.0005822  -0.0003635   0.0001359  -0.0004003   0.0001168
            7           8           9          10          11          12
    1   0.0000131   0.0003652   0.0001037   0.0000183   0.0000616   0.0002354
    2   0.0001364   0.0000185  -0.0001013  -0.0001077   0.0000499  -0.0001138
    3   0.0000602   0.0006476   0.0000913   0.0000704  -0.0001464   0.0000151
           13          14          15          16          17          18
    1   0.0000408   0.0002248   0.0000723   0.0002132   0.0000713   0.0034303
    2   0.0000274   0.0000139  -0.0000310   0.0001621   0.0001232   0.0005499
    3  -0.0000223  -0.0001125  -0.0001432   0.0000349   0.0000904   0.0000399
           19          20          21          22
    1  -0.0004311  -0.0002818  -0.0004046  -0.0023986
    2  -0.0000407  -0.0003188   0.0000434  -0.0002557
    3  -0.0001690  -0.0004684   0.0009230   0.0004214
 Max gradient component =       3.430E-03
 RMS gradient           =       5.996E-04
 Gradient time:  CPU 123.07 s  wall 7.78 s
 Geometry Optimization Parameters
   NAtoms,    NIC,     NZ,  NCons,   NDum,   NFix, NCnnct, MaxDiis
       22     172       0       0       0       0       0       0

 Cartesian Hessian Update
 Hessian updated using BFGS update


** GEOMETRY OPTIMIZATION IN DELOCALIZED INTERNAL COORDINATES **
   Searching for a Minimum

   Optimization Cycle:   2

                       Coordinates (Angstroms)
     ATOM                X               Y               Z
      1  C        -2.4434828440    0.9931559374   -2.3416533560
      2  C        -1.5928093407   -0.2166890888   -1.9154051486
      3  C        -2.2750343084   -1.5395580428   -2.3043222306
      4  C        -2.5747520332   -1.5832566003   -3.8127203199
      5  C        -3.4051308531   -0.3700175992   -4.2655865378
      6  C        -2.7420224213    0.9543359036   -3.8501822297
      7  H        -1.6329715104   -2.3791599525   -2.0134828035
      8  H        -0.6236500922   -0.1579027921   -2.4237616167
      9  H        -3.3886597730    0.9906785937   -1.7778260534
     10  H        -1.9179195572    1.9174133458   -2.0749328261
     11  H        -1.6218116815   -1.5943910704   -4.3659774899
     12  H        -3.0934380289   -2.5186585855   -4.0641196328
     13  H        -3.5536063247   -0.3961371746   -5.3562213847
     14  H        -4.4055920848   -0.4292314512   -3.8118249547
     15  H        -1.7973048331    1.0743118625   -4.4047027952
     16  H        -3.3783296809    1.8059735470   -4.1281343317
     17  H        -3.2137379731   -1.6468239846   -1.7394855583
     18  N        -1.2545203679   -0.1752684163   -0.4971435293
     19  H        -1.9924638329   -0.2682219942    0.1922593192
     20  C         0.0207759454    0.0029804517   -0.0500134747
     21  H         0.0953895609    0.0132033495    1.0516101682
     22  O         0.9924073325    0.1392963798   -0.7830077339
   Point Group: c1    Number of degrees of freedom:    60


   Energy is   -404.591178091

 Hessian updated using BFGS update

 60 Hessian modes will be used to form the next step
  Hessian Eigenvalues:
     0.005745    0.005976    0.006885    0.007194    0.012604    0.019376
     0.019503    0.020845    0.020885    0.036489    0.038536    0.039417
     0.042144    0.048382    0.048454    0.048896    0.055289    0.055720
     0.056187    0.059967    0.066955    0.081447    0.081535    0.081610
     0.082033    0.082133    0.084444    0.087501    0.120872    0.120973
     0.142969    0.158645    0.160051    0.160521    0.174871    0.201639
     0.211561    0.255514    0.272540    0.272774    0.275534    0.286805
     0.287151    0.287374    0.326903    0.334525    0.334863    0.335861
     0.336547    0.337051    0.339337    0.339448    0.339707    0.340204
     0.340681    0.342538    0.362774    0.454101    0.525763    0.935764

 Minimum search - taking simple RFO step
 Searching for Lamda that Minimizes Along All modes
 Value Taken    Lamda =  -0.00008704
 Step Taken.  Stepsize is  0.071955

                             Maximum     Tolerance    Cnvgd?
         Gradient           0.001795      0.000100      NO
         Displacement       0.030279      0.000100      NO
         Energy change     -0.000578      0.000000      NO


 New Cartesian Coordinates Obtained by Inverse Iteration

 Displacement from previous Coordinates is:  0.146247
 ----------------------------------------------------------------
             Standard Nuclear Orientation (Angstroms)
    I     Atom           X                Y                Z
 ----------------------------------------------------------------
    1      C      -2.4545646316     0.9907600264    -2.3347488793
    2      C      -1.6016616140    -0.2180353724    -1.9095432546
    3      C      -2.2871485909    -1.5393956868    -2.2976718762
    4      C      -2.5718420620    -1.5831052938    -3.8089572993
    5      C      -3.3964045415    -0.3692190704    -4.2705979594
    6      C      -2.7386170182     0.9549030795    -3.8460677992
    7      H      -1.6510012013    -2.3815502828    -2.0010438855
    8      H      -0.6377382285    -0.1597141526    -2.4277114798
    9      H      -3.4048648172     0.9839321309    -1.7796747523
   10      H      -1.9344310248     1.9163150839    -2.0617878015
   11      H      -1.6125412859    -1.5959368512    -4.3511924729
   12      H      -3.0903000101    -2.5170017448    -4.0665487633
   13      H      -3.5295920109    -0.3943065794    -5.3635388204
   14      H      -4.4031612483    -0.4288718645    -3.8306727029
   15      H      -1.7878898453     1.0775557990    -4.3897147954
   16      H      -3.3741793423     1.8052920303    -4.1296655019
   17      H      -3.2315861820    -1.6429362685    -1.7418806102
   18      N      -1.2535199251    -0.1758963536    -0.4946933917
   19      H      -1.9824479227    -0.2701082754     0.2039911280
   20      C       0.0297205581     0.0069863829    -0.0642788211
   21      H       0.1182945892     0.0137352635     1.0348107655
   22      O       0.9968116528     0.1426306183    -0.8054455466
 ----------------------------------------------------------------
 Nuclear Repulsion Energy =         467.83007388 hartrees
 There are       35 alpha and       35 beta electrons
 Applying Cartesian multipole field
    Component          Value
    ---------          -----
     (0,0,1)       -7.77900E-03
 Nucleus-field energy     =     2.2932609807 hartrees
 Requested basis set is 6-31+G(d)
 There are 71 shells and 197 basis functions
 A cutoff of  1.0D-14 yielded   2417 shell pairs
 There are     19038 function pairs
 Smallest overlap matrix eigenvalue = 2.55E-05
 Guess MOs from SCF MO coefficient file

 -----------------------------------------------------------------------
  General SCF calculation program by
  Eric Jon Sundstrom, Paul Horn, Yuezhi Mao, Dmitri Zuev, Alec White,
  David Stuck, Shaama M.S., Shane Yost, Joonho Lee, David Small,
  Daniel Levine, Susi Lehtola, Hugh Burton, Evgeny Epifanovsky,
  Bang C. Huynh
 -----------------------------------------------------------------------
 Exchange:     0.2000 Hartree-Fock + 0.0800 Slater + 0.7200 B88
 Correlation:  0.1900 VWN1RPA + 0.8100 LYP
 Using Euler-Maclaurin-Lebedev (99,590) quadrature formula
 using 16 threads for integral computing
 -------------------------------------------------------
 OpenMP Integral computing Module                
 Release: version 2.0, May 2017, Q-Chem Inc. Pleasanton 
 -------------------------------------------------------
 A restricted SCF calculation will be
 performed using DIIS
 SCF converges when DIIS error is below 1.0e-09
 ---------------------------------------
  Cycle       Energy         DIIS error
 ---------------------------------------
    1    -404.5909266099      1.85e-04  
    2    -404.5912144078      2.60e-05  
    3    -404.5912098008      4.73e-05  
    4    -404.5912183496      6.37e-06  
    5    -404.5912184943      1.94e-06  
    6    -404.5912185107      3.84e-07  
    7    -404.5912185114      1.13e-07  
    8    -404.5912185114      3.63e-08  
    9    -404.5912185114      8.08e-09  
   10    -404.5912185114      2.79e-09  
   11    -404.5912185114      7.75e-10  Convergence criterion met
 ---------------------------------------
 SCF time:   CPU 542.92s  wall 34.00s 
 SCF   energy in the final basis set =     -404.5912185114
 Total energy in the final basis set =     -404.5912185114
 
 --------------------------------------------------------------
 
                    Orbital Energies (a.u.)
 --------------------------------------------------------------
 
 Alpha MOs
 -- Occupied --
-19.1413 -14.3892 -10.3037 -10.2601 -10.2450 -10.2416 -10.2413 -10.2285
-10.2274  -1.0523  -0.9519  -0.8754  -0.7942  -0.7869  -0.6757  -0.6634
 -0.6196  -0.6142  -0.5572  -0.5219  -0.5008  -0.4929  -0.4876  -0.4516
 -0.4491  -0.4318  -0.4285  -0.4050  -0.3963  -0.3952  -0.3774  -0.3653
 -0.3580  -0.2792  -0.2759
 -- Virtual --
 -0.0665  -0.0416  -0.0359  -0.0239  -0.0027   0.0010   0.0039   0.0046
  0.0128   0.0132   0.0398   0.0439   0.0444   0.0523   0.0542   0.0555
  0.0630   0.0755   0.0868   0.0975   0.1009   0.1086   0.1144   0.1189
  0.1250   0.1312   0.1388   0.1455   0.1549   0.1581   0.1755   0.1767
  0.1791   0.1847   0.1964   0.1996   0.2214   0.2267   0.2302   0.2322
  0.2429   0.2474   0.2542   0.2595   0.2620   0.2749   0.2872   0.2893
  0.2973   0.3119   0.3176   0.3259   0.3286   0.3580   0.3647   0.3793
  0.4092   0.4172   0.4759   0.5632   0.5867   0.6033   0.6101   0.6249
  0.6306   0.6539   0.6746   0.6883   0.7090   0.7180   0.7455   0.7477
  0.7516   0.7697   0.7892   0.8044   0.8188   0.8784   0.9182   0.9227
  0.9290   0.9421   0.9694   0.9957   0.9969   1.0140   1.0398   1.0513
  1.0692   1.0701   1.0738   1.1026   1.1202   1.1244   1.1396   1.1426
  1.1939   1.2431   1.2770   1.3086   1.3305   1.3416   1.3546   1.3764
  1.4456   1.4552   1.4661   1.5093   1.5444   1.5730   1.6811   1.6891
  1.6938   1.7113   1.7487   1.7693   1.8262   1.8379   1.8570   1.8634
  1.8695   1.9087   1.9460   1.9640   1.9676   2.0028   2.0179   2.0380
  2.0607   2.1023   2.1612   2.1888   2.2453   2.2758   2.2798   2.3005
  2.3458   2.3649   2.3668   2.3788   2.4132   2.5297   2.5556   2.5858
  2.6175   2.6487   2.6653   2.7076   2.7413   2.7934   2.8461   2.9994
  3.1637   4.0628   4.1568   4.2161   4.2401   4.2896   4.4005   4.5473
  4.5586   4.6357
 --------------------------------------------------------------
 
          Ground-State Mulliken Net Atomic Charges

     Atom                 Charge (a.u.)
  ----------------------------------------
      1 C                    -0.228789
      2 C                    -0.546798
      3 C                    -0.260337
      4 C                    -0.425530
      5 C                    -0.379070
      6 C                    -0.427024
      7 H                     0.220887
      8 H                     0.236478
      9 H                     0.209048
     10 H                     0.220598
     11 H                     0.189644
     12 H                     0.186802
     13 H                     0.162489
     14 H                     0.202767
     15 H                     0.189805
     16 H                     0.186017
     17 H                     0.208810
     18 N                    -0.387745
     19 H                     0.413001
     20 C                     0.338042
     21 H                     0.185158
     22 O                    -0.494253
  ----------------------------------------
  Sum of atomic charges =     0.000000

 -----------------------------------------------------------------
                    Cartesian Multipole Moments
 -----------------------------------------------------------------
    Charge (ESU x 10^10)
                 0.0000
    Dipole Moment (Debye)
         X      -3.7139      Y      -0.5146      Z       2.5130
       Tot       4.5137
    Quadrupole Moments (Debye-Ang)
        XX     -56.3541     XY       0.1029     YY     -57.1877
        XZ      -0.2340     YZ       0.0829     ZZ     -61.6148
    Octopole Moments (Debye-Ang^2)
       XXX     294.2412    XXY      10.0974    XYY     102.5105
       YYY      36.0882    XXZ     142.6327    XYZ       1.2570
       YYZ     132.1811    XZZ     117.3079    YZZ      13.3341
       ZZZ     425.6531
    Hexadecapole Moments (Debye-Ang^3)
      XXXX   -1786.9284   XXXY     -87.4757   XXYY    -368.8080
      XYYY     -90.5386   YYYY    -405.4689   XXXZ   -1021.2561
      XXYZ     -40.4738   XYYZ    -332.1283   YYYZ    -113.4314
      XXZZ    -812.4790   XYZZ     -35.9855   YYZZ    -527.9835
      XZZZ   -1097.3360   YZZZ    -123.1440   ZZZZ   -2863.4066
 -----------------------------------------------------------------
 Calculating analytic gradient of the SCF energy
 Gradient of SCF Energy
            1           2           3           4           5           6
    1  -0.0000484  -0.0001114  -0.0001047   0.0000534   0.0000993   0.0000471
    2  -0.0001877  -0.0000214   0.0001063   0.0000251   0.0000116  -0.0000161
    3  -0.0000146  -0.0002019  -0.0001253   0.0001597  -0.0000223   0.0001585
            7           8           9          10          11          12
    1  -0.0000289   0.0001001  -0.0000218  -0.0000247   0.0002220   0.0000999
    2   0.0000706   0.0000306   0.0000376  -0.0000591   0.0000314  -0.0000240
    3   0.0000160   0.0001432  -0.0000616   0.0000307  -0.0000620  -0.0000534
           13          14          15          16          17          18
    1   0.0001332   0.0000828   0.0002231   0.0000911  -0.0000137  -0.0002001
    2   0.0000223   0.0000091   0.0000089   0.0000555  -0.0000487  -0.0001179
    3  -0.0001843  -0.0001315  -0.0000420  -0.0000382  -0.0000622   0.0003572
           19          20          21          22
    1  -0.0004434  -0.0002422  -0.0002055   0.0002930
    2  -0.0000927   0.0006969  -0.0002797  -0.0002585
    3  -0.0000429   0.0001028   0.0000145   0.0000594
 Max gradient component =       6.969E-04
 RMS gradient           =       1.595E-04
 Gradient time:  CPU 123.33 s  wall 8.28 s
 Geometry Optimization Parameters
   NAtoms,    NIC,     NZ,  NCons,   NDum,   NFix, NCnnct, MaxDiis
       22     172       0       0       0       0       0       0

 Cartesian Hessian Update
 Hessian updated using BFGS update


** GEOMETRY OPTIMIZATION IN DELOCALIZED INTERNAL COORDINATES **
   Searching for a Minimum

   Optimization Cycle:   3

                       Coordinates (Angstroms)
     ATOM                X               Y               Z
      1  C        -2.4545646316    0.9907600264   -2.3347488793
      2  C        -1.6016616140   -0.2180353724   -1.9095432546
      3  C        -2.2871485909   -1.5393956868   -2.2976718762
      4  C        -2.5718420620   -1.5831052938   -3.8089572993
      5  C        -3.3964045415   -0.3692190704   -4.2705979594
      6  C        -2.7386170182    0.9549030795   -3.8460677992
      7  H        -1.6510012013   -2.3815502828   -2.0010438855
      8  H        -0.6377382285   -0.1597141526   -2.4277114798
      9  H        -3.4048648172    0.9839321309   -1.7796747523
     10  H        -1.9344310248    1.9163150839   -2.0617878015
     11  H        -1.6125412859   -1.5959368512   -4.3511924729
     12  H        -3.0903000101   -2.5170017448   -4.0665487633
     13  H        -3.5295920109   -0.3943065794   -5.3635388204
     14  H        -4.4031612483   -0.4288718645   -3.8306727029
     15  H        -1.7878898453    1.0775557990   -4.3897147954
     16  H        -3.3741793423    1.8052920303   -4.1296655019
     17  H        -3.2315861820   -1.6429362685   -1.7418806102
     18  N        -1.2535199251   -0.1758963536   -0.4946933917
     19  H        -1.9824479227   -0.2701082754    0.2039911280
     20  C         0.0297205581    0.0069863829   -0.0642788211
     21  H         0.1182945892    0.0137352635    1.0348107655
     22  O         0.9968116528    0.1426306183   -0.8054455466
   Point Group: c1    Number of degrees of freedom:    60


   Energy is   -404.591218511

 Hessian updated using BFGS update

 60 Hessian modes will be used to form the next step
  Hessian Eigenvalues:
     0.005189    0.005974    0.006826    0.007202    0.012599    0.018925
     0.019502    0.020840    0.023816    0.036655    0.038523    0.039419
     0.042449    0.048268    0.048452    0.048902    0.055294    0.055723
     0.056040    0.060010    0.066962    0.080956    0.081534    0.081607
     0.082043    0.082133    0.084335    0.087506    0.119817    0.120969
     0.143002    0.155009    0.160241    0.160653    0.174867    0.209697
     0.213929    0.259862    0.270800    0.272593    0.275537    0.286848
     0.287166    0.289529    0.329582    0.334537    0.334905    0.336053
     0.336548    0.336986    0.339384    0.339450    0.339649    0.340180
     0.340386    0.342377    0.362844    0.454032    0.534147    0.950076

 Minimum search - taking simple RFO step
 Searching for Lamda that Minimizes Along All modes
 Value Taken    Lamda =  -0.00001481
 Step Taken.  Stepsize is  0.028768

                             Maximum     Tolerance    Cnvgd?
         Gradient           0.000414      0.000100      NO
         Displacement       0.015258      0.000100      NO
         Energy change     -0.000040      0.000000      NO


 New Cartesian Coordinates Obtained by Inverse Iteration

 Displacement from previous Coordinates is:  0.046712
 ----------------------------------------------------------------
             Standard Nuclear Orientation (Angstroms)
    I     Atom           X                Y                Z
 ----------------------------------------------------------------
    1      C      -2.4546418132     0.9893486314    -2.3329931436
    2      C      -1.6025801132    -0.2208089440    -1.9085660608
    3      C      -2.2904038932    -1.5410745748    -2.2971919219
    4      C      -2.5731011060    -1.5835766355    -3.8091245822
    5      C      -3.3948972016    -0.3681943039    -4.2716095685
    6      C      -2.7367480687     0.9550073638    -3.8449217496
    7      H      -1.6567908997    -2.3851015440    -2.0001062194
    8      H      -0.6401717519    -0.1635499930    -2.4294334297
    9      H      -3.4058280202     0.9820016392    -1.7793911066
   10      H      -1.9347479289     1.9146899178    -2.0585482741
   11      H      -1.6130147381    -1.5981013581    -4.3495193854
   12      H      -3.0931220984    -2.5161281015    -4.0682969594
   13      H      -3.5250982954    -0.3924133706    -5.3648124782
   14      H      -4.4029382326    -0.4269384778    -3.8344380711
   15      H      -1.7852318695     1.0777649356    -4.3867675017
   16      H      -3.3716227647     1.8056791158    -4.1290400799
   17      H      -3.2360759119    -1.6424128045    -1.7430617905
   18      N      -1.2518694676    -0.1800128411    -0.4944118466
   19      H      -1.9781981631    -0.2753881804     0.2065193322
   20      C       0.0317776717     0.0059830642    -0.0658536302
   21      H       0.1208565193     0.0223545244     1.0330384256
   22      O       0.9957834444     0.1569045555    -0.8081044786
 ----------------------------------------------------------------
 Nuclear Repulsion Energy =         467.80078572 hartrees
 There are       35 alpha and       35 beta electrons
 Applying Cartesian multipole field
    Component          Value
    ---------          -----
     (0,0,1)       -7.77900E-03
 Nucleus-field energy     =     2.2933917695 hartrees
 Requested basis set is 6-31+G(d)
 There are 71 shells and 197 basis functions
 A cutoff of  1.0D-14 yielded   2416 shell pairs
 There are     19034 function pairs
 Smallest overlap matrix eigenvalue = 2.56E-05
 Guess MOs from SCF MO coefficient file

 -----------------------------------------------------------------------
  General SCF calculation program by
  Eric Jon Sundstrom, Paul Horn, Yuezhi Mao, Dmitri Zuev, Alec White,
  David Stuck, Shaama M.S., Shane Yost, Joonho Lee, David Small,
  Daniel Levine, Susi Lehtola, Hugh Burton, Evgeny Epifanovsky,
  Bang C. Huynh
 -----------------------------------------------------------------------
 Exchange:     0.2000 Hartree-Fock + 0.0800 Slater + 0.7200 B88
 Correlation:  0.1900 VWN1RPA + 0.8100 LYP
 Using Euler-Maclaurin-Lebedev (99,590) quadrature formula
 using 16 threads for integral computing
 -------------------------------------------------------
 OpenMP Integral computing Module                
 Release: version 2.0, May 2017, Q-Chem Inc. Pleasanton 
 -------------------------------------------------------
 A restricted SCF calculation will be
 performed using DIIS
 SCF converges when DIIS error is below 1.0e-09
 ---------------------------------------
  Cycle       Energy         DIIS error
 ---------------------------------------
    1    -404.5910856415      1.19e-04  
    2    -404.5912078888      1.65e-05  
    3    -404.5912094318      7.15e-06  
    4    -404.5912095988      4.08e-06  
    5    -404.5912096572      1.29e-06  
    6    -404.5912096626      5.12e-07  
    7    -404.5912096638      8.86e-08  
    8    -404.5912096639      3.57e-08  
    9    -404.5912096639      9.60e-09  
   10    -404.5912096639      1.22e-09  
   11    -404.5912096639      6.79e-10  Convergence criterion met
 ---------------------------------------
 SCF time:   CPU 540.38s  wall 34.00s 
 SCF   energy in the final basis set =     -404.5912096639
 Total energy in the final basis set =     -404.5912096639
 
 --------------------------------------------------------------
 
                    Orbital Energies (a.u.)
 --------------------------------------------------------------
 
 Alpha MOs
 -- Occupied --
-19.1414 -14.3892 -10.3037 -10.2602 -10.2449 -10.2416 -10.2412 -10.2286
-10.2274  -1.0523  -0.9519  -0.8754  -0.7941  -0.7869  -0.6757  -0.6633
 -0.6195  -0.6142  -0.5572  -0.5219  -0.5008  -0.4929  -0.4876  -0.4516
 -0.4492  -0.4318  -0.4285  -0.4050  -0.3963  -0.3952  -0.3773  -0.3653
 -0.3580  -0.2793  -0.2758
 -- Virtual --
 -0.0665  -0.0416  -0.0359  -0.0239  -0.0027   0.0009   0.0039   0.0046
  0.0127   0.0133   0.0397   0.0439   0.0444   0.0523   0.0542   0.0555
  0.0630   0.0755   0.0867   0.0975   0.1008   0.1086   0.1145   0.1188
  0.1250   0.1312   0.1389   0.1456   0.1547   0.1581   0.1754   0.1767
  0.1792   0.1847   0.1965   0.1996   0.2214   0.2265   0.2301   0.2322
  0.2429   0.2475   0.2541   0.2595   0.2621   0.2749   0.2871   0.2894
  0.2972   0.3119   0.3175   0.3259   0.3286   0.3582   0.3647   0.3793
  0.4089   0.4173   0.4758   0.5630   0.5866   0.6033   0.6101   0.6251
  0.6307   0.6540   0.6745   0.6882   0.7087   0.7185   0.7458   0.7473
  0.7517   0.7696   0.7890   0.8048   0.8188   0.8785   0.9182   0.9228
  0.9290   0.9421   0.9695   0.9953   0.9967   1.0138   1.0395   1.0514
  1.0692   1.0700   1.0739   1.1028   1.1202   1.1242   1.1398   1.1427
  1.1939   1.2427   1.2770   1.3086   1.3309   1.3415   1.3551   1.3764
  1.4456   1.4545   1.4659   1.5092   1.5445   1.5727   1.6812   1.6889
  1.6938   1.7114   1.7485   1.7694   1.8258   1.8379   1.8567   1.8636
  1.8697   1.9085   1.9461   1.9639   1.9678   2.0026   2.0176   2.0377
  2.0609   2.1022   2.1613   2.1884   2.2457   2.2775   2.2779   2.3004
  2.3460   2.3647   2.3668   2.3791   2.4133   2.5298   2.5556   2.5858
  2.6176   2.6482   2.6650   2.7078   2.7410   2.7933   2.8460   2.9993
  3.1636   4.0627   4.1567   4.2160   4.2400   4.2895   4.4003   4.5475
  4.5586   4.6354
 --------------------------------------------------------------
 
          Ground-State Mulliken Net Atomic Charges

     Atom                 Charge (a.u.)
  ----------------------------------------
      1 C                    -0.229461
      2 C                    -0.545202
      3 C                    -0.261194
      4 C                    -0.425173
      5 C                    -0.379448
      6 C                    -0.426736
      7 H                     0.220746
      8 H                     0.236208
      9 H                     0.209050
     10 H                     0.220739
     11 H                     0.189699
     12 H                     0.186734
     13 H                     0.162502
     14 H                     0.202727
     15 H                     0.189945
     16 H                     0.186007
     17 H                     0.208817
     18 N                    -0.387612
     19 H                     0.413010
     20 C                     0.337756
     21 H                     0.185144
     22 O                    -0.494260
  ----------------------------------------
  Sum of atomic charges =     0.000000

 -----------------------------------------------------------------
                    Cartesian Multipole Moments
 -----------------------------------------------------------------
    Charge (ESU x 10^10)
                 0.0000
    Dipole Moment (Debye)
         X      -3.7085      Y      -0.5394      Z       2.5178
       Tot       4.5148
    Quadrupole Moments (Debye-Ang)
        XX     -56.3523     XY       0.0644     YY     -57.1986
        XZ      -0.2241     YZ       0.1113     ZZ     -61.6179
    Octopole Moments (Debye-Ang^2)
       XXX     294.2524    XXY      10.0373    XYY     102.4935
       YYY      36.0413    XXZ     142.6155    XYZ       1.3066
       YYZ     132.1989    XZZ     117.2658    YZZ      13.3124
       ZZZ     425.6529
    Hexadecapole Moments (Debye-Ang^3)
      XXXX   -1786.7878   XXXY     -88.1950   XXYY    -368.8696
      XYYY     -91.2984   YYYY    -405.8737   XXXZ   -1020.9455
      XXYZ     -40.5121   XYYZ    -332.0835   YYYZ    -113.5519
      XXZZ    -812.3153   XYZZ     -36.2840   YYZZ    -528.0112
      XZZZ   -1097.1233   YZZZ    -123.2647   ZZZZ   -2863.1026
 -----------------------------------------------------------------
 Calculating analytic gradient of the SCF energy
 Gradient of SCF Energy
            1           2           3           4           5           6
    1  -0.0000202   0.0000990  -0.0000026   0.0001274   0.0000531   0.0001014
    2  -0.0001308   0.0000869   0.0000543   0.0000347   0.0000069   0.0000148
    3  -0.0000189  -0.0000427  -0.0000261   0.0000059  -0.0000374   0.0000121
            7           8           9          10          11          12
    1  -0.0000281  -0.0000502  -0.0000649  -0.0000370   0.0001372   0.0000818
    2  -0.0000226  -0.0000191   0.0000293   0.0000301   0.0000130   0.0000273
    3   0.0000087   0.0000037  -0.0000906   0.0000272   0.0000267  -0.0000935
           13          14          15          16          17          18
    1   0.0001777   0.0000523   0.0001400   0.0000813  -0.0000522  -0.0007027
    2   0.0000229   0.0000087   0.0000180  -0.0000024  -0.0000342   0.0003698
    3  -0.0001056  -0.0001417   0.0000367  -0.0000831  -0.0000973   0.0002894
           19          20          21          22
    1  -0.0001892   0.0001619  -0.0002728   0.0002068
    2   0.0001018  -0.0021012   0.0006530   0.0008389
    3  -0.0000116   0.0002550  -0.0000254   0.0001085
 Max gradient component =       2.101E-03
 RMS gradient           =       3.203E-04
 Gradient time:  CPU 124.13 s  wall 8.18 s
 Geometry Optimization Parameters
   NAtoms,    NIC,     NZ,  NCons,   NDum,   NFix, NCnnct, MaxDiis
       22     172       0       0       0       0       0       0

 Cartesian Hessian Update
 Hessian updated using BFGS update


** GEOMETRY OPTIMIZATION IN DELOCALIZED INTERNAL COORDINATES **
   Searching for a Minimum

   Optimization Cycle:   4

                       Coordinates (Angstroms)
     ATOM                X               Y               Z
      1  C        -2.4546418132    0.9893486314   -2.3329931436
      2  C        -1.6025801132   -0.2208089440   -1.9085660608
      3  C        -2.2904038932   -1.5410745748   -2.2971919219
      4  C        -2.5731011060   -1.5835766355   -3.8091245822
      5  C        -3.3948972016   -0.3681943039   -4.2716095685
      6  C        -2.7367480687    0.9550073638   -3.8449217496
      7  H        -1.6567908997   -2.3851015440   -2.0001062194
      8  H        -0.6401717519   -0.1635499930   -2.4294334297
      9  H        -3.4058280202    0.9820016392   -1.7793911066
     10  H        -1.9347479289    1.9146899178   -2.0585482741
     11  H        -1.6130147381   -1.5981013581   -4.3495193854
     12  H        -3.0931220984   -2.5161281015   -4.0682969594
     13  H        -3.5250982954   -0.3924133706   -5.3648124782
     14  H        -4.4029382326   -0.4269384778   -3.8344380711
     15  H        -1.7852318695    1.0777649356   -4.3867675017
     16  H        -3.3716227647    1.8056791158   -4.1290400799
     17  H        -3.2360759119   -1.6424128045   -1.7430617905
     18  N        -1.2518694676   -0.1800128411   -0.4944118466
     19  H        -1.9781981631   -0.2753881804    0.2065193322
     20  C         0.0317776717    0.0059830642   -0.0658536302
     21  H         0.1208565193    0.0223545244    1.0330384256
     22  O         0.9957834444    0.1569045555   -0.8081044786
   Point Group: c1    Number of degrees of freedom:    60


   Energy is   -404.591209664

 Hessian updated using BFGS update

 59 Hessian modes will be used to form the next step
  Hessian Eigenvalues:
     0.005337    0.006831    0.007053    0.012551    0.019320    0.019503
     0.020840    0.036488    0.038268    0.039416    0.042206    0.048249
     0.048450    0.048895    0.055265    0.055682    0.055766    0.059705
     0.066864    0.080845    0.081515    0.081562    0.082006    0.082132
     0.084289    0.086026    0.088576    0.119293    0.120968    0.143111
     0.151880    0.160054    0.160394    0.175051    0.204016    0.211496
     0.257978    0.267649    0.272595    0.275546    0.285983    0.286928
     0.287227    0.327693    0.334525    0.334861    0.335360    0.336120
     0.336548    0.339228    0.339446    0.339599    0.340111    0.340320
     0.342231    0.363266    0.452813    0.530398    0.940656

 Minimum search - taking simple RFO step
 Searching for Lamda that Minimizes Along All modes
 Value Taken    Lamda =  -0.00002496
 Step Taken.  Stepsize is  0.018154

                             Maximum     Tolerance    Cnvgd?
         Gradient           0.001158      0.000100      NO
         Displacement       0.014094      0.000100      NO
         Energy change      0.000009      0.000000      NO


 New Cartesian Coordinates Obtained by Inverse Iteration

 Displacement from previous Coordinates is:  0.021457
 ----------------------------------------------------------------
             Standard Nuclear Orientation (Angstroms)
    I     Atom           X                Y                Z
 ----------------------------------------------------------------
    1      C      -2.4538674709     0.9901323132    -2.3340457777
    2      C      -1.6016776900    -0.2198623908    -1.9091659828
    3      C      -2.2887270513    -1.5406614524    -2.2976147743
    4      C      -2.5731051458    -1.5835858527    -3.8092989668
    5      C      -3.3957456858    -0.3685529636    -4.2711834037
    6      C      -2.7375581360     0.9550191197    -3.8457266889
    7      H      -1.6543089147    -2.3842329641    -2.0009437479
    8      H      -0.6387407012    -0.1622816286    -2.4289950162
    9      H      -3.4045069969     0.9829069020    -1.7794980654
   10      H      -1.9337332556     1.9155840087    -2.0604429028
   11      H      -1.6137440051    -1.5979178947    -4.3508826904
   12      H      -3.0929996943    -2.5164470287    -4.0675695955
   13      H      -3.5274572559    -0.3931734199    -5.3641312663
   14      H      -4.4031479915    -0.4274546344    -3.8326242699
   15      H      -1.7867970355     1.0778252843    -4.3887836410
   16      H      -3.3728954282     1.8054817492    -4.1293836297
   17      H      -3.2337941502    -1.6424077225    -1.7425123023
   18      N      -1.2519769057    -0.1785884318    -0.4947216883
   19      H      -1.9789156169    -0.2751495151     0.2053712131
   20      C       0.0303042413     0.0090214194    -0.0640790829
   21      H       0.1189924853     0.0178119475     1.0351786707
   22      O       0.9957377025     0.1525657738    -0.8055809111
 ----------------------------------------------------------------
 Nuclear Repulsion Energy =         467.79435680 hartrees
 There are       35 alpha and       35 beta electrons
 Applying Cartesian multipole field
    Component          Value
    ---------          -----
     (0,0,1)       -7.77900E-03
 Nucleus-field energy     =     2.2932221909 hartrees
 Requested basis set is 6-31+G(d)
 There are 71 shells and 197 basis functions
 A cutoff of  1.0D-14 yielded   2416 shell pairs
 There are     19034 function pairs
 Smallest overlap matrix eigenvalue = 2.56E-05
 Guess MOs from SCF MO coefficient file

 -----------------------------------------------------------------------
  General SCF calculation program by
  Eric Jon Sundstrom, Paul Horn, Yuezhi Mao, Dmitri Zuev, Alec White,
  David Stuck, Shaama M.S., Shane Yost, Joonho Lee, David Small,
  Daniel Levine, Susi Lehtola, Hugh Burton, Evgeny Epifanovsky,
  Bang C. Huynh
 -----------------------------------------------------------------------
 Exchange:     0.2000 Hartree-Fock + 0.0800 Slater + 0.7200 B88
 Correlation:  0.1900 VWN1RPA + 0.8100 LYP
 Using Euler-Maclaurin-Lebedev (99,590) quadrature formula
 using 16 threads for integral computing
 -------------------------------------------------------
 OpenMP Integral computing Module                
 Release: version 2.0, May 2017, Q-Chem Inc. Pleasanton 
 -------------------------------------------------------
 A restricted SCF calculation will be
 performed using DIIS
 SCF converges when DIIS error is below 1.0e-09
 ---------------------------------------
  Cycle       Energy         DIIS error
 ---------------------------------------
    1    -404.5911927612      5.96e-05  
    2    -404.5912217564      9.20e-06  
    3    -404.5912219927      7.77e-06  
    4    -404.5912221200      5.56e-06  
    5    -404.5912222371      4.82e-07  
    6    -404.5912222380      2.12e-07  
    7    -404.5912222382      4.46e-08  
    8    -404.5912222382      1.29e-08  
    9    -404.5912222382      5.25e-09  
   10    -404.5912222382      1.30e-09  
   11    -404.5912222382      3.92e-10  Convergence criterion met
 ---------------------------------------
 SCF time:   CPU 538.36s  wall 34.00s 
 SCF   energy in the final basis set =     -404.5912222382
 Total energy in the final basis set =     -404.5912222382
 
 --------------------------------------------------------------
 
                    Orbital Energies (a.u.)
 --------------------------------------------------------------
 
 Alpha MOs
 -- Occupied --
-19.1413 -14.3891 -10.3036 -10.2602 -10.2449 -10.2416 -10.2412 -10.2286
-10.2275  -1.0524  -0.9519  -0.8754  -0.7941  -0.7869  -0.6757  -0.6634
 -0.6194  -0.6142  -0.5572  -0.5220  -0.5008  -0.4929  -0.4877  -0.4516
 -0.4492  -0.4318  -0.4285  -0.4050  -0.3963  -0.3952  -0.3774  -0.3653
 -0.3581  -0.2792  -0.2758
 -- Virtual --
 -0.0665  -0.0416  -0.0359  -0.0239  -0.0027   0.0010   0.0039   0.0046
  0.0127   0.0132   0.0397   0.0439   0.0444   0.0523   0.0542   0.0555
  0.0630   0.0755   0.0868   0.0975   0.1009   0.1086   0.1145   0.1189
  0.1250   0.1312   0.1389   0.1456   0.1548   0.1581   0.1754   0.1766
  0.1792   0.1847   0.1964   0.1995   0.2214   0.2266   0.2302   0.2322
  0.2429   0.2474   0.2541   0.2595   0.2622   0.2748   0.2872   0.2893
  0.2973   0.3119   0.3175   0.3259   0.3286   0.3582   0.3647   0.3793
  0.4092   0.4172   0.4759   0.5630   0.5867   0.6032   0.6101   0.6250
  0.6306   0.6539   0.6745   0.6881   0.7089   0.7182   0.7456   0.7475
  0.7517   0.7696   0.7891   0.8046   0.8188   0.8784   0.9182   0.9228
  0.9290   0.9421   0.9695   0.9954   0.9968   1.0139   1.0396   1.0514
  1.0692   1.0701   1.0739   1.1027   1.1201   1.1243   1.1397   1.1426
  1.1938   1.2430   1.2771   1.3087   1.3305   1.3414   1.3552   1.3763
  1.4453   1.4551   1.4660   1.5093   1.5444   1.5728   1.6810   1.6888
  1.6937   1.7115   1.7486   1.7693   1.8262   1.8379   1.8569   1.8632
  1.8695   1.9085   1.9457   1.9639   1.9677   2.0026   2.0178   2.0379
  2.0608   2.1023   2.1611   2.1884   2.2456   2.2767   2.2797   2.3003
  2.3459   2.3646   2.3668   2.3792   2.4132   2.5297   2.5555   2.5858
  2.6176   2.6484   2.6650   2.7076   2.7413   2.7932   2.8459   2.9998
  3.1640   4.0627   4.1567   4.2161   4.2400   4.2896   4.4003   4.5473
  4.5584   4.6352
 --------------------------------------------------------------
 
          Ground-State Mulliken Net Atomic Charges

     Atom                 Charge (a.u.)
  ----------------------------------------
      1 C                    -0.228660
      2 C                    -0.544983
      3 C                    -0.261555
      4 C                    -0.425463
      5 C                    -0.379346
      6 C                    -0.427105
      7 H                     0.220818
      8 H                     0.236278
      9 H                     0.209044
     10 H                     0.220642
     11 H                     0.189677
     12 H                     0.186787
     13 H                     0.162523
     14 H                     0.202759
     15 H                     0.189881
     16 H                     0.186037
     17 H                     0.208791
     18 N                    -0.387691
     19 H                     0.412867
     20 C                     0.337913
     21 H                     0.185184
     22 O                    -0.494396
  ----------------------------------------
  Sum of atomic charges =     0.000000

 -----------------------------------------------------------------
                    Cartesian Multipole Moments
 -----------------------------------------------------------------
    Charge (ESU x 10^10)
                 0.0000
    Dipole Moment (Debye)
         X      -3.7104      Y      -0.5328      Z       2.5131
       Tot       4.5129
    Quadrupole Moments (Debye-Ang)
        XX     -56.3575     XY       0.0816     YY     -57.1901
        XZ      -0.2267     YZ       0.1016     ZZ     -61.6012
    Octopole Moments (Debye-Ang^2)
       XXX     294.2704    XXY      10.0225    XYY     102.4888
       YYY      36.0053    XXZ     142.5953    XYZ       1.2872
       YYZ     132.1766    XZZ     117.2663    YZZ      13.2896
       ZZZ     425.5863
    Hexadecapole Moments (Debye-Ang^3)
      XXXX   -1786.7738   XXXY     -87.9443   XXYY    -368.8252
      XYYY     -91.0504   YYYY    -405.7893   XXXZ   -1021.1390
      XXYZ     -40.4793   XYYZ    -332.1146   YYYZ    -113.4859
      XXZZ    -812.3167   XYZZ     -36.1671   YYZZ    -528.0162
      XZZZ   -1097.1934   YZZZ    -123.1712   ZZZZ   -2863.2034
 -----------------------------------------------------------------
 Calculating analytic gradient of the SCF energy
 Gradient of SCF Energy
            1           2           3           4           5           6
    1   0.0000261  -0.0000552   0.0000300   0.0000819   0.0000950   0.0000724
    2  -0.0000311  -0.0000015  -0.0000088  -0.0000060   0.0000103   0.0000255
    3  -0.0000097  -0.0000304  -0.0000677  -0.0000375  -0.0001013  -0.0000322
            7           8           9          10          11          12
    1  -0.0000237  -0.0000355  -0.0000520  -0.0000327   0.0000950   0.0000977
    2  -0.0000298   0.0000081  -0.0000025   0.0000295   0.0000150   0.0000187
    3   0.0000155   0.0000648  -0.0000722   0.0000310   0.0000263  -0.0000940
           13          14          15          16          17          18
    1   0.0001712   0.0000750   0.0000964   0.0000992  -0.0000419  -0.0001216
    2   0.0000240   0.0000084   0.0000143   0.0000047  -0.0000052   0.0000375
    3  -0.0000692  -0.0001402   0.0000378  -0.0000719  -0.0000809   0.0001450
           19          20          21          22
    1  -0.0001078  -0.0001659  -0.0001833  -0.0001204
    2  -0.0000023  -0.0000821  -0.0000151  -0.0000115
    3  -0.0000141   0.0002097   0.0001263   0.0001651
 Max gradient component =       2.097E-04
 RMS gradient           =       7.841E-05
 Gradient time:  CPU 121.99 s  wall 7.72 s
 Geometry Optimization Parameters
   NAtoms,    NIC,     NZ,  NCons,   NDum,   NFix, NCnnct, MaxDiis
       22     172       0       0       0       0       0       0

 Cartesian Hessian Update
 Hessian updated using BFGS update


** GEOMETRY OPTIMIZATION IN DELOCALIZED INTERNAL COORDINATES **
   Searching for a Minimum

   Optimization Cycle:   5

                       Coordinates (Angstroms)
     ATOM                X               Y               Z
      1  C        -2.4538674709    0.9901323132   -2.3340457777
      2  C        -1.6016776900   -0.2198623908   -1.9091659828
      3  C        -2.2887270513   -1.5406614524   -2.2976147743
      4  C        -2.5731051458   -1.5835858527   -3.8092989668
      5  C        -3.3957456858   -0.3685529636   -4.2711834037
      6  C        -2.7375581360    0.9550191197   -3.8457266889
      7  H        -1.6543089147   -2.3842329641   -2.0009437479
      8  H        -0.6387407012   -0.1622816286   -2.4289950162
      9  H        -3.4045069969    0.9829069020   -1.7794980654
     10  H        -1.9337332556    1.9155840087   -2.0604429028
     11  H        -1.6137440051   -1.5979178947   -4.3508826904
     12  H        -3.0929996943   -2.5164470287   -4.0675695955
     13  H        -3.5274572559   -0.3931734199   -5.3641312663
     14  H        -4.4031479915   -0.4274546344   -3.8326242699
     15  H        -1.7867970355    1.0778252843   -4.3887836410
     16  H        -3.3728954282    1.8054817492   -4.1293836297
     17  H        -3.2337941502   -1.6424077225   -1.7425123023
     18  N        -1.2519769057   -0.1785884318   -0.4947216883
     19  H        -1.9789156169   -0.2751495151    0.2053712131
     20  C         0.0303042413    0.0090214194   -0.0640790829
     21  H         0.1189924853    0.0178119475    1.0351786707
     22  O         0.9957377025    0.1525657738   -0.8055809111
   Point Group: c1    Number of degrees of freedom:    60


   Energy is   -404.591222238

 Hessian updated using BFGS update

 60 Hessian modes will be used to form the next step
  Hessian Eigenvalues:
     0.005368    0.005974    0.006830    0.006938    0.012544    0.019316
     0.019503    0.020839    0.036450    0.038307    0.039416    0.042276
     0.048208    0.048450    0.048894    0.055278    0.055705    0.055762
     0.059730    0.066877    0.080837    0.081524    0.081594    0.082038
     0.082114    0.084265    0.085725    0.088180    0.119243    0.120969
     0.143112    0.151953    0.159871    0.160418    0.175206    0.204576
     0.211578    0.259602    0.267646    0.272624    0.275547    0.286199
     0.286945    0.287372    0.327936    0.334532    0.334872    0.335382
     0.336111    0.336548    0.339226    0.339446    0.339599    0.340088
     0.340276    0.342228    0.362812    0.452888    0.530685    0.940863

 Minimum search - taking simple RFO step
 Searching for Lamda that Minimizes Along All modes
 Value Taken    Lamda =  -0.00000061
 Step Taken.  Stepsize is  0.007841

                             Maximum     Tolerance    Cnvgd?
         Gradient           0.000087      0.000100     YES
         Displacement       0.004782      0.000100      NO
         Energy change     -0.000013      0.000000      NO


 New Cartesian Coordinates Obtained by Inverse Iteration

 Displacement from previous Coordinates is:  0.015047
 ----------------------------------------------------------------
             Standard Nuclear Orientation (Angstroms)
    I     Atom           X                Y                Z
 ----------------------------------------------------------------
    1      C      -2.4532736387     0.9896209090    -2.3337815848
    2      C      -1.6015635821    -0.2208094587    -1.9092495826
    3      C      -2.2894232658    -1.5411224294    -2.2976592748
    4      C      -2.5737054868    -1.5837494545    -3.8093634282
    5      C      -3.3956201984    -0.3682085327    -4.2711996125
    6      C      -2.7368563708     0.9549812892    -3.8454685285
    7      H      -1.6554169935    -2.3849862972    -2.0010728556
    8      H      -0.6385129456    -0.1635471840    -2.4289576590
    9      H      -3.4038646149     0.9826693859    -1.7791655140
   10      H      -1.9325958762     1.9146522408    -2.0599526398
   11      H      -1.6143050313    -1.5986256115    -4.3509155759
   12      H      -3.0941472416    -2.5163196276    -4.0676030012
   13      H      -3.5272374500    -0.3926252887    -5.3641893735
   14      H      -4.4030852132    -0.4266497226    -3.8327389254
   15      H      -1.7860075944     1.0775200670    -4.3884792250
   16      H      -3.3718384852     1.8058124516    -4.1288466094
   17      H      -3.2345410406    -1.6423804311    -1.7425508353
   18      N      -1.2517953308    -0.1799480198    -0.4950202874
   19      H      -1.9785458117    -0.2784122188     0.2050850386
   20      C       0.0300091594     0.0111218113    -0.0644790531
   21      H       0.1185745837     0.0192665972     1.0348035702
   22      O       0.9950877261     0.1577721429    -0.8058295630
 ----------------------------------------------------------------
 Nuclear Repulsion Energy =         467.80985998 hartrees
 There are       35 alpha and       35 beta electrons
 Applying Cartesian multipole field
    Component          Value
    ---------          -----
     (0,0,1)       -7.77900E-03
 Nucleus-field energy     =     2.2932804638 hartrees
 Requested basis set is 6-31+G(d)
 There are 71 shells and 197 basis functions
 A cutoff of  1.0D-14 yielded   2416 shell pairs
 There are     19034 function pairs
 Smallest overlap matrix eigenvalue = 2.56E-05
 Guess MOs from SCF MO coefficient file

 -----------------------------------------------------------------------
  General SCF calculation program by
  Eric Jon Sundstrom, Paul Horn, Yuezhi Mao, Dmitri Zuev, Alec White,
  David Stuck, Shaama M.S., Shane Yost, Joonho Lee, David Small,
  Daniel Levine, Susi Lehtola, Hugh Burton, Evgeny Epifanovsky,
  Bang C. Huynh
 -----------------------------------------------------------------------
 Exchange:     0.2000 Hartree-Fock + 0.0800 Slater + 0.7200 B88
 Correlation:  0.1900 VWN1RPA + 0.8100 LYP
 Using Euler-Maclaurin-Lebedev (99,590) quadrature formula
 using 16 threads for integral computing
 -------------------------------------------------------
 OpenMP Integral computing Module                
 Release: version 2.0, May 2017, Q-Chem Inc. Pleasanton 
 -------------------------------------------------------
 A restricted SCF calculation will be
 performed using DIIS
 SCF converges when DIIS error is below 1.0e-09
 ---------------------------------------
  Cycle       Energy         DIIS error
 ---------------------------------------
    1    -404.5912139121      3.02e-05  
    2    -404.5912226070      4.08e-06  
    3    -404.5912227204      1.92e-06  
    4    -404.5912227348      8.23e-07  
    5    -404.5912227377      2.37e-07  
    6    -404.5912227378      1.80e-07  
    7    -404.5912227380      2.74e-08  
    8    -404.5912227380      1.04e-08  
    9    -404.5912227380      2.36e-09  
   10    -404.5912227380      6.24e-10  Convergence criterion met
 ---------------------------------------
 SCF time:   CPU 492.73s  wall 31.00s 
 SCF   energy in the final basis set =     -404.5912227380
 Total energy in the final basis set =     -404.5912227380
 
 --------------------------------------------------------------
 
                    Orbital Energies (a.u.)
 --------------------------------------------------------------
 
 Alpha MOs
 -- Occupied --
-19.1413 -14.3891 -10.3036 -10.2602 -10.2449 -10.2417 -10.2412 -10.2286
-10.2274  -1.0524  -0.9519  -0.8754  -0.7941  -0.7869  -0.6757  -0.6634
 -0.6195  -0.6142  -0.5572  -0.5219  -0.5008  -0.4929  -0.4877  -0.4516
 -0.4491  -0.4318  -0.4285  -0.4050  -0.3964  -0.3952  -0.3774  -0.3653
 -0.3581  -0.2793  -0.2758
 -- Virtual --
 -0.0665  -0.0416  -0.0359  -0.0239  -0.0027   0.0010   0.0039   0.0046
  0.0127   0.0133   0.0397   0.0439   0.0444   0.0523   0.0542   0.0555
  0.0630   0.0755   0.0868   0.0974   0.1009   0.1085   0.1145   0.1188
  0.1250   0.1311   0.1389   0.1456   0.1547   0.1581   0.1753   0.1767
  0.1792   0.1847   0.1965   0.1996   0.2214   0.2266   0.2302   0.2321
  0.2428   0.2475   0.2540   0.2596   0.2622   0.2749   0.2872   0.2893
  0.2972   0.3119   0.3175   0.3259   0.3286   0.3583   0.3647   0.3793
  0.4092   0.4172   0.4759   0.5630   0.5867   0.6032   0.6102   0.6250
  0.6306   0.6539   0.6745   0.6881   0.7089   0.7182   0.7455   0.7475
  0.7517   0.7696   0.7891   0.8046   0.8188   0.8784   0.9182   0.9228
  0.9290   0.9421   0.9695   0.9954   0.9968   1.0139   1.0396   1.0514
  1.0692   1.0701   1.0739   1.1027   1.1201   1.1243   1.1397   1.1427
  1.1938   1.2430   1.2771   1.3087   1.3304   1.3413   1.3552   1.3763
  1.4451   1.4553   1.4660   1.5093   1.5444   1.5728   1.6810   1.6888
  1.6939   1.7115   1.7485   1.7694   1.8261   1.8380   1.8568   1.8633
  1.8695   1.9084   1.9457   1.9639   1.9678   2.0026   2.0180   2.0379
  2.0608   2.1023   2.1612   2.1883   2.2457   2.2765   2.2797   2.3003
  2.3459   2.3647   2.3668   2.3793   2.4132   2.5298   2.5554   2.5858
  2.6177   2.6485   2.6651   2.7076   2.7413   2.7933   2.8460   2.9998
  3.1640   4.0628   4.1567   4.2162   4.2401   4.2896   4.4003   4.5473
  4.5586   4.6353
 --------------------------------------------------------------
 
          Ground-State Mulliken Net Atomic Charges

     Atom                 Charge (a.u.)
  ----------------------------------------
      1 C                    -0.228008
      2 C                    -0.545156
      3 C                    -0.262177
      4 C                    -0.425376
      5 C                    -0.379363
      6 C                    -0.427089
      7 H                     0.220816
      8 H                     0.236240
      9 H                     0.209063
     10 H                     0.220664
     11 H                     0.189669
     12 H                     0.186784
     13 H                     0.162518
     14 H                     0.202755
     15 H                     0.189891
     16 H                     0.186044
     17 H                     0.208792
     18 N                    -0.387634
     19 H                     0.412883
     20 C                     0.337899
     21 H                     0.185143
     22 O                    -0.494358
  ----------------------------------------
  Sum of atomic charges =     0.000000

 -----------------------------------------------------------------
                    Cartesian Multipole Moments
 -----------------------------------------------------------------
    Charge (ESU x 10^10)
                -0.0000
    Dipole Moment (Debye)
         X      -3.7093      Y      -0.5428      Z       2.5132
       Tot       4.5133
    Quadrupole Moments (Debye-Ang)
        XX     -56.3540     XY       0.0739     YY     -57.1932
        XZ      -0.2291     YZ       0.1106     ZZ     -61.6061
    Octopole Moments (Debye-Ang^2)
       XXX     294.2873    XXY       9.9679    XYY     102.4819
       YYY      35.9460    XXZ     142.5985    XYZ       1.3032
       YYZ     132.1870    XZZ     117.2797    YZZ      13.2590
       ZZZ     425.6092
    Hexadecapole Moments (Debye-Ang^3)
      XXXX   -1786.6285   XXXY     -88.1736   XXYY    -368.8128
      XYYY     -91.3186   YYYY    -405.9189   XXXZ   -1021.1200
[...]

 Mode:                40                     41                     42
 Frequency:      1413.89                1504.64                1506.37
 Force Cnst:      1.7056                 1.4494                 1.4587
 Red. Mass:       1.4481                 1.0866                 1.0911
 IR Active:          YES                    YES                    YES
 IR Intens:        2.132                  0.725                  2.803
 Raman Active:       YES                    YES                    YES
               X      Y      Z        X      Y      Z        X      Y      Z
 C          0.034 -0.057  0.094    0.020 -0.031 -0.035    0.009 -0.017  0.002
 C         -0.050  0.029 -0.098    0.000 -0.016 -0.003   -0.001  0.005 -0.010
 C          0.041  0.040  0.079   -0.008 -0.014  0.027    0.014  0.025 -0.010
 C          0.001 -0.022  0.002   -0.015  0.023  0.028   -0.006  0.001 -0.006
 C         -0.005 -0.003  0.004   -0.018  0.012 -0.010   -0.062 -0.006 -0.033
 C         -0.002  0.030  0.004    0.009  0.020 -0.027   -0.014 -0.023  0.017
 H         -0.104 -0.181 -0.297    0.196  0.080 -0.164   -0.186 -0.079  0.130
 H          0.294 -0.201  0.492   -0.002  0.068 -0.002    0.017 -0.024  0.020
 H         -0.190  0.193 -0.299    0.131  0.365  0.174    0.003  0.116 -0.003
 H         -0.107  0.136 -0.277   -0.337  0.108  0.261   -0.083  0.025  0.050
 H          0.022 -0.011  0.035   -0.108 -0.291 -0.140    0.015 -0.023  0.033
 H         -0.056  0.051 -0.140    0.265 -0.091 -0.203   -0.003  0.001 -0.020
 H         -0.055 -0.005  0.005    0.163  0.009 -0.026    0.579  0.017 -0.090
 H         -0.041  0.021 -0.062    0.063 -0.048  0.157    0.212  0.028  0.555
 H          0.015 -0.037  0.023    0.123 -0.235  0.144   -0.091  0.246 -0.083
 H         -0.079 -0.074 -0.148   -0.230 -0.101  0.167    0.201  0.083 -0.175
 H         -0.129 -0.092 -0.240   -0.110  0.194 -0.131    0.067 -0.218  0.061
 N         -0.010 -0.006 -0.037   -0.001 -0.000 -0.000   -0.004 -0.001 -0.004
 H          0.138  0.023  0.122    0.004  0.005  0.006    0.024  0.004  0.027
 C          0.013  0.002  0.028    0.002  0.000 -0.000    0.003  0.001  0.002
 H          0.008  0.003  0.045   -0.000 -0.001  0.000    0.000  0.000  0.005
 O          0.002  0.001 -0.008   -0.001 -0.000  0.001   -0.001 -0.000 -0.000
 TransDip   0.016  0.022  0.038    0.009  0.023  0.011    0.049  0.009  0.021

 Mode:                43                     44                     45
 Frequency:      1510.51                1515.13                1527.29
 Force Cnst:      1.4734                 1.4771                 1.5572
 Red. Mass:       1.0960                 1.0921                 1.1331
 IR Active:          YES                    YES                    YES
 IR Intens:        5.591                 13.067                 12.066
 Raman Active:       YES                    YES                    YES
               X      Y      Z        X      Y      Z        X      Y      Z
 C          0.011 -0.033 -0.031   -0.011  0.019  0.016   -0.012  0.030  0.021
 C         -0.002  0.003 -0.001    0.008  0.001  0.012   -0.018 -0.004  0.002
 C         -0.008 -0.029  0.024   -0.014 -0.033  0.028   -0.011 -0.033  0.023
 C          0.014 -0.039 -0.031   -0.016  0.032  0.022    0.010 -0.029 -0.014
 C          0.008  0.006  0.004    0.001  0.002  0.007   -0.034 -0.002 -0.027
 C         -0.006 -0.030  0.024   -0.014 -0.039  0.026    0.008  0.029 -0.015
 H          0.225  0.074 -0.191    0.290  0.117 -0.217    0.268  0.096 -0.219
 H          0.003 -0.012  0.005   -0.013  0.002 -0.019    0.020  0.004  0.075
 H          0.110  0.327  0.152   -0.068 -0.202 -0.088   -0.079 -0.294 -0.099
 H         -0.283  0.072  0.236    0.185 -0.064 -0.124    0.237 -0.061 -0.198
 H          0.118  0.370  0.152   -0.104 -0.322 -0.128    0.061  0.232  0.075
 H         -0.315  0.092  0.241    0.287 -0.103 -0.187   -0.202  0.060  0.131
 H         -0.073 -0.032  0.011    0.006 -0.003  0.011    0.313  0.013 -0.061
 H         -0.026 -0.014 -0.070   -0.005 -0.006 -0.002    0.122  0.007  0.313
 H         -0.106  0.251 -0.118   -0.145  0.357 -0.148    0.081 -0.224  0.079
 H          0.218  0.076 -0.171    0.313  0.134 -0.218   -0.196 -0.074  0.132
 H         -0.105  0.261 -0.119   -0.139  0.318 -0.152   -0.117  0.322 -0.118
 N          0.003 -0.001  0.003   -0.012 -0.003 -0.012    0.038  0.009  0.029
 H         -0.012  0.002 -0.012    0.039  0.011  0.045   -0.153 -0.034 -0.180
 C         -0.001 -0.000 -0.002    0.005  0.001  0.005   -0.023 -0.006 -0.014
 H         -0.001  0.000 -0.003    0.002  0.000  0.010   -0.003  0.001 -0.031
 O         -0.001  0.000  0.001   -0.000 -0.000 -0.001    0.004  0.001  0.001
 TransDip  -0.024  0.072  0.001    0.098  0.019 -0.060   -0.076 -0.027 -0.076

 Mode:                46                     47                     48
 Frequency:      1538.33                1731.91                2248.92
 Force Cnst:      2.2562                14.9024                 7.2762
 Red. Mass:       1.6182                 8.4325                 2.4418
 IR Active:          YES                    YES                    YES
 IR Intens:      151.125                390.617                 55.962
 Raman Active:       YES                    YES                    YES
               X      Y      Z        X      Y      Z        X      Y      Z
 C         -0.004  0.007  0.010   -0.002  0.003  0.016   -0.000  0.000  0.000
 C          0.079  0.015  0.045    0.001  0.001 -0.039    0.002  0.000  0.001
 C         -0.005 -0.014  0.015   -0.003 -0.002  0.017   -0.000 -0.000  0.000
 C          0.001 -0.014 -0.016    0.002  0.004 -0.003    0.000 -0.000  0.000
 C         -0.010  0.000 -0.007   -0.001  0.000  0.001   -0.000  0.000 -0.000
 C         -0.000  0.013 -0.014    0.001 -0.005 -0.003    0.000 -0.000  0.000
 H          0.094  0.033 -0.056    0.003 -0.011 -0.024    0.001  0.001 -0.000
 H         -0.138  0.000 -0.361    0.093  0.021  0.088    0.006  0.004  0.012
 H         -0.049 -0.044 -0.076   -0.028  0.001 -0.031   -0.001 -0.001 -0.001
 H          0.093 -0.035 -0.037    0.025  0.002 -0.023    0.003 -0.001  0.000
 H          0.059  0.134  0.080    0.006 -0.001 -0.000    0.000  0.000 -0.000
 H         -0.120  0.028  0.100    0.001 -0.008  0.027    0.000  0.000  0.000
 H          0.101 -0.000 -0.019    0.007 -0.002 -0.002    0.000 -0.000  0.000
 H          0.035  0.001  0.093   -0.001 -0.001  0.001    0.000 -0.000 -0.000
 H          0.065 -0.121  0.078    0.009  0.003  0.005    0.000 -0.000  0.000
 H         -0.115 -0.039  0.087   -0.001  0.007  0.028   -0.000 -0.000  0.000
 H         -0.063  0.051 -0.090   -0.024 -0.022 -0.020   -0.001 -0.000 -0.000
 N         -0.137 -0.030 -0.105   -0.070 -0.019  0.042    0.007  0.002  0.013
 H          0.502  0.118  0.595   -0.298 -0.089 -0.206   -0.043 -0.011 -0.055
 C          0.070  0.019  0.049    0.552  0.163 -0.281    0.001  0.008 -0.205
 H          0.011 -0.001  0.106   -0.203 -0.037 -0.453    0.103 -0.008  0.970
 O         -0.008 -0.002 -0.007   -0.314 -0.097  0.250   -0.018 -0.006  0.022
 TransDip   0.314  0.077  0.225    0.611  0.162 -0.041    0.034  0.019 -0.236

 Mode:                49                     50                     51
 Frequency:      2996.39                3001.03                3007.24
 Force Cnst:      5.6379                 5.6629                 5.6868
 Red. Mass:       1.0658                 1.0672                 1.0673
 IR Active:          YES                    YES                    YES
 IR Intens:       39.681                 29.642                 61.964
 Raman Active:       YES                    YES                    YES
               X      Y      Z        X      Y      Z        X      Y      Z
 C          0.004  0.001 -0.001   -0.009 -0.001  0.005   -0.005 -0.002  0.002
 C          0.001 -0.000 -0.001   -0.000 -0.001  0.000   -0.001 -0.000  0.001
 C          0.006 -0.001 -0.002    0.011  0.000 -0.006   -0.005  0.001  0.003
 C         -0.021  0.016  0.021   -0.037  0.016  0.031    0.031 -0.004 -0.019
 C         -0.021 -0.001 -0.052    0.002 -0.001  0.002   -0.046 -0.002 -0.018
 C         -0.017 -0.017  0.020    0.035  0.020 -0.031    0.033  0.008 -0.021
 H         -0.010  0.016 -0.005   -0.001  0.008 -0.001    0.010 -0.017  0.003
 H         -0.007 -0.000  0.005    0.002  0.003 -0.001    0.013  0.001 -0.009
 H         -0.044  0.001  0.026    0.109 -0.001 -0.065    0.050 -0.001 -0.031
 H         -0.009 -0.016 -0.005    0.002  0.011  0.002    0.009  0.018  0.003
 H          0.378 -0.006 -0.210    0.572 -0.010 -0.320   -0.398  0.013  0.223
 H         -0.122 -0.185 -0.048   -0.120 -0.176 -0.043    0.020  0.026  0.001
 H          0.074  0.010  0.711   -0.004  0.006 -0.038    0.040  0.006  0.444
 H          0.165  0.006 -0.092   -0.020 -0.001  0.010    0.515  0.019 -0.239
 H          0.341  0.030 -0.190   -0.562 -0.052  0.317   -0.436 -0.046  0.246
 H         -0.132  0.169 -0.050    0.145 -0.180  0.050    0.035 -0.042  0.006
 H         -0.060 -0.006  0.035   -0.133 -0.012  0.078    0.055  0.005 -0.033
 N          0.000  0.000  0.000   -0.000  0.000 -0.000   -0.000 -0.000 -0.000
 H          0.000 -0.000 -0.000    0.000 -0.000 -0.000   -0.000  0.000  0.000
 C         -0.000 -0.000  0.000    0.000  0.000  0.000    0.000  0.000 -0.000
 H          0.000  0.000 -0.000    0.000 -0.000  0.000   -0.000 -0.000 -0.000
 O          0.000  0.000 -0.000   -0.000 -0.000  0.000   -0.000 -0.000  0.000
 TransDip  -0.190 -0.004 -0.067   -0.000  0.174  0.006   -0.021  0.002 -0.251

 Mode:                52                     53                     54
 Frequency:      3019.50                3024.52                3038.29
 Force Cnst:      5.7332                 5.7602                 5.9467
 Red. Mass:       1.0673                 1.0688                 1.0934
 IR Active:          YES                    YES                    YES
 IR Intens:        9.132                 23.135                 81.760
 Raman Active:       YES                    YES                    YES
               X      Y      Z        X      Y      Z        X      Y      Z
 C          0.013 -0.006 -0.011   -0.048  0.020  0.041    0.006  0.001 -0.003
 C          0.006  0.001 -0.003    0.012  0.000 -0.006   -0.002 -0.000  0.001
 C         -0.047 -0.024  0.042   -0.013 -0.006  0.011    0.005 -0.002 -0.002
 C          0.005  0.018  0.008    0.003  0.003 -0.000    0.008  0.027  0.012
 C          0.004  0.000 -0.003    0.007  0.000 -0.004   -0.042 -0.001  0.063
 C         -0.001  0.007 -0.004    0.012 -0.019  0.005    0.012 -0.027  0.013
 H         -0.183  0.231 -0.066   -0.041  0.053 -0.015   -0.019  0.028 -0.008
 H         -0.077 -0.002  0.044   -0.145 -0.006  0.081    0.022  0.001 -0.012
 H         -0.197 -0.003  0.115    0.742  0.002 -0.430   -0.059  0.001  0.033
 H          0.048  0.070  0.018   -0.158 -0.237 -0.061   -0.008 -0.017 -0.004
 H          0.066  0.003 -0.036   -0.019  0.001  0.011    0.093  0.002 -0.047
 H         -0.130 -0.216 -0.055   -0.022 -0.039 -0.009   -0.191 -0.316 -0.088
 H          0.003  0.000  0.008    0.003  0.000  0.005   -0.068 -0.008 -0.508
 H         -0.051 -0.004  0.023   -0.082 -0.002  0.038    0.579  0.021 -0.250
 H         -0.047 -0.003  0.026    0.007 -0.005 -0.002    0.084  0.004 -0.042
 H          0.056 -0.075  0.023   -0.159  0.222 -0.064   -0.227  0.312 -0.097
 H          0.748  0.055 -0.431    0.198  0.017 -0.113   -0.043 -0.004  0.024
 N         -0.000 -0.000 -0.000    0.000 -0.000 -0.000    0.000  0.000  0.000
 H         -0.000 -0.002 -0.003   -0.001  0.001 -0.004   -0.000 -0.000  0.000
 C          0.000  0.000 -0.000    0.000  0.000 -0.000   -0.000 -0.000  0.000
 H         -0.000  0.000 -0.000   -0.000 -0.000 -0.000    0.000  0.000  0.000
 O          0.000 -0.000  0.000    0.000  0.000  0.000    0.000  0.000 -0.000
 TransDip  -0.052 -0.008  0.082   -0.076 -0.013  0.133    0.001 -0.002  0.290

 Mode:                55                     56                     57
 Frequency:      3049.73                3056.55                3072.51
 Force Cnst:      6.0049                 6.0417                 6.0212
 Red. Mass:       1.0958                 1.0976                 1.0825
 IR Active:          YES                    YES                    YES
 IR Intens:       76.821                101.123                 15.046
 Raman Active:       YES                    YES                    YES
               X      Y      Z        X      Y      Z        X      Y      Z
 C          0.011 -0.006 -0.010   -0.009  0.004  0.008    0.006  0.020  0.009
 C         -0.001  0.001  0.000    0.015  0.001 -0.008   -0.059 -0.002  0.034
 C         -0.008 -0.005  0.008   -0.009 -0.004  0.007    0.022 -0.030  0.010
 C         -0.044 -0.044 -0.003   -0.041 -0.035  0.002   -0.005 -0.007 -0.001
 C          0.001 -0.000 -0.001   -0.036 -0.001  0.024   -0.004 -0.000  0.001
 C          0.048 -0.039  0.003   -0.043  0.030  0.002   -0.007  0.005 -0.000
 H         -0.036  0.047 -0.015   -0.020  0.028 -0.008   -0.263  0.361 -0.120
 H          0.006  0.003 -0.004   -0.178 -0.007  0.102    0.716  0.029 -0.401
 H         -0.161 -0.001  0.095    0.132  0.000 -0.080    0.065  0.001 -0.033
 H          0.040  0.061  0.017   -0.024 -0.039 -0.011   -0.143 -0.233 -0.070
 H          0.202 -0.013 -0.120    0.241 -0.015 -0.138    0.019 -0.002 -0.013
 H          0.320  0.535  0.152    0.257  0.434  0.122    0.047  0.078  0.022
 H          0.001 -0.001  0.010   -0.017 -0.002 -0.106   -0.000 -0.000  0.002
 H         -0.014 -0.004  0.006    0.435  0.016 -0.191    0.037  0.002 -0.016
 H         -0.214 -0.029  0.128    0.236  0.033 -0.137    0.035  0.005 -0.022
 H         -0.355  0.495 -0.157    0.277 -0.390  0.122    0.049 -0.067  0.021
 H          0.129  0.009 -0.076    0.118  0.009 -0.072    0.004 -0.002  0.005
 N         -0.000 -0.000  0.000   -0.000 -0.000 -0.000    0.001  0.000  0.001
 H          0.000 -0.001 -0.000    0.001  0.000 -0.003   -0.008 -0.001  0.003
 C          0.000  0.000 -0.000    0.000  0.000 -0.000   -0.001 -0.000  0.000
 H         -0.000  0.000  0.000   -0.000 -0.000 -0.001    0.000  0.000  0.001
 O          0.000 -0.000 -0.000   -0.000 -0.000  0.000    0.000  0.000 -0.001
 TransDip   0.019 -0.280 -0.007   -0.320 -0.021  0.031   -0.012 -0.014  0.123

 Mode:                58                     59                     60
 Frequency:      3086.00                3093.77                3590.94
 Force Cnst:      6.1473                 6.1885                 8.1927
 Red. Mass:       1.0956                 1.0974                 1.0784
 IR Active:          YES                    YES                    YES
 IR Intens:       35.311                 28.625                 27.028
 Raman Active:       YES                    YES                    YES
               X      Y      Z        X      Y      Z        X      Y      Z
 C         -0.026 -0.030 -0.005   -0.055 -0.054 -0.003    0.000  0.000 -0.000
 C          0.022  0.000 -0.012   -0.030 -0.001  0.016   -0.001  0.000 -0.001
 C          0.058 -0.049  0.004   -0.023  0.018  0.000    0.000 -0.000 -0.000
 C          0.006 -0.001 -0.004   -0.004  0.000  0.002    0.000  0.000 -0.000
 C          0.001  0.001 -0.002   -0.002  0.000  0.003    0.000  0.000 -0.000
 C         -0.000 -0.001  0.001   -0.006 -0.001  0.004    0.000 -0.000 -0.000
 H         -0.438  0.610 -0.201    0.157 -0.220  0.072   -0.000  0.001  0.000
 H         -0.256 -0.013  0.142    0.346  0.013 -0.191    0.006 -0.000 -0.007
 H          0.080 -0.004 -0.052    0.269 -0.013 -0.162    0.000 -0.001  0.001
 H          0.223  0.367  0.112    0.394  0.656  0.198   -0.000 -0.001  0.000
 H         -0.075  0.003  0.046    0.044 -0.002 -0.027   -0.000 -0.000 -0.000
 H          0.001  0.001  0.001    0.002  0.002 -0.000   -0.000 -0.000 -0.000
 H          0.001 -0.001  0.009   -0.002 -0.001 -0.017   -0.000 -0.000 -0.000
 H         -0.020  0.001  0.008    0.032  0.002 -0.013   -0.000 -0.000  0.000
 H          0.012  0.001 -0.007    0.076  0.009 -0.047   -0.000  0.000 -0.000
 H         -0.010  0.013 -0.004   -0.003  0.004 -0.003   -0.000  0.000 -0.000
 H         -0.250 -0.031  0.151    0.126  0.017 -0.074   -0.000  0.001  0.001
 N         -0.000  0.000 -0.000    0.001  0.000  0.001   -0.052 -0.014  0.050
 H          0.003 -0.000  0.000   -0.004  0.000 -0.001    0.701  0.184 -0.685
 C          0.000  0.000 -0.000   -0.001 -0.000  0.000    0.001  0.000  0.002
 H         -0.000 -0.000 -0.000    0.000  0.000  0.000   -0.001 -0.000 -0.002
 O         -0.000  0.000  0.000    0.000  0.000 -0.000    0.001  0.000 -0.001
 TransDip   0.080 -0.168 -0.039   -0.152 -0.059  0.051    0.134  0.039 -0.091

 STANDARD THERMODYNAMIC QUANTITIES AT   298.18 K  AND     1.00 ATM

   This Molecule has  0 Imaginary Frequencies
   Zero point vibrational energy:      122.002 kcal/mol

   Atom    1 Element C  Has Mass   12.00000
   Atom    2 Element C  Has Mass   12.00000
   Atom    3 Element C  Has Mass   12.00000
   Atom    4 Element C  Has Mass   12.00000
   Atom    5 Element C  Has Mass   12.00000
   Atom    6 Element C  Has Mass   12.00000
   Atom    7 Element H  Has Mass    1.00783
   Atom    8 Element H  Has Mass    1.00783
   Atom    9 Element H  Has Mass    1.00783
   Atom   10 Element H  Has Mass    1.00783
   Atom   11 Element H  Has Mass    1.00783
   Atom   12 Element H  Has Mass    1.00783
   Atom   13 Element H  Has Mass    1.00783
   Atom   14 Element H  Has Mass    1.00783
   Atom   15 Element H  Has Mass    1.00783
   Atom   16 Element H  Has Mass    1.00783
   Atom   17 Element H  Has Mass    1.00783
   Atom   18 Element N  Has Mass   14.00307
   Atom   19 Element H  Has Mass    1.00783
   Atom   20 Element C  Has Mass   12.00000
   Atom   21 Element H  Has Mass    2.01410
   Atom   22 Element O  Has Mass   15.99491
   Molecular Mass:   128.106042 amu
   Principal axes and moments of inertia in amu*Bohr^2:
                             1           2           3
    Eigenvalues --      554.77072  1961.13391  2165.63931
          X               0.65951     0.01665     0.75151
          Y               0.11984     0.98464    -0.12699
          Z               0.74208    -0.17381    -0.64738
   Rotational Symmetry Number is   1
   The Molecule is an Asymmetric Top
   Translational Enthalpy:        0.889 kcal/mol
   Rotational Enthalpy:           0.889 kcal/mol
   Vibrational Enthalpy:        125.841 kcal/mol
   gas constant (RT):             0.593 kcal/mol
   Translational Entropy:        40.457  cal/mol.K
   Rotational Entropy:           29.245  cal/mol.K
   Vibrational Entropy:          24.982  cal/mol.K

   Total Enthalpy:              128.211 kcal/mol
   Total Entropy:                94.683  cal/mol.K
Archival summary:
1\1\node023\FREQ\ProcedureUnspecified\6-31+G*\11713\ymao90\SunMar705:59:472021SunMar705:59:472021\0\\#,FREQ,ProcedureUnspecified,6-31+G*,\\0,1\N\H,1,1.01388\C,1,1.3654,2,118.002\H,3,1.10292,1,113.06,2,2.8341,0\O,3,1.22581,1,124.305,2,-177.561,0\C,1,1.45772,2,119.711,3,-176.181,0\H,6,1.09601,1,104.509,2,-169.782,0\C,6,1.53737,1,111.961,2,-52.35,0\H,8,1.09654,6,109.594,1,-54.745,0\H,8,1.10085,6,109.681,1,62.2273,0\C,8,1.53906,6,110.689,1,-176.9,0\H,11,1.09873,8,109.966,6,-178.155,0\H,11,1.10181,8,108.792,6,65.4545,0\C,11,1.53842,8,111.888,6,-55.2132,0\H,14,1.10029,11,109.117,8,-66.9715,0\H,14,1.10116,11,110.109,8,176.413,0\C,14,1.53812,11,111.585,8,53.6876,0\H,17,1.09881,14,110.32,11,-176.344,0\H,17,1.1018,14,109.237,11,66.8122,0\C,17,1.53805,14,111.66,11,-53.6384,0\H,20,1.09605,17,110.639,14,176.676,0\H,20,1.1004,17,109.706,14,-65.6313,0\\\@

 Total job time:  5101.69s(wall), 80488.60s(cpu) 
 Sun Mar  7 05:59:47 2021

        *************************************************************
        *                                                           *
        *  Thank you very much for using Q-Chem.  Have a nice day.  *
        *                                                           *
        *************************************************************


