                  Welcome to Q-Chem
     A Quantum Leap Into The Future Of Chemistry


 Q-Chem 5.2 (devel), Q-Chem, Inc., Pleasanton, CA (2019)

 Yihan Shao,  Zhengting Gan,  E. Epifanovsky,  A. T. B. Gilbert,  M. Wormit,  
 J. Kussmann,  A. W. Lange,  A. Behn,  Jia Deng,  Xintian Feng,  D. Ghosh,  
 M. Goldey,  P. R. Horn,  L. D. Jacobson,  I. Kaliman,  T. Kus,  A. Landau,  
 Jie Liu,  E. I. Proynov,  R. M. Richard,  R. P. Steele,  E. J. Sundstrom,  
 H. L. Woodcock III,  P. M. Zimmerman,  D. Zuev,  B. Alam,  B. Albrecht,  
 E. Alguire,  S. A. Baeppler,  D. Barton,  Z. Benda,  Y. A. Bernard,  
 E. J. Berquist,  K. B. Bravaya,  H. Burton,  K. Carter-Fenk,  D. Casanova,  
 Chun-Min Chang,  Yunqing Chen,  A. Chien,  K. D. Closser,  M. P. Coons,  
 S. Coriani,  S. Dasgupta,  A. L. Dempwolff,  M. Diedenhofen,  Hainam Do,  
 R. G. Edgar,  Po-Tung Fang,  S. Faraji,  S. Fatehi,  Qingguo Feng,  
 J. Fosso-Tande,  J. Gayvert,  Qinghui Ge,  A. Ghysels,  G. Gidofalvi,  
 J. Gomes,  J. Gonthier,  A. Gunina,  D. Hait,  M. W. D. Hanson-Heine,  
 P. H. P. Harbach,  A. W. Hauser,  M. F. Herbst,  J. E. Herr,  
 E. G. Hohenstein,  Z. C. Holden,  Kerwin Hui,  B. C. Huynh,  T.-C. Jagau,  
 Hyunjun Ji,  B. Kaduk,  K. Khistyaev,  Jaehoon Kim,  P. Klunzinger,  K. Koh,  
 D. Kosenkov,  L. Koulias,  T. Kowalczyk,  C. M. Krauter,  A. Kunitsa,  
 Ka Un Lao,  A. Laurent,  K. V. Lawler,  Joonho Lee,  D. Lefrancois,  
 S. Lehtola,  D. S. Levine,  Yi-Pei Li,  You-Sheng Lin,  Fenglai Liu,  
 Kuan-Yu Liu,  E. Livshits,  M. Loipersberger,  A. Luenser,  P. Manohar,  
 E. Mansoor,  S. F. Manzer,  Shan-Ping Mao,  Yuezhi Mao,  N. Mardirossian,  
 A. V. Marenich,  T. Markovich,  L. A. Martinez-Martinez,  S. A. Maurer,  
 N. J. Mayhall,  S. C. McKenzie,  J.-M. Mewes,  P. Morgante,  A. F. Morrison,  
 J. W. Mullinax,  K. Nanda,  T. S. Nguyen-Beck,  R. Olivares-Amaya,  
 J. A. Parkhill,  S. K. Paul,  F. Pavosevic,  Zheng Pei,  T. M. Perrine,  
 F. Plasser,  P. Pokhilko,  S. Prager,  A. Prociuk,  E. Ramos,  B. Rana,  
 D. R. Rehn,  F. Rob,  M. Scheurer,  M. Schneider,  N. Sergueev,  
 S. M. Sharada,  S. Sharma,  D. W. Small,  T. Stauch,  C. J. Stein,  
 T. Stein,  Yu-Chuan Su,  S. P. Veccham,  Zhen Tao,  A. J. W. Thom,  
 A. Tkatchenko,  T. Tsuchimochi,  N. M. Tubman,  L. Vogt,  M. L. Vidal,  
 O. Vydrov,  M. A. Watson,  J. Wenzel,  M. de Wergifosse,  T. A. Wesolowski,  
 A. White,  J. Witte,  A. Yamada,  Jun Yang,  K. Yao,  S. Yeganeh,  
 S. R. Yost,  Zhi-Qiang You,  A. Zech,  Igor Ying Zhang,  Xing Zhang,  
 Yan Zhao,  Ying Zhu,  B. R. Brooks,  G. K. L. Chan,  C. J. Cramer,  
 M. S. Gordon,  W. J. Hehre,  A. Klamt,  M. W. Schmidt,  C. D. Sherrill,  
 D. G. Truhlar,  A. Aspuru-Guzik,  R. Baer,  A. T. Bell,  N. A. Besley,  
 Jeng-Da Chai,  A. E. DePrince, III,  R. A. DiStasio Jr.,  A. Dreuw,  
 B. D. Dunietz,  T. R. Furlani,  Chao-Ping Hsu,  Yousung Jung,  Jing Kong,  
 D. S. Lambrecht,  WanZhen Liang,  C. Ochsenfeld,  V. A. Rassolov,  
 L. V. Slipchenko,  J. E. Subotnik,  T. Van Voorhis,  J. M. Herbert,  
 A. I. Krylov,  P. M. W. Gill,  M. Head-Gordon

 Contributors to earlier versions of Q-Chem not listed above: 
 R. D. Adamson,  B. Austin,  J. Baker,  G. J. O. Beran,  K. Brandhorst,  
 S. T. Brown,  E. F. C. Byrd,  A. K. Chakraborty,  C.-L. Cheng,  
 Siu Hung Chien,  D. M. Chipman,  D. L. Crittenden,  H. Dachsel,  
 R. J. Doerksen,  A. D. Dutoi,  L. Fusti-Molnar,  W. A. Goddard III,  
 A. Golubeva-Zadorozhnaya,  S. R. Gwaltney,  G. Hawkins,  A. Heyden,  
 S. Hirata,  G. Kedziora,  F. J. Keil,  C. Kelley,  Jihan Kim,  R. A. King,  
 R. Z. Khaliullin,  P. P. Korambath,  W. Kurlancheek,  A. M. Lee,  M. S. Lee,  
 S. V. Levchenko,  Ching Yeh Lin,  D. Liotard,  R. C. Lochan,  I. Lotan,  
 P. E. Maslen,  N. Nair,  D. P. O'Neill,  D. Neuhauser,  E. Neuscamman,  
 C. M. Oana,  R. Olson,  B. Peters,  R. Peverati,  P. A. Pieniazek,  
 Y. M. Rhee,  J. Ritchie,  M. A. Rohrdanz,  E. Rosta,  N. J. Russ,  
 H. F. Schaefer III,  N. E. Schultz,  N. Shenvi,  A. C. Simmonett,  A. Sodt,  
 D. Stuck,  K. S. Thanthiriwatte,  V. Vanovschi,  Tao Wang,  A. Warshel,  
 C. F. Williams,  Q. Wu,  X. Xu,  W. Zhang

 Please cite Q-Chem as follows:
 Y. Shao et al., Mol. Phys. 113, 184-215 (2015)
 DOI: 10.1080/00268976.2014.952696

 Q-Chem 5.2.2 for Intel X86 EM64T Linux

 Parts of Q-Chem use Armadillo 9.800.1 (Horizon Scraper).
 http://arma.sourceforge.net/

 Q-Chem begins on Sat Feb 20 19:18:57 2021  

Host: n0092.mhg0
0

     Scratch files written to /local/scratch/users/ymao/r7.00_frame_0000_almo_B3LYP_dp.in20210220191855//

Checking the input file for inconsistencies... 	...done.

--------------------------------------------------------------
User input:
--------------------------------------------------------------
$molecule
0 1
--
0 1
C    -1.43818   -1.82818   -4.01476  
H    -1.41233   -2.87396   -3.63610  
O    -0.43271   -1.39300   -4.58350  
N    -2.54675   -1.05524   -3.82050  
H    -3.33883   -1.51675   -3.34197  
C    -2.86381   0.26397    -4.38276  
C    -3.04750   0.20902    -5.96107  
C    -4.14270   0.95552    -3.75968  
H    -1.99237   0.97907    -4.12856  
C    -3.33313   1.61300    -6.56629  
H    -3.94314   -0.50849   -6.14469  
H    -2.07810   -0.25211   -6.32889  
C    -4.45992   2.32211    -4.34421  
H    -5.00391   0.26752    -3.88121  
H    -3.90466   0.91385    -2.67347  
C    -4.59606   2.19479    -5.85142  
H    -3.37782   1.54535    -7.60385  
H    -2.50983   2.38505    -6.31858  
H    -5.40106   2.80677    -3.94132  
H    -3.65053   3.04360    -4.17394  
H    -4.86796   3.14491    -6.31801  
H    -5.48783   1.55803    -6.00633  
--
0 1
O    -6.68680   5.09039    -4.20229  
H    -6.69067   5.60900    -5.02576  
H    -5.99396   5.56092    -3.67647  
O    -0.03740   -1.62200   1.16656   
H    0.10520    -0.88803   0.57930   
H    -0.26794   -2.50796   0.77748   
O    1.30594    1.63278    -11.79120 
H    0.36235    1.70600    -11.79511 
H    1.59444    0.74597    -11.70123 
O    -0.67119   4.96216    1.34436   
H    -0.42657   4.07033    1.11205   
H    0.00078    5.54309    1.09104   
O    2.07562    2.45808    -9.34553  
H    1.71662    2.17180    -10.20715 
H    2.76566    1.81449    -9.02847  
O    -6.05588   -4.14946   -9.54731  
H    -5.67966   -3.34063   -9.17480  
H    -5.52270   -4.83284   -9.12840  
O    -2.67481   -1.66772   1.68438   
H    -1.70951   -1.53256   1.71374   
H    -2.80929   -2.61387   1.61257   
O    1.58610    0.00706    -6.29540  
H    1.97294    -0.76341   -6.71159  
H    1.09113    -0.20915   -5.52789  
O    -10.87136  0.74612    -6.23383  
H    -10.60449  1.37093    -6.92742  
H    -9.97849   0.37568    -5.92950  
O    -8.22848   6.45167    1.04908   
H    -7.28269   6.45495    1.16535   
H    -8.55354   6.31026    1.94896   
O    -7.41627   1.43985    0.90212   
H    -6.89364   2.26915    0.91184   
H    -8.07613   1.50132    0.14846   
O    -2.91566   -7.88640   -5.36727  
H    -2.75169   -7.85141   -4.35885  
H    -3.25518   -8.73784   -5.62530  
O    -1.34495   1.59204    -12.08979 
H    -1.38028   0.68575    -12.45566 
H    -1.69455   2.19706    -12.75782 
O    -4.05436   5.17592    -11.61277 
H    -4.41597   6.01827    -11.84102 
H    -3.09166   5.18191    -11.67793 
O    -6.74545   -3.61134   1.30843   
H    -6.35086   -3.95410   2.12281   
H    -7.48284   -3.07086   1.61423   
O    -1.87697   5.50292    -6.55365  
H    -2.04859   6.39382    -6.18085  
H    -2.74689   5.29425    -7.01239  
O    -5.22663   -6.42551   -6.25550  
H    -5.99402   -6.77732   -5.81132  
H    -4.49111   -6.77203   -5.75519  
O    3.83228    0.98508    -3.53030  
H    3.00300    0.54538    -3.12512  
H    3.70460    1.89396    -3.37492  
O    -0.54046   -5.57625   -3.66708  
H    -1.44679   -5.51801   -3.50729  
H    -0.28347   -4.93197   -4.28827  
O    3.18571    -5.32110   -6.08350  
H    2.81537    -6.22177   -6.12464  
H    3.84686    -5.25228   -5.39531  
O    5.42226    -0.93606   -2.75504  
H    5.71783    -0.96740   -3.66615  
H    4.97676    -0.10596   -2.58292  
O    -8.37819   2.72511    -3.95270  
H    -9.16211   3.13578    -3.59868  
H    -7.71645   3.39710    -3.97564  
O    0.85275    2.41290    2.01952   
H    0.07301    2.44710    2.60318   
H    1.52514    2.57508    2.71636   
O    -3.04208   0.32768    3.84677   
H    -3.07974   -0.35864   3.15872   
H    -2.56561   0.11148    4.57835   
O    1.33506    -5.59255   -1.31060  
H    0.73142    -5.67711   -2.01240  
H    1.62481    -6.45557   -1.13241  
O    -3.61944   0.17549    -11.23831 
H    -2.91424   0.80510    -11.28345 
H    -3.21247   -0.59702   -10.93493 
O    3.61599    3.63761    -2.93116  
H    4.24763    4.38560    -2.93008  
H    2.82402    3.99028    -2.62652  
O    5.10618    0.41974    -6.03054  
H    4.32705    0.61185    -5.49568  
H    5.87869    0.70405    -5.47569  
O    4.21319    -1.68904   0.18688   
H    4.91692    -2.30892   0.06697   
H    3.62140    -1.76686   -0.62541  
O    -0.53032   -4.97669   2.67747   
H    -1.31463   -4.52659   2.81704   
H    -0.34617   -4.63729   1.79494   
O    -3.09087   -4.36349   1.84744   
H    -3.51491   -4.82410   2.57557   
H    -2.98437   -5.04327   1.18011   
O    -7.96344   0.13231    -5.14754  
H    -7.50878   -0.15581   -5.93027  
H    -7.77678   1.11809    -4.92784  
O    -10.07040  -1.58939   -2.24013  
H    -10.30791  -1.56992   -1.29441  
H    -9.51191   -2.33143   -2.35218  
O    -5.99263   -6.92651   -2.59549  
H    -6.02755   -7.73135   -2.06383  
H    -6.15467   -6.23900   -1.92856  
O    -8.88918   4.53245    -0.74761  
H    -9.08559   3.94974    -0.04521  
H    -8.51942   5.36456    -0.32046  
O    -6.76787   -2.22222   -4.19272  
H    -7.42167   -2.68135   -3.70163  
H    -7.18172   -1.34863   -4.24790  
O    -10.51826  4.80844    -5.98872  
H    -10.15132  3.91927    -6.15050  
H    -10.59508  4.92697    -5.03401  
O    0.56270    4.87347    -7.66552  
H    1.03306    5.69756    -7.86534  
H    -0.30011   5.03937    -7.29401  
O    0.13590    7.20755    -4.03136  
H    -0.22959   7.11528    -3.18164  
H    0.04235    6.39027    -4.51449  
O    -2.49398   -5.89461   -0.62375  
H    -2.02613   -6.68810   -0.31279  
H    -2.76231   -5.92874   -1.56338  
O    1.71647    2.91587    -5.97481  
H    2.05864    2.03647    -6.30307  
H    1.53563    3.42902    -6.77918  
O    -0.39090   3.30129    -9.96231  
H    -0.25832   3.69708    -9.09963  
H    -0.82882   2.47687    -9.84566  
O    -0.24686   0.11156    -0.91273  
H    -1.00276   0.14557    -1.40826  
H    0.32803    0.90575    -1.07905  
O    -8.30980   -2.17544   -9.01146  
H    -9.09313   -2.70275   -8.94177  
H    -7.61486   -2.74179   -9.32678  
O    -1.94692   -6.55574   -8.64805  
H    -1.52572   -7.34585   -8.23804  
H    -1.86703   -5.90317   -8.01205  
O    0.72587    1.01762    -3.56575  
H    0.69755    1.80759    -4.10687  
H    0.22346    0.23299    -3.90521  
O    -3.07235   2.72385    0.67030   
H    -2.36875   2.50030    1.36169   
H    -3.22283   1.86491    0.18854   
O    -11.14730  2.78129    -4.02688  
H    -10.94558  2.15485    -4.82069  
H    -11.88550  3.34290    -4.33359  
O    -4.81623   8.52439    -6.47109  
H    -4.00116   8.24417    -5.99798  
H    -4.52166   9.04589    -7.21130  
O    -4.37510   5.08698    -8.04836  
H    -4.65111   4.21261    -8.42842  
H    -4.11516   5.73368    -8.73019  
O    -3.86480   6.48500    -2.82954  
H    -4.15373   7.37351    -2.61315  
H    -3.60683   6.07949    -2.03659  
O    -7.22736   -5.07350   -0.96016  
H    -7.09374   -4.47148   -0.19302  
H    -7.43528   -5.88717   -0.54645  
O    -1.03461   -1.28716   -13.15974 
H    -0.08414   -1.35993   -13.00600 
H    -1.45519   -2.10059   -12.93835 
O    5.31419    -2.22672   -6.66345  
H    6.25046    -2.53879   -6.52978  
H    5.28390    -1.26668   -6.53735  
O    -2.36611   7.77353    -5.22014  
H    -2.00606   8.64654    -5.05038  
H    -2.50597   7.38335    -4.36277  
O    -8.48976   -3.78725   -2.95453  
H    -9.00928   -4.29866   -3.55706  
H    -8.08167   -4.36091   -2.26508  
O    -3.19335   7.59978    -9.24506  
H    -3.39580   8.34366    -8.56218  
H    -3.74908   7.87740    -9.93708  
O    -0.62020   4.12656    -4.52247  
H    -1.21420   4.50962    -5.23651  
H    0.13865    3.77431    -5.07763  
O    -10.93475  -2.51332   -5.34627  
H    -11.31291  -3.34113   -5.20077  
H    -10.68191  -2.17732   -4.47491  
O    0.14163    -2.89579   -9.12699  
H    0.75446    -3.31010   -9.73542  
H    0.72283    -2.32554   -8.62082  
O    1.70554    7.21280    -8.70278  
H    1.92232    6.68890    -9.49060  
H    1.97927    8.13749    -8.86279  
O    -6.48981   6.38976    -6.60901  
H    -5.79310   7.07682    -6.54423  
H    -6.02297   5.58848    -6.92149  
O    -3.07169   -8.04842   -2.55218  
H    -3.74844   -8.70474   -2.45189  
H    -2.42028   -8.29386   -1.85328  
O    -7.85190   8.40344    -2.14132  
H    -7.64557   7.52442    -2.43926  
H    -8.62852   8.73135    -2.55487  
O    2.20962    -0.94182   -2.13437  
H    1.48880    -0.58999   -1.55425  
H    1.87415    -1.70176   -2.66535  
O    -3.65373   -3.40235   -5.91864  
H    -2.92307   -3.70716   -6.42930  
H    -3.69392   -3.95510   -5.13637  
O    -6.89944   -0.33362   -7.53915  
H    -7.51928   -0.96041   -7.87141  
H    -6.05571   -0.72070   -7.72740  
O    3.25433    -3.82244   -1.67595  
H    2.51085    -4.42349   -1.87075  
H    3.60597    -3.51992   -2.48505  
O    -6.25849   -0.90194   -0.34922  
H    -6.59678   -0.15310   0.12736   
H    -6.46606   -1.66122   0.20978   
O    -1.33352   -4.48318   -7.17917  
H    -0.53202   -4.20287   -6.65621  
H    -1.33894   -3.92751   -7.97318  
O    -9.91408   2.68783    -7.86519  
H    -8.94435   2.59879    -8.14036  
H    -10.39516  3.44182    -8.30512  
O    -0.45500   -4.14320   0.06328   
H    -1.21800   -4.64315   -0.29770  
H    0.33736    -4.46126   -0.39152  
O    1.19105    4.43852    -2.32999  
H    1.27525    5.35441    -2.01285  
H    0.38534    4.36925    -2.82760  
O    -6.50333   -3.71975   -6.58557  
H    -6.23833   -3.18838   -5.83507  
H    -5.90697   -4.43525   -6.62517  
O    -1.60052   2.50690    3.08762   
H    -1.84576   3.45386    3.23746   
H    -2.29029   1.85879    3.36612   
O    -5.38325   8.67822    -1.23736  
H    -6.18976   8.81553    -1.68985  
H    -4.86726   9.46444    -1.50521  
O    -9.13552   6.94241    -7.34580  
H    -9.59075   6.28192    -6.82331  
H    -8.19969   6.85802    -7.06923  
O    -4.61986   -2.19486   -8.40277  
H    -4.49414   -2.73666   -7.65137  
H    -3.72480   -1.75381   -8.67878  
O    4.06659    0.39213    -8.60348  
H    4.71354    0.14598    -9.36040  
H    4.57823    0.37734    -7.87059  
O    0.79043    -3.78501   -5.63423  
H    1.70953    -4.06314   -5.64147  
H    0.61528    -2.94643   -5.23314  
O    1.83539    -8.29710   -1.08605  
H    2.01144    -8.90665   -0.37252  
H    2.31065    -8.61421   -1.86922  
O    -0.97468   7.21347    -1.23746  
H    -0.10094   7.09465    -0.77154  
H    -1.56876   6.58590    -0.86350  
O    -5.37268   3.06250    -10.44371 
H    -4.99288   3.73808    -10.98971 
H    -4.86795   2.28466    -10.75732 
O    -5.42781   6.77345    0.74157   
H    -4.79341   7.02182    1.41442   
H    -5.46550   7.54067    0.13248   
O    -4.66767   -2.50676   -2.43329  
H    -4.68000   -1.87216   -1.69879  
H    -5.49833   -2.37487   -2.92643  
O    -2.92940   5.38855    -0.56271  
H    -3.41545   5.51218    0.27218   
H    -2.76032   4.48565    -0.69151  
O    1.73017    2.15893    -0.61159  
H    1.53516    2.37201    0.32468   
H    1.68314    3.06222    -1.10310  
O    -7.20454   2.31659    -8.51706  
H    -6.41802   2.45564    -8.98662  
H    -7.01106   1.42776    -8.11393  
O    -1.29548   5.37968    -11.69336 
H    -0.97350   4.56890    -11.14202 
H    -0.60714   5.89457    -12.10682 
O    -9.40989   5.38200    -3.20125  
H    -8.46018   5.21515    -3.42780  
H    -9.48577   5.20736    -2.28844  
O    1.65116    -7.67110   -5.37072  
H    2.28526    -8.04389   -5.89990  
H    1.83124    -7.91760   -4.46742  
O    -5.19679   -0.54255   -13.42298 
H    -5.51944   0.31175    -13.78231 
H    -4.56331   -0.42122   -12.69072 
O    3.70087    -2.60103   -4.26015  
H    3.90195    -1.75103   -3.87499  
H    4.12598    -2.65864   -5.10083  
O    -5.50150   3.88195    0.97675   
H    -5.50855   4.77617    0.59117   
H    -4.66895   3.45747    0.79249   
O    -3.50624   -5.11597   -3.48424  
H    -3.88726   -4.56346   -2.78191  
H    -4.02721   -5.90009   -3.52079  
O    -0.18714   0.68068    -8.33065  
H    0.45635    1.19842    -8.89385  
H    0.43823    0.42269    -7.56875  
O    -1.63976   3.53924    -13.98854 
H    -1.78903   4.44124    -13.73546 
H    -0.65867   3.44901    -14.20326 
O    -9.02623   -4.11074   -6.48267  
H    -9.14110   -3.38133   -5.86829  
H    -8.05467   -4.15610   -6.64509  
O    -2.00815   -1.24345   -9.28810  
H    -1.54619   -2.05644   -9.13998  
H    -1.48348   -0.52617   -8.97351  
O    -8.97621   1.09122    -1.49695  
H    -9.29183   0.20868    -1.78962  
H    -8.52229   1.37621    -2.33510  
O    -11.66957  1.85980    -0.96441  
H    -11.88616  1.66238    -0.06070  
H    -10.76614  1.57428    -1.12717  
O    -8.23373   -0.10828   -11.06388 
H    -8.31120   -0.97273   -11.38613 
H    -8.65231   -0.12246   -10.18103 
O    -0.63059   -8.42218   -6.62834  
H    -1.33985   -8.13813   -6.07247  
H    0.15698    -7.94745   -6.32114  
O    -3.30761   0.15698    -0.11630  
H    -4.18060   -0.02796   -0.39932  
H    -3.21399   -0.48994   0.57145   
O    -7.92386   2.45163    -11.93509 
H    -7.41589   2.49800    -11.10803 
H    -7.89486   1.51971    -12.15647 
O    -1.05130   -8.29180   -0.42720  
H    -0.96191   -9.09698   0.09017   
H    -0.16664   -8.09988   -0.76801  
O    2.58996    -1.85380   -7.94662  
H    3.30404    -2.46473   -7.70284  
H    3.10006    -1.07062   -8.24760  
$end

$rem
JOBTYPE  SP
METHOD  B3LYP
BASIS  6-31+G(D)
SYMMETRY  FALSE
SYM_IGNORE  TRUE
MEM_TOTAL  16000
MEM_STATIC  8000
MAX_SUB_FILE_NUM  16000
BASIS_LIN_DEP_THRESH  6
THRESH  14
SCF_CONVERGENCE  8
GEN_SCFMAN  TRUE
SCF_GUESS  FRAGMO
FD_MAT_VEC_PROD  FALSE
XC_GRID  000075000302
NL_GRID  1
MAX_SCF_CYCLES  200
FRGM_METHOD  STOLL
SCFMI_MODE  1
$end

$development
almo_efield  1
$end

$rem_frgm
SCF_CONVERGENCE  4
$end

--------------------------------------------------------------
 ----------------------------------------------------------------
             Standard Nuclear Orientation (Angstroms)
    I     Atom           X                Y                Z
 ----------------------------------------------------------------
    1      C      -1.4381800000    -1.8281800000    -4.0147600000
    2      H      -1.4123300000    -2.8739600000    -3.6361000000
    3      O      -0.4327100000    -1.3930000000    -4.5835000000
    4      N      -2.5467500000    -1.0552400000    -3.8205000000
    5      H      -3.3388300000    -1.5167500000    -3.3419700000
    6      C      -2.8638100000     0.2639700000    -4.3827600000
    7      C      -3.0475000000     0.2090200000    -5.9610700000
    8      C      -4.1427000000     0.9555200000    -3.7596800000
    9      H      -1.9923700000     0.9790700000    -4.1285600000
   10      C      -3.3331300000     1.6130000000    -6.5662900000
   11      H      -3.9431400000    -0.5084900000    -6.1446900000
   12      H      -2.0781000000    -0.2521100000    -6.3288900000
   13      C      -4.4599200000     2.3221100000    -4.3442100000
   14      H      -5.0039100000     0.2675200000    -3.8812100000
   15      H      -3.9046600000     0.9138500000    -2.6734700000
   16      C      -4.5960600000     2.1947900000    -5.8514200000
   17      H      -3.3778200000     1.5453500000    -7.6038500000
   18      H      -2.5098300000     2.3850500000    -6.3185800000
   19      H      -5.4010600000     2.8067700000    -3.9413200000
   20      H      -3.6505300000     3.0436000000    -4.1739400000
   21      H      -4.8679600000     3.1449100000    -6.3180100000
   22      H      -5.4878300000     1.5580300000    -6.0063300000
   23      O      -6.6868000000     5.0903900000    -4.2022900000
   24      H      -6.6906700000     5.6090000000    -5.0257600000
   25      H      -5.9939600000     5.5609200000    -3.6764700000
   26      O      -0.0374000000    -1.6220000000     1.1665600000
   27      H       0.1052000000    -0.8880300000     0.5793000000
   28      H      -0.2679400000    -2.5079600000     0.7774800000
   29      O       1.3059400000     1.6327800000   -11.7912000000
   30      H       0.3623500000     1.7060000000   -11.7951100000
   31      H       1.5944400000     0.7459700000   -11.7012300000
   32      O      -0.6711900000     4.9621600000     1.3443600000
   33      H      -0.4265700000     4.0703300000     1.1120500000
   34      H       0.0007800000     5.5430900000     1.0910400000
   35      O       2.0756200000     2.4580800000    -9.3455300000
   36      H       1.7166200000     2.1718000000   -10.2071500000
   37      H       2.7656600000     1.8144900000    -9.0284700000
   38      O      -6.0558800000    -4.1494600000    -9.5473100000
   39      H      -5.6796600000    -3.3406300000    -9.1748000000
   40      H      -5.5227000000    -4.8328400000    -9.1284000000
   41      O      -2.6748100000    -1.6677200000     1.6843800000
   42      H      -1.7095100000    -1.5325600000     1.7137400000
   43      H      -2.8092900000    -2.6138700000     1.6125700000
   44      O       1.5861000000     0.0070600000    -6.2954000000
   45      H       1.9729400000    -0.7634100000    -6.7115900000
   46      H       1.0911300000    -0.2091500000    -5.5278900000
   47      O     -10.8713600000     0.7461200000    -6.2338300000
   48      H     -10.6044900000     1.3709300000    -6.9274200000
   49      H      -9.9784900000     0.3756800000    -5.9295000000
   50      O      -8.2284800000     6.4516700000     1.0490800000
   51      H      -7.2826900000     6.4549500000     1.1653500000
   52      H      -8.5535400000     6.3102600000     1.9489600000
   53      O      -7.4162700000     1.4398500000     0.9021200000
   54      H      -6.8936400000     2.2691500000     0.9118400000
   55      H      -8.0761300000     1.5013200000     0.1484600000
   56      O      -2.9156600000    -7.8864000000    -5.3672700000
   57      H      -2.7516900000    -7.8514100000    -4.3588500000
   58      H      -3.2551800000    -8.7378400000    -5.6253000000
   59      O      -1.3449500000     1.5920400000   -12.0897900000
   60      H      -1.3802800000     0.6857500000   -12.4556600000
   61      H      -1.6945500000     2.1970600000   -12.7578200000
   62      O      -4.0543600000     5.1759200000   -11.6127700000
   63      H      -4.4159700000     6.0182700000   -11.8410200000
   64      H      -3.0916600000     5.1819100000   -11.6779300000
   65      O      -6.7454500000    -3.6113400000     1.3084300000
   66      H      -6.3508600000    -3.9541000000     2.1228100000
   67      H      -7.4828400000    -3.0708600000     1.6142300000
   68      O      -1.8769700000     5.5029200000    -6.5536500000
   69      H      -2.0485900000     6.3938200000    -6.1808500000
   70      H      -2.7468900000     5.2942500000    -7.0123900000
   71      O      -5.2266300000    -6.4255100000    -6.2555000000
   72      H      -5.9940200000    -6.7773200000    -5.8113200000
   73      H      -4.4911100000    -6.7720300000    -5.7551900000
   74      O       3.8322800000     0.9850800000    -3.5303000000
   75      H       3.0030000000     0.5453800000    -3.1251200000
   76      H       3.7046000000     1.8939600000    -3.3749200000
   77      O      -0.5404600000    -5.5762500000    -3.6670800000
   78      H      -1.4467900000    -5.5180100000    -3.5072900000
   79      H      -0.2834700000    -4.9319700000    -4.2882700000
   80      O       3.1857100000    -5.3211000000    -6.0835000000
   81      H       2.8153700000    -6.2217700000    -6.1246400000
   82      H       3.8468600000    -5.2522800000    -5.3953100000
   83      O       5.4222600000    -0.9360600000    -2.7550400000
   84      H       5.7178300000    -0.9674000000    -3.6661500000
   85      H       4.9767600000    -0.1059600000    -2.5829200000
   86      O      -8.3781900000     2.7251100000    -3.9527000000
   87      H      -9.1621100000     3.1357800000    -3.5986800000
   88      H      -7.7164500000     3.3971000000    -3.9756400000
   89      O       0.8527500000     2.4129000000     2.0195200000
   90      H       0.0730100000     2.4471000000     2.6031800000
   91      H       1.5251400000     2.5750800000     2.7163600000
   92      O      -3.0420800000     0.3276800000     3.8467700000
   93      H      -3.0797400000    -0.3586400000     3.1587200000
   94      H      -2.5656100000     0.1114800000     4.5783500000
   95      O       1.3350600000    -5.5925500000    -1.3106000000
   96      H       0.7314200000    -5.6771100000    -2.0124000000
   97      H       1.6248100000    -6.4555700000    -1.1324100000
   98      O      -3.6194400000     0.1754900000   -11.2383100000
   99      H      -2.9142400000     0.8051000000   -11.2834500000
  100      H      -3.2124700000    -0.5970200000   -10.9349300000
  101      O       3.6159900000     3.6376100000    -2.9311600000
  102      H       4.2476300000     4.3856000000    -2.9300800000
  103      H       2.8240200000     3.9902800000    -2.6265200000
  104      O       5.1061800000     0.4197400000    -6.0305400000
  105      H       4.3270500000     0.6118500000    -5.4956800000
  106      H       5.8786900000     0.7040500000    -5.4756900000
  107      O       4.2131900000    -1.6890400000     0.1868800000
  108      H       4.9169200000    -2.3089200000     0.0669700000
  109      H       3.6214000000    -1.7668600000    -0.6254100000
  110      O      -0.5303200000    -4.9766900000     2.6774700000
  111      H      -1.3146300000    -4.5265900000     2.8170400000
  112      H      -0.3461700000    -4.6372900000     1.7949400000
  113      O      -3.0908700000    -4.3634900000     1.8474400000
  114      H      -3.5149100000    -4.8241000000     2.5755700000
  115      H      -2.9843700000    -5.0432700000     1.1801100000
  116      O      -7.9634400000     0.1323100000    -5.1475400000
  117      H      -7.5087800000    -0.1558100000    -5.9302700000
  118      H      -7.7767800000     1.1180900000    -4.9278400000
  119      O     -10.0704000000    -1.5893900000    -2.2401300000
  120      H     -10.3079100000    -1.5699200000    -1.2944100000
  121      H      -9.5119100000    -2.3314300000    -2.3521800000
  122      O      -5.9926300000    -6.9265100000    -2.5954900000
  123      H      -6.0275500000    -7.7313500000    -2.0638300000
  124      H      -6.1546700000    -6.2390000000    -1.9285600000
  125      O      -8.8891800000     4.5324500000    -0.7476100000
  126      H      -9.0855900000     3.9497400000    -0.0452100000
  127      H      -8.5194200000     5.3645600000    -0.3204600000
  128      O      -6.7678700000    -2.2222200000    -4.1927200000
  129      H      -7.4216700000    -2.6813500000    -3.7016300000
  130      H      -7.1817200000    -1.3486300000    -4.2479000000
  131      O     -10.5182600000     4.8084400000    -5.9887200000
  132      H     -10.1513200000     3.9192700000    -6.1505000000
  133      H     -10.5950800000     4.9269700000    -5.0340100000
  134      O       0.5627000000     4.8734700000    -7.6655200000
  135      H       1.0330600000     5.6975600000    -7.8653400000
  136      H      -0.3001100000     5.0393700000    -7.2940100000
  137      O       0.1359000000     7.2075500000    -4.0313600000
  138      H      -0.2295900000     7.1152800000    -3.1816400000
  139      H       0.0423500000     6.3902700000    -4.5144900000
  140      O      -2.4939800000    -5.8946100000    -0.6237500000
  141      H      -2.0261300000    -6.6881000000    -0.3127900000
  142      H      -2.7623100000    -5.9287400000    -1.5633800000
  143      O       1.7164700000     2.9158700000    -5.9748100000
  144      H       2.0586400000     2.0364700000    -6.3030700000
  145      H       1.5356300000     3.4290200000    -6.7791800000
  146      O      -0.3909000000     3.3012900000    -9.9623100000
  147      H      -0.2583200000     3.6970800000    -9.0996300000
  148      H      -0.8288200000     2.4768700000    -9.8456600000
  149      O      -0.2468600000     0.1115600000    -0.9127300000
  150      H      -1.0027600000     0.1455700000    -1.4082600000
  151      H       0.3280300000     0.9057500000    -1.0790500000
  152      O      -8.3098000000    -2.1754400000    -9.0114600000
  153      H      -9.0931300000    -2.7027500000    -8.9417700000
  154      H      -7.6148600000    -2.7417900000    -9.3267800000
  155      O      -1.9469200000    -6.5557400000    -8.6480500000
  156      H      -1.5257200000    -7.3458500000    -8.2380400000
  157      H      -1.8670300000    -5.9031700000    -8.0120500000
  158      O       0.7258700000     1.0176200000    -3.5657500000
  159      H       0.6975500000     1.8075900000    -4.1068700000
  160      H       0.2234600000     0.2329900000    -3.9052100000
  161      O      -3.0723500000     2.7238500000     0.6703000000
  162      H      -2.3687500000     2.5003000000     1.3616900000
  163      H      -3.2228300000     1.8649100000     0.1885400000
  164      O     -11.1473000000     2.7812900000    -4.0268800000
  165      H     -10.9455800000     2.1548500000    -4.8206900000
  166      H     -11.8855000000     3.3429000000    -4.3335900000
  167      O      -4.8162300000     8.5243900000    -6.4710900000
  168      H      -4.0011600000     8.2441700000    -5.9979800000
  169      H      -4.5216600000     9.0458900000    -7.2113000000
  170      O      -4.3751000000     5.0869800000    -8.0483600000
  171      H      -4.6511100000     4.2126100000    -8.4284200000
  172      H      -4.1151600000     5.7336800000    -8.7301900000
  173      O      -3.8648000000     6.4850000000    -2.8295400000
  174      H      -4.1537300000     7.3735100000    -2.6131500000
  175      H      -3.6068300000     6.0794900000    -2.0365900000
  176      O      -7.2273600000    -5.0735000000    -0.9601600000
  177      H      -7.0937400000    -4.4714800000    -0.1930200000
  178      H      -7.4352800000    -5.8871700000    -0.5464500000
  179      O      -1.0346100000    -1.2871600000   -13.1597400000
  180      H      -0.0841400000    -1.3599300000   -13.0060000000
  181      H      -1.4551900000    -2.1005900000   -12.9383500000
  182      O       5.3141900000    -2.2267200000    -6.6634500000
  183      H       6.2504600000    -2.5387900000    -6.5297800000
  184      H       5.2839000000    -1.2666800000    -6.5373500000
  185      O      -2.3661100000     7.7735300000    -5.2201400000
  186      H      -2.0060600000     8.6465400000    -5.0503800000
  187      H      -2.5059700000     7.3833500000    -4.3627700000
  188      O      -8.4897600000    -3.7872500000    -2.9545300000
  189      H      -9.0092800000    -4.2986600000    -3.5570600000
  190      H      -8.0816700000    -4.3609100000    -2.2650800000
  191      O      -3.1933500000     7.5997800000    -9.2450600000
  192      H      -3.3958000000     8.3436600000    -8.5621800000
  193      H      -3.7490800000     7.8774000000    -9.9370800000
  194      O      -0.6202000000     4.1265600000    -4.5224700000
  195      H      -1.2142000000     4.5096200000    -5.2365100000
  196      H       0.1386500000     3.7743100000    -5.0776300000
  197      O     -10.9347500000    -2.5133200000    -5.3462700000
  198      H     -11.3129100000    -3.3411300000    -5.2007700000
  199      H     -10.6819100000    -2.1773200000    -4.4749100000
  200      O       0.1416300000    -2.8957900000    -9.1269900000
  201      H       0.7544600000    -3.3101000000    -9.7354200000
  202      H       0.7228300000    -2.3255400000    -8.6208200000
  203      O       1.7055400000     7.2128000000    -8.7027800000
  204      H       1.9223200000     6.6889000000    -9.4906000000
  205      H       1.9792700000     8.1374900000    -8.8627900000
  206      O      -6.4898100000     6.3897600000    -6.6090100000
  207      H      -5.7931000000     7.0768200000    -6.5442300000
  208      H      -6.0229700000     5.5884800000    -6.9214900000
  209      O      -3.0716900000    -8.0484200000    -2.5521800000
  210      H      -3.7484400000    -8.7047400000    -2.4518900000
  211      H      -2.4202800000    -8.2938600000    -1.8532800000
  212      O      -7.8519000000     8.4034400000    -2.1413200000
  213      H      -7.6455700000     7.5244200000    -2.4392600000
  214      H      -8.6285200000     8.7313500000    -2.5548700000
  215      O       2.2096200000    -0.9418200000    -2.1343700000
  216      H       1.4888000000    -0.5899900000    -1.5542500000
  217      H       1.8741500000    -1.7017600000    -2.6653500000
  218      O      -3.6537300000    -3.4023500000    -5.9186400000
  219      H      -2.9230700000    -3.7071600000    -6.4293000000
  220      H      -3.6939200000    -3.9551000000    -5.1363700000
  221      O      -6.8994400000    -0.3336200000    -7.5391500000
  222      H      -7.5192800000    -0.9604100000    -7.8714100000
  223      H      -6.0557100000    -0.7207000000    -7.7274000000
  224      O       3.2543300000    -3.8224400000    -1.6759500000
  225      H       2.5108500000    -4.4234900000    -1.8707500000
  226      H       3.6059700000    -3.5199200000    -2.4850500000
  227      O      -6.2584900000    -0.9019400000    -0.3492200000
  228      H      -6.5967800000    -0.1531000000     0.1273600000
  229      H      -6.4660600000    -1.6612200000     0.2097800000
  230      O      -1.3335200000    -4.4831800000    -7.1791700000
  231      H      -0.5320200000    -4.2028700000    -6.6562100000
  232      H      -1.3389400000    -3.9275100000    -7.9731800000
  233      O      -9.9140800000     2.6878300000    -7.8651900000
  234      H      -8.9443500000     2.5987900000    -8.1403600000
  235      H     -10.3951600000     3.4418200000    -8.3051200000
  236      O      -0.4550000000    -4.1432000000     0.0632800000
  237      H      -1.2180000000    -4.6431500000    -0.2977000000
  238      H       0.3373600000    -4.4612600000    -0.3915200000
  239      O       1.1910500000     4.4385200000    -2.3299900000
  240      H       1.2752500000     5.3544100000    -2.0128500000
  241      H       0.3853400000     4.3692500000    -2.8276000000
  242      O      -6.5033300000    -3.7197500000    -6.5855700000
  243      H      -6.2383300000    -3.1883800000    -5.8350700000
  244      H      -5.9069700000    -4.4352500000    -6.6251700000
  245      O      -1.6005200000     2.5069000000     3.0876200000
  246      H      -1.8457600000     3.4538600000     3.2374600000
  247      H      -2.2902900000     1.8587900000     3.3661200000
  248      O      -5.3832500000     8.6782200000    -1.2373600000
  249      H      -6.1897600000     8.8155300000    -1.6898500000
  250      H      -4.8672600000     9.4644400000    -1.5052100000
  251      O      -9.1355200000     6.9424100000    -7.3458000000
  252      H      -9.5907500000     6.2819200000    -6.8233100000
  253      H      -8.1996900000     6.8580200000    -7.0692300000
  254      O      -4.6198600000    -2.1948600000    -8.4027700000
  255      H      -4.4941400000    -2.7366600000    -7.6513700000
  256      H      -3.7248000000    -1.7538100000    -8.6787800000
  257      O       4.0665900000     0.3921300000    -8.6034800000
  258      H       4.7135400000     0.1459800000    -9.3604000000
  259      H       4.5782300000     0.3773400000    -7.8705900000
  260      O       0.7904300000    -3.7850100000    -5.6342300000
  261      H       1.7095300000    -4.0631400000    -5.6414700000
  262      H       0.6152800000    -2.9464300000    -5.2331400000
  263      O       1.8353900000    -8.2971000000    -1.0860500000
  264      H       2.0114400000    -8.9066500000    -0.3725200000
  265      H       2.3106500000    -8.6142100000    -1.8692200000
  266      O      -0.9746800000     7.2134700000    -1.2374600000
  267      H      -0.1009400000     7.0946500000    -0.7715400000
  268      H      -1.5687600000     6.5859000000    -0.8635000000
  269      O      -5.3726800000     3.0625000000   -10.4437100000
  270      H      -4.9928800000     3.7380800000   -10.9897100000
  271      H      -4.8679500000     2.2846600000   -10.7573200000
  272      O      -5.4278100000     6.7734500000     0.7415700000
  273      H      -4.7934100000     7.0218200000     1.4144200000
  274      H      -5.4655000000     7.5406700000     0.1324800000
  275      O      -4.6676700000    -2.5067600000    -2.4332900000
  276      H      -4.6800000000    -1.8721600000    -1.6987900000
  277      H      -5.4983300000    -2.3748700000    -2.9264300000
  278      O      -2.9294000000     5.3885500000    -0.5627100000
  279      H      -3.4154500000     5.5121800000     0.2721800000
  280      H      -2.7603200000     4.4856500000    -0.6915100000
  281      O       1.7301700000     2.1589300000    -0.6115900000
  282      H       1.5351600000     2.3720100000     0.3246800000
  283      H       1.6831400000     3.0622200000    -1.1031000000
  284      O      -7.2045400000     2.3165900000    -8.5170600000
  285      H      -6.4180200000     2.4556400000    -8.9866200000
  286      H      -7.0110600000     1.4277600000    -8.1139300000
  287      O      -1.2954800000     5.3796800000   -11.6933600000
  288      H      -0.9735000000     4.5689000000   -11.1420200000
  289      H      -0.6071400000     5.8945700000   -12.1068200000
  290      O      -9.4098900000     5.3820000000    -3.2012500000
  291      H      -8.4601800000     5.2151500000    -3.4278000000
  292      H      -9.4857700000     5.2073600000    -2.2884400000
  293      O       1.6511600000    -7.6711000000    -5.3707200000
  294      H       2.2852600000    -8.0438900000    -5.8999000000
  295      H       1.8312400000    -7.9176000000    -4.4674200000
  296      O      -5.1967900000    -0.5425500000   -13.4229800000
  297      H      -5.5194400000     0.3117500000   -13.7823100000
  298      H      -4.5633100000    -0.4212200000   -12.6907200000
  299      O       3.7008700000    -2.6010300000    -4.2601500000
  300      H       3.9019500000    -1.7510300000    -3.8749900000
  301      H       4.1259800000    -2.6586400000    -5.1008300000
  302      O      -5.5015000000     3.8819500000     0.9767500000
  303      H      -5.5085500000     4.7761700000     0.5911700000
  304      H      -4.6689500000     3.4574700000     0.7924900000
  305      O      -3.5062400000    -5.1159700000    -3.4842400000
  306      H      -3.8872600000    -4.5634600000    -2.7819100000
  307      H      -4.0272100000    -5.9000900000    -3.5207900000
  308      O      -0.1871400000     0.6806800000    -8.3306500000
  309      H       0.4563500000     1.1984200000    -8.8938500000
  310      H       0.4382300000     0.4226900000    -7.5687500000
  311      O      -1.6397600000     3.5392400000   -13.9885400000
  312      H      -1.7890300000     4.4412400000   -13.7354600000
  313      H      -0.6586700000     3.4490100000   -14.2032600000
  314      O      -9.0262300000    -4.1107400000    -6.4826700000
  315      H      -9.1411000000    -3.3813300000    -5.8682900000
  316      H      -8.0546700000    -4.1561000000    -6.6450900000
  317      O      -2.0081500000    -1.2434500000    -9.2881000000
  318      H      -1.5461900000    -2.0564400000    -9.1399800000
  319      H      -1.4834800000    -0.5261700000    -8.9735100000
  320      O      -8.9762100000     1.0912200000    -1.4969500000
  321      H      -9.2918300000     0.2086800000    -1.7896200000
  322      H      -8.5222900000     1.3762100000    -2.3351000000
  323      O     -11.6695700000     1.8598000000    -0.9644100000
  324      H     -11.8861600000     1.6623800000    -0.0607000000
  325      H     -10.7661400000     1.5742800000    -1.1271700000
  326      O      -8.2337300000    -0.1082800000   -11.0638800000
  327      H      -8.3112000000    -0.9727300000   -11.3861300000
  328      H      -8.6523100000    -0.1224600000   -10.1810300000
  329      O      -0.6305900000    -8.4221800000    -6.6283400000
  330      H      -1.3398500000    -8.1381300000    -6.0724700000
  331      H       0.1569800000    -7.9474500000    -6.3211400000
  332      O      -3.3076100000     0.1569800000    -0.1163000000
  333      H      -4.1806000000    -0.0279600000    -0.3993200000
  334      H      -3.2139900000    -0.4899400000     0.5714500000
  335      O      -7.9238600000     2.4516300000   -11.9350900000
  336      H      -7.4158900000     2.4980000000   -11.1080300000
  337      H      -7.8948600000     1.5197100000   -12.1564700000
  338      O      -1.0513000000    -8.2918000000    -0.4272000000
  339      H      -0.9619100000    -9.0969800000     0.0901700000
  340      H      -0.1666400000    -8.0998800000    -0.7680100000
  341      O       2.5899600000    -1.8538000000    -7.9466200000
  342      H       3.3040400000    -2.4647300000    -7.7028400000
  343      H       3.1000600000    -1.0706200000    -8.2476000000
 ----------------------------------------------------------------
 Nuclear Repulsion Energy =       42791.58598232 hartrees
 There are      570 alpha and      570 beta electrons
 Requested basis set is 6-31+G(d)
 There are 1034 shells and 2658 basis functions

 Total QAlloc Memory Limit  16000 MB
 Mega-Array Size      7821 MB
 MEM_STATIC part      8000 MB
 A cutoff of  1.0D-14 yielded 169771 shell pairs
 There are   1182654 function pairs
 Smallest overlap matrix eigenvalue = 1.21E-06

 Scale SEOQF with 1.000000e-02/1.000000e-02/1.000000e-02

 Standard Electronic Orientation quadrupole field applied
 Nucleus-field energy     =    -0.0000001986 hartrees
Attempting to make child job directory: /local/scratch/users/ymao/r7.00_frame_0000_almo_B3LYP_dp.in20210220191855//Frg1/
Attempting to make child job directory: /local/scratch/users/ymao/r7.00_frame_0000_almo_B3LYP_dp.in20210220191855//Frg2/
Creating input file /local/scratch/users/ymao/r7.00_frame_0000_almo_B3LYP_dp.in20210220191855/Frg1.input
using default PutDataFrgm: nothing
calling putenv with: QCSCRATCH=/local/scratch/users/ymao/r7.00_frame_0000_almo_B3LYP_dp.in20210220191855/ 
Spawning Job For Fragment 0
Done Job For Fragment 0
calling putenv with: QCSCRATCH=/local/scratch/users/ymao 
calling putenv with: QCTHREADS=8 
Creating input file /local/scratch/users/ymao/r7.00_frame_0000_almo_B3LYP_dp.in20210220191855/Frg2.input
using default PutDataFrgm: nothing
calling putenv with: QCSCRATCH=/local/scratch/users/ymao/r7.00_frame_0000_almo_B3LYP_dp.in20210220191855/ 
Spawning Job For Fragment 1
Done Job For Fragment 1
calling putenv with: QCSCRATCH=/local/scratch/users/ymao 
calling putenv with: QCTHREADS=8 
 Time for running child jobs:  CPU 0.84 s  wall 10739.78 s

 -----------------------------------------------------------------------
  General SCF calculation program by
  Eric Jon Sundstrom, Paul Horn, Yuezhi Mao, Dmitri Zuev, Alec White,
  David Stuck, Shaama M.S., Shane Yost, Joonho Lee, David Small,
  Daniel Levine, Susi Lehtola, Hugh Burton, Evgeny Epifanovsky,
  Bang C. Huynh
 -----------------------------------------------------------------------
Performing Restricted Closed Shell SCFMI
Doing General SCFMI
 Exchange:     0.2000 Hartree-Fock + 0.0800 Slater + 0.7200 B88
 Correlation:  0.1900 VWN1RPA + 0.8100 LYP
 Using Euler-Maclaurin-Lebedev (75,302) quadrature formula
performing fock build before subrot guess so that all methods have access
Printing subrot_rss_gen Method Specification:
Occupied Subspace Method is 0
Virtual Subspace Method is 0
Energy prior to optimization (guess energy) = -8582.777056447179
Begin Timing: Total SCF Calculation
begin iterations for algorithm: DIIS         
the SCF tolerance is set to 1.00e-08
    1   -8582.7770564472      5.58e-05     00000 
    2   -8582.7865508499      6.72e-05     00000 
    3   -8582.7967610044      2.48e-05     00000 
    4   -8582.7980248790      1.14e-05     00000 
    5   -8582.7983180479      3.86e-06     00000 
    6   -8582.7983581039      1.00e-06     00000 
    7   -8582.7983611198      4.58e-07     00000 
    8   -8582.7983616842      1.91e-07     00000 
    9   -8582.7983617878      5.56e-08     00000 
   10   -8582.7983617991      2.70e-08     00000 
   11   -8582.7983618009      1.18e-08     00000 
   12   -8582.7983618012      3.72e-09     00000 Convergence criterion met
write pseudocanon occs and virts to disk
write pseudocanon orbital energies to disk
Timing for Total SCF: 19109.00s (wall), 152290.14s (cpu)
SCFMI Energy   -8582.7983618012
<S^2>            0.00000
 Total energy in the final basis set =    -8582.7983618012
    ==================================================
        The end of Object-Oriented SCFman: SCFMI      
    ==================================================
 
 --------------------------------------------------------------
 
                    Orbital Energies (a.u.)
 --------------------------------------------------------------
 
 Alpha MOs
 -- Occupied --
-19.2740 -19.2576 -19.2552 -19.2357 -19.2331 -19.2330 -19.2231 -19.2157
-19.2116 -19.2094 -19.2090 -19.2048 -19.2048 -19.2029 -19.1987 -19.1971
-19.1958 -19.1946 -19.1944 -19.1936 -19.1919 -19.1904 -19.1884 -19.1882
-19.1857 -19.1854 -19.1850 -19.1835 -19.1822 -19.1802 -19.1772 -19.1750
-19.1750 -19.1711 -19.1702 -19.1700 -19.1697 -19.1689 -19.1658 -19.1648
-19.1648 -19.1626 -19.1613 -19.1611 -19.1609 -19.1589 -19.1588 -19.1572
-19.1540 -19.1534 -19.1526 -19.1512 -19.1476 -19.1464 -19.1454 -19.1440
-19.1439 -19.1430 -19.1425 -19.1424 -19.1424 -19.1413 -19.1408 -19.1408
-19.1407 -19.1381 -19.1376 -19.1352 -19.1351 -19.1319 -19.1319 -19.1308
-19.1280 -19.1279 -19.1277 -19.1267 -19.1266 -19.1261 -19.1259 -19.1259
-19.1242 -19.1242 -19.1238 -19.1199 -19.1194 -19.1161 -19.1161 -19.1141
-19.1115 -19.1090 -19.1081 -19.1078 -19.1040 -19.1035 -19.1016 -19.0945
-19.0937 -19.0917 -19.0895 -19.0880 -19.0853 -19.0812 -19.0798 -19.0768
-19.0715 -19.0678 -19.0580 -19.0493 -14.3640 -10.3051 -10.2229 -10.1758
-10.1717 -10.1652 -10.1651 -10.1564  -1.1319  -1.1164  -1.1160  -1.1131
 -1.0998  -1.0929  -1.0927  -1.0775  -1.0761  -1.0753  -1.0687  -1.0653
 -1.0646  -1.0625  -1.0588  -1.0572  -1.0559  -1.0557  -1.0546  -1.0531
 -1.0517  -1.0507  -1.0497  -1.0492  -1.0488  -1.0487  -1.0480  -1.0466
 -1.0460  -1.0459  -1.0448  -1.0421  -1.0415  -1.0384  -1.0344  -1.0344
 -1.0329  -1.0310  -1.0302  -1.0292  -1.0272  -1.0270  -1.0259  -1.0248
 -1.0234  -1.0228  -1.0225  -1.0217  -1.0194  -1.0184  -1.0156  -1.0150
 -1.0148  -1.0137  -1.0136  -1.0111  -1.0094  -1.0093  -1.0077  -1.0073
 -1.0046  -1.0028  -1.0025  -1.0010  -1.0004  -0.9977  -0.9972  -0.9951
 -0.9939  -0.9928  -0.9919  -0.9912  -0.9907  -0.9872  -0.9872  -0.9867
 -0.9860  -0.9838  -0.9815  -0.9814  -0.9811  -0.9791  -0.9788  -0.9776
 -0.9770  -0.9760  -0.9748  -0.9734  -0.9728  -0.9709  -0.9698  -0.9636
 -0.9600  -0.9584  -0.9567  -0.9556  -0.9523  -0.9515  -0.9501  -0.9483
 -0.9394  -0.9365  -0.9274  -0.9252  -0.9227  -0.9175  -0.9164  -0.9142
 -0.9077  -0.8017  -0.7218  -0.7169  -0.6558  -0.6411  -0.6335  -0.6305
 -0.6267  -0.6185  -0.6097  -0.6078  -0.6059  -0.5982  -0.5968  -0.5922
 -0.5902  -0.5880  -0.5879  -0.5864  -0.5862  -0.5859  -0.5833  -0.5832
 -0.5812  -0.5808  -0.5799  -0.5796  -0.5786  -0.5783  -0.5780  -0.5774
 -0.5767  -0.5762  -0.5733  -0.5729  -0.5717  -0.5710  -0.5667  -0.5665
 -0.5651  -0.5651  -0.5577  -0.5573  -0.5565  -0.5553  -0.5542  -0.5539
 -0.5531  -0.5530  -0.5504  -0.5500  -0.5487  -0.5485  -0.5477  -0.5471
 -0.5466  -0.5446  -0.5436  -0.5430  -0.5425  -0.5389  -0.5356  -0.5348
 -0.5338  -0.5332  -0.5325  -0.5322  -0.5313  -0.5286  -0.5280  -0.5262
 -0.5257  -0.5253  -0.5250  -0.5240  -0.5230  -0.5225  -0.5210  -0.5195
 -0.5182  -0.5176  -0.5128  -0.5115  -0.5113  -0.5110  -0.5106  -0.5101
 -0.5079  -0.5069  -0.5063  -0.5058  -0.5052  -0.5043  -0.5032  -0.5032
 -0.5007  -0.5006  -0.4996  -0.4992  -0.4973  -0.4968  -0.4966  -0.4946
 -0.4946  -0.4823  -0.4816  -0.4808  -0.4803  -0.4795  -0.4792  -0.4779
 -0.4764  -0.4762  -0.4707  -0.4704  -0.4690  -0.4661  -0.4629  -0.4616
 -0.4608  -0.4597  -0.4596  -0.4560  -0.4531  -0.4510  -0.4490  -0.4452
 -0.4450  -0.4416  -0.4411  -0.4405  -0.4395  -0.4388  -0.4385  -0.4376
 -0.4374  -0.4352  -0.4347  -0.4342  -0.4329  -0.4305  -0.4303  -0.4293
 -0.4288  -0.4286  -0.4266  -0.4257  -0.4244  -0.4240  -0.4234  -0.4194
 -0.4173  -0.4169  -0.4160  -0.4154  -0.4131  -0.4129  -0.4129  -0.4112
 -0.4110  -0.4103  -0.4100  -0.4098  -0.4086  -0.4071  -0.4059  -0.4051
 -0.4041  -0.4033  -0.4031  -0.4023  -0.4009  -0.4002  -0.3996  -0.3984
 -0.3979  -0.3960  -0.3957  -0.3939  -0.3939  -0.3929  -0.3914  -0.3897
 -0.3891  -0.3878  -0.3868  -0.3865  -0.3854  -0.3848  -0.3841  -0.3832
 -0.3824  -0.3809  -0.3802  -0.3787  -0.3779  -0.3765  -0.3756  -0.3739
 -0.3729  -0.3723  -0.3715  -0.3709  -0.3706  -0.3695  -0.3684  -0.3657
 -0.3648  -0.3642  -0.3635  -0.3626  -0.3618  -0.3610  -0.3601  -0.3598
 -0.3593  -0.3588  -0.3577  -0.3572  -0.3570  -0.3558  -0.3554  -0.3544
 -0.3531  -0.3528  -0.3523  -0.3521  -0.3515  -0.3507  -0.3500  -0.3490
 -0.3488  -0.3477  -0.3466  -0.3461  -0.3458  -0.3433  -0.3426  -0.3423
 -0.3417  -0.3409  -0.3399  -0.3395  -0.3390  -0.3386  -0.3380  -0.3372
 -0.3361  -0.3361  -0.3357  -0.3356  -0.3341  -0.3337  -0.3315  -0.3307
 -0.3303  -0.3289  -0.3286  -0.3282  -0.3272  -0.3266  -0.3256  -0.3244
 -0.3242  -0.3240  -0.3222  -0.3220  -0.3216  -0.3213  -0.3202  -0.3193
 -0.3191  -0.3184  -0.3180  -0.3160  -0.3156  -0.3151  -0.3130  -0.3124
 -0.3095  -0.3089  -0.3079  -0.3069  -0.3064  -0.3057  -0.3056  -0.3034
 -0.3031  -0.3018  -0.3016  -0.3011  -0.3010  -0.3003  -0.2997  -0.2989
 -0.2987  -0.2972  -0.2968  -0.2962  -0.2939  -0.2931  -0.2915  -0.2906
 -0.2900  -0.2899  -0.2892  -0.2882  -0.2879  -0.2875  -0.2861  -0.2854
 -0.2852  -0.2851  -0.2849  -0.2838  -0.2832  -0.2823  -0.2803  -0.2799
 -0.2786  -0.2765  -0.2758  -0.2753  -0.2737  -0.2736  -0.2702  -0.2682
 -0.2658  -0.2635  -0.2625  -0.2597  -0.2547  -0.2530  -0.2526  -0.2490
 -0.2482  -0.2464  -0.2449  -0.2432  -0.2316  -0.2298  -0.2274  -0.2249
 -0.2140  -0.2116
 -- Virtual --
 -0.0866  -0.0683  -0.0528  -0.0467  -0.0451  -0.0400  -0.0359  -0.0255
 -0.0243  -0.0192  -0.0128  -0.0117  -0.0081  -0.0065  -0.0045  -0.0030
 -0.0018   0.0025   0.0064   0.0099   0.0105   0.0119   0.0166   0.0179
  0.0180   0.0196   0.0237   0.0245   0.0282   0.0311   0.0328   0.0336
  0.0355   0.0369   0.0398   0.0407   0.0430   0.0449   0.0464   0.0475
  0.0495   0.0497   0.0518   0.0533   0.0542   0.0582   0.0582   0.0602
  0.0631   0.0648   0.0657   0.0667   0.0683   0.0711   0.0714   0.0722
  0.0739   0.0759   0.0764   0.0775   0.0781   0.0802   0.0810   0.0815
  0.0821   0.0832   0.0855   0.0865   0.0876   0.0880   0.0889   0.0910
  0.0915   0.0930   0.0935   0.0951   0.0962   0.0968   0.0980   0.0989
  0.0997   0.1014   0.1018   0.1034   0.1043   0.1061   0.1066   0.1081
  0.1085   0.1096   0.1107   0.1109   0.1114   0.1120   0.1135   0.1138
  0.1142   0.1170   0.1181   0.1186   0.1190   0.1198   0.1206   0.1222
  0.1225   0.1236   0.1238   0.1249   0.1256   0.1269   0.1276   0.1289
  0.1298   0.1303   0.1311   0.1316   0.1334   0.1343   0.1350   0.1353
  0.1367   0.1369   0.1378   0.1386   0.1388   0.1405   0.1412   0.1413
  0.1422   0.1426   0.1434   0.1452   0.1469   0.1477   0.1479   0.1484
  0.1494   0.1499   0.1511   0.1515   0.1527   0.1531   0.1542   0.1547
  0.1551   0.1558   0.1567   0.1573   0.1584   0.1591   0.1596   0.1606
  0.1619   0.1626   0.1627   0.1635   0.1641   0.1645   0.1654   0.1665
  0.1672   0.1682   0.1687   0.1692   0.1705   0.1710   0.1714   0.1720
  0.1730   0.1736   0.1745   0.1757   0.1764   0.1768   0.1772   0.1773
  0.1790   0.1797   0.1801   0.1807   0.1813   0.1817   0.1824   0.1831
  0.1833   0.1842   0.1848   0.1854   0.1860   0.1866   0.1868   0.1874
  0.1889   0.1899   0.1905   0.1910   0.1917   0.1922   0.1927   0.1935
  0.1943   0.1948   0.1952   0.1961   0.1970   0.1979   0.1979   0.1985
  0.1993   0.1996   0.2000   0.2006   0.2010   0.2015   0.2026   0.2037
  0.2043   0.2047   0.2051   0.2059   0.2073   0.2077   0.2086   0.2094
  0.2099   0.2109   0.2112   0.2117   0.2120   0.2127   0.2135   0.2137
  0.2144   0.2155   0.2158   0.2166   0.2177   0.2180   0.2190   0.2196
  0.2205   0.2207   0.2217   0.2226   0.2232   0.2232   0.2242   0.2246
  0.2250   0.2257   0.2260   0.2267   0.2274   0.2284   0.2285   0.2288
  0.2301   0.2305   0.2311   0.2321   0.2326   0.2331   0.2336   0.2340
  0.2344   0.2351   0.2355   0.2366   0.2370   0.2376   0.2380   0.2388
  0.2402   0.2409   0.2412   0.2415   0.2427   0.2430   0.2439   0.2444
  0.2450   0.2452   0.2455   0.2463   0.2470   0.2475   0.2476   0.2483
  0.2490   0.2497   0.2500   0.2504   0.2509   0.2517   0.2521   0.2529
  0.2537   0.2548   0.2551   0.2556   0.2565   0.2567   0.2573   0.2585
  0.2588   0.2594   0.2597   0.2600   0.2611   0.2618   0.2623   0.2624
  0.2634   0.2642   0.2643   0.2656   0.2659   0.2661   0.2668   0.2671
  0.2676   0.2682   0.2686   0.2696   0.2698   0.2708   0.2711   0.2714
  0.2719   0.2723   0.2728   0.2736   0.2741   0.2748   0.2755   0.2760
  0.2766   0.2772   0.2782   0.2789   0.2798   0.2799   0.2803   0.2807
  0.2812   0.2819   0.2830   0.2835   0.2842   0.2851   0.2861   0.2867
  0.2872   0.2874   0.2889   0.2895   0.2900   0.2903   0.2909   0.2916
  0.2919   0.2922   0.2928   0.2936   0.2940   0.2945   0.2947   0.2952
  0.2956   0.2967   0.2975   0.2983   0.2986   0.2995   0.2999   0.3005
  0.3016   0.3023   0.3028   0.3031   0.3036   0.3043   0.3052   0.3060
  0.3066   0.3068   0.3079   0.3082   0.3095   0.3104   0.3106   0.3112
  0.3121   0.3122   0.3129   0.3135   0.3146   0.3150   0.3154   0.3156
  0.3165   0.3176   0.3182   0.3189   0.3192   0.3200   0.3208   0.3211
  0.3222   0.3224   0.3234   0.3240   0.3250   0.3259   0.3265   0.3272
  0.3281   0.3282   0.3294   0.3304   0.3307   0.3313   0.3323   0.3329
  0.3335   0.3345   0.3355   0.3359   0.3366   0.3372   0.3377   0.3387
  0.3393   0.3399   0.3401   0.3414   0.3419   0.3427   0.3435   0.3438
  0.3441   0.3451   0.3466   0.3475   0.3476   0.3484   0.3499   0.3506
  0.3511   0.3522   0.3528   0.3535   0.3543   0.3551   0.3559   0.3566
  0.3573   0.3585   0.3591   0.3592   0.3606   0.3611   0.3613   0.3616
  0.3624   0.3633   0.3643   0.3648   0.3666   0.3675   0.3679   0.3682
  0.3693   0.3702   0.3707   0.3715   0.3720   0.3729   0.3735   0.3751
  0.3753   0.3757   0.3778   0.3783   0.3794   0.3799   0.3814   0.3824
  0.3833   0.3839   0.3850   0.3857   0.3863   0.3872   0.3879   0.3897
  0.3904   0.3914   0.3930   0.3937   0.3948   0.3950   0.3954   0.3967
  0.3980   0.3986   0.3994   0.4001   0.4009   0.4018   0.4030   0.4037
  0.4043   0.4049   0.4064   0.4069   0.4076   0.4082   0.4097   0.4103
  0.4108   0.4126   0.4138   0.4147   0.4149   0.4166   0.4174   0.4183
  0.4188   0.4194   0.4205   0.4212   0.4217   0.4235   0.4245   0.4265
  0.4274   0.4288   0.4298   0.4304   0.4321   0.4326   0.4328   0.4348
  0.4352   0.4374   0.4384   0.4392   0.4396   0.4411   0.4415   0.4435
  0.4447   0.4451   0.4453   0.4480   0.4492   0.4506   0.4509   0.4524
  0.4536   0.4552   0.4563   0.4568   0.4584   0.4605   0.4612   0.4623
  0.4639   0.4645   0.4667   0.4680   0.4695   0.4701   0.4709   0.4719
  0.4731   0.4748   0.4767   0.4773   0.4797   0.4797   0.4804   0.4822
  0.4837   0.4853   0.4856   0.4874   0.4885   0.4903   0.4913   0.4916
  0.4935   0.4948   0.4978   0.4992   0.4993   0.5006   0.5012   0.5027
  0.5049   0.5072   0.5077   0.5088   0.5107   0.5113   0.5117   0.5135
  0.5151   0.5155   0.5168   0.5176   0.5194   0.5206   0.5214   0.5235
  0.5244   0.5258   0.5282   0.5294   0.5311   0.5327   0.5346   0.5359
  0.5364   0.5370   0.5381   0.5387   0.5403   0.5423   0.5439   0.5443
  0.5468   0.5484   0.5490   0.5517   0.5517   0.5539   0.5580   0.5595
  0.5606   0.5615   0.5621   0.5641   0.5665   0.5689   0.5708   0.5718
  0.5728   0.5737   0.5770   0.5784   0.5793   0.5802   0.5819   0.5848
  0.5887   0.5897   0.5901   0.5924   0.5928   0.5966   0.5977   0.6011
  0.6022   0.6061   0.6077   0.6102   0.6122   0.6136   0.6154   0.6182
  0.6201   0.6237   0.6250   0.6284   0.6297   0.6330   0.6356   0.6365
  0.6401   0.6404   0.6432   0.6487   0.6498   0.6544   0.6557   0.6571
  0.6595   0.6634   0.6664   0.6715   0.6783   0.6797   0.6873   0.6885
  0.6963   0.7023   0.7145   0.7182   0.7297   0.8027   0.8293   0.8534
  0.8687   0.8808   0.8859   0.8948   0.8982   0.9065   0.9182   0.9284
  0.9327   0.9341   0.9378   0.9422   0.9443   0.9471   0.9506   0.9519
  0.9531   0.9568   0.9594   0.9641   0.9662   0.9672   0.9722   0.9739
  0.9773   0.9796   0.9843   0.9867   0.9890   0.9900   0.9919   0.9935
  0.9944   0.9953   1.0004   1.0028   1.0035   1.0051   1.0063   1.0085
  1.0097   1.0108   1.0139   1.0150   1.0158   1.0177   1.0188   1.0191
  1.0216   1.0227   1.0274   1.0277   1.0307   1.0318   1.0323   1.0354
  1.0377   1.0382   1.0385   1.0419   1.0430   1.0450   1.0454   1.0460
  1.0473   1.0504   1.0509   1.0513   1.0527   1.0536   1.0541   1.0544
  1.0564   1.0579   1.0585   1.0588   1.0609   1.0614   1.0631   1.0640
  1.0646   1.0667   1.0672   1.0680   1.0691   1.0702   1.0719   1.0723
  1.0730   1.0737   1.0751   1.0758   1.0768   1.0772   1.0778   1.0796
  1.0801   1.0811   1.0816   1.0824   1.0846   1.0847   1.0858   1.0871
  1.0885   1.0895   1.0908   1.0914   1.0934   1.0936   1.0946   1.0958
  1.0964   1.0974   1.0975   1.0985   1.0994   1.1003   1.1014   1.1023
  1.1030   1.1043   1.1045   1.1056   1.1071   1.1076   1.1087   1.1088
  1.1094   1.1100   1.1115   1.1127   1.1137   1.1147   1.1153   1.1162
  1.1169   1.1184   1.1193   1.1205   1.1208   1.1217   1.1231   1.1240
  1.1242   1.1248   1.1253   1.1271   1.1277   1.1286   1.1289   1.1290
  1.1297   1.1307   1.1315   1.1324   1.1329   1.1346   1.1355   1.1360
  1.1372   1.1376   1.1388   1.1405   1.1408   1.1423   1.1428   1.1438
  1.1443   1.1455   1.1457   1.1463   1.1472   1.1476   1.1486   1.1492
  1.1502   1.1507   1.1517   1.1520   1.1523   1.1535   1.1545   1.1555
  1.1558   1.1566   1.1582   1.1593   1.1605   1.1607   1.1620   1.1623
  1.1630   1.1641   1.1653   1.1660   1.1667   1.1679   1.1685   1.1689
  1.1703   1.1705   1.1714   1.1720   1.1728   1.1743   1.1747   1.1753
  1.1759   1.1769   1.1783   1.1785   1.1796   1.1805   1.1811   1.1819
  1.1826   1.1834   1.1838   1.1844   1.1857   1.1868   1.1871   1.1872
  1.1898   1.1899   1.1907   1.1917   1.1920   1.1932   1.1938   1.1941
  1.1955   1.1956   1.1969   1.1977   1.1984   1.1990   1.1995   1.2017
  1.2032   1.2037   1.2047   1.2049   1.2058   1.2059   1.2067   1.2071
  1.2082   1.2095   1.2103   1.2107   1.2111   1.2122   1.2124   1.2137
  1.2139   1.2152   1.2156   1.2163   1.2171   1.2176   1.2188   1.2190
  1.2201   1.2208   1.2212   1.2223   1.2232   1.2248   1.2252   1.2259
  1.2267   1.2276   1.2290   1.2293   1.2298   1.2303   1.2307   1.2316
  1.2320   1.2327   1.2340   1.2347   1.2356   1.2363   1.2376   1.2384
  1.2391   1.2392   1.2403   1.2407   1.2413   1.2423   1.2426   1.2432
  1.2446   1.2451   1.2466   1.2474   1.2476   1.2483   1.2491   1.2496
  1.2504   1.2510   1.2524   1.2529   1.2542   1.2546   1.2558   1.2569
  1.2577   1.2585   1.2588   1.2594   1.2601   1.2613   1.2628   1.2640
  1.2647   1.2649   1.2665   1.2667   1.2674   1.2682   1.2687   1.2703
  1.2712   1.2714   1.2722   1.2729   1.2747   1.2754   1.2763   1.2769
  1.2774   1.2777   1.2783   1.2795   1.2804   1.2819   1.2826   1.2828
  1.2843   1.2849   1.2851   1.2855   1.2863   1.2877   1.2886   1.2888
  1.2894   1.2910   1.2918   1.2934   1.2936   1.2943   1.2952   1.2958
  1.2970   1.2977   1.2983   1.2996   1.3000   1.3006   1.3016   1.3022
  1.3039   1.3043   1.3058   1.3069   1.3075   1.3084   1.3095   1.3113
  1.3123   1.3127   1.3141   1.3147   1.3148   1.3153   1.3158   1.3172
  1.3183   1.3191   1.3197   1.3213   1.3224   1.3228   1.3240   1.3246
  1.3254   1.3265   1.3276   1.3288   1.3293   1.3308   1.3318   1.3326
  1.3334   1.3343   1.3354   1.3363   1.3378   1.3387   1.3391   1.3402
  1.3409   1.3414   1.3423   1.3433   1.3442   1.3453   1.3458   1.3459
  1.3471   1.3480   1.3488   1.3498   1.3502   1.3520   1.3525   1.3536
  1.3544   1.3562   1.3564   1.3573   1.3591   1.3596   1.3600   1.3602
  1.3628   1.3639   1.3644   1.3657   1.3661   1.3673   1.3680   1.3687
  1.3708   1.3713   1.3724   1.3729   1.3742   1.3750   1.3759   1.3781
  1.3788   1.3794   1.3809   1.3818   1.3829   1.3840   1.3849   1.3865
  1.3870   1.3874   1.3891   1.3904   1.3918   1.3924   1.3939   1.3949
  1.3964   1.3988   1.3991   1.3997   1.4008   1.4018   1.4028   1.4031
  1.4050   1.4053   1.4067   1.4083   1.4096   1.4099   1.4120   1.4124
  1.4137   1.4156   1.4164   1.4177   1.4192   1.4202   1.4209   1.4214
  1.4223   1.4231   1.4242   1.4263   1.4269   1.4287   1.4293   1.4304
  1.4315   1.4328   1.4341   1.4349   1.4356   1.4361   1.4392   1.4393
  1.4420   1.4426   1.4439   1.4444   1.4456   1.4469   1.4492   1.4510
  1.4516   1.4545   1.4554   1.4562   1.4569   1.4593   1.4609   1.4629
  1.4643   1.4653   1.4666   1.4682   1.4699   1.4712   1.4721   1.4736
  1.4742   1.4753   1.4766   1.4789   1.4800   1.4806   1.4815   1.4837
  1.4860   1.4877   1.4888   1.4904   1.4929   1.4942   1.4956   1.4966
  1.4984   1.5002   1.5012   1.5034   1.5038   1.5050   1.5092   1.5100
  1.5127   1.5138   1.5154   1.5178   1.5190   1.5194   1.5207   1.5225
  1.5236   1.5245   1.5286   1.5293   1.5303   1.5339   1.5354   1.5367
  1.5400   1.5415   1.5447   1.5457   1.5476   1.5494   1.5509   1.5535
  1.5551   1.5572   1.5603   1.5619   1.5637   1.5652   1.5676   1.5683
  1.5711   1.5732   1.5752   1.5770   1.5788   1.5804   1.5830   1.5864
  1.5884   1.5895   1.5923   1.5937   1.5950   1.5961   1.5982   1.6006
  1.6023   1.6045   1.6065   1.6074   1.6099   1.6116   1.6144   1.6156
  1.6178   1.6199   1.6218   1.6234   1.6242   1.6259   1.6281   1.6302
  1.6319   1.6331   1.6342   1.6343   1.6367   1.6400   1.6410   1.6434
  1.6451   1.6463   1.6480   1.6495   1.6506   1.6517   1.6543   1.6543
  1.6553   1.6558   1.6587   1.6597   1.6606   1.6635   1.6654   1.6679
  1.6692   1.6697   1.6704   1.6716   1.6736   1.6750   1.6776   1.6792
  1.6799   1.6810   1.6835   1.6846   1.6870   1.6883   1.6910   1.6914
  1.6926   1.6956   1.6971   1.6978   1.6983   1.6997   1.7005   1.7014
  1.7020   1.7031   1.7035   1.7046   1.7065   1.7080   1.7093   1.7105
  1.7116   1.7121   1.7132   1.7137   1.7155   1.7170   1.7180   1.7196
  1.7198   1.7207   1.7214   1.7227   1.7230   1.7231   1.7242   1.7256
  1.7269   1.7277   1.7280   1.7286   1.7308   1.7309   1.7325   1.7334
  1.7346   1.7349   1.7362   1.7365   1.7373   1.7381   1.7388   1.7392
  1.7424   1.7431   1.7432   1.7440   1.7444   1.7460   1.7466   1.7475
  1.7475   1.7484   1.7486   1.7502   1.7515   1.7518   1.7527   1.7532
  1.7539   1.7554   1.7563   1.7570   1.7578   1.7587   1.7591   1.7597
  1.7609   1.7611   1.7613   1.7626   1.7638   1.7647   1.7651   1.7667
  1.7670   1.7679   1.7683   1.7696   1.7701   1.7715   1.7717   1.7725
  1.7740   1.7751   1.7773   1.7774   1.7780   1.7791   1.7802   1.7810
  1.7816   1.7824   1.7829   1.7830   1.7834   1.7844   1.7852   1.7872
  1.7876   1.7879   1.7900   1.7903   1.7909   1.7916   1.7921   1.7938
  1.7948   1.7955   1.7964   1.7966   1.7984   1.7986   1.7995   1.8004
  1.8021   1.8032   1.8033   1.8039   1.8050   1.8056   1.8061   1.8067
  1.8085   1.8087   1.8093   1.8101   1.8108   1.8111   1.8126   1.8128
  1.8136   1.8142   1.8156   1.8161   1.8165   1.8175   1.8181   1.8188
  1.8195   1.8205   1.8216   1.8225   1.8227   1.8234   1.8239   1.8246
  1.8248   1.8255   1.8263   1.8276   1.8289   1.8303   1.8307   1.8319
  1.8328   1.8339   1.8341   1.8353   1.8364   1.8371   1.8387   1.8393
  1.8400   1.8404   1.8407   1.8416   1.8427   1.8444   1.8452   1.8461
  1.8465   1.8481   1.8496   1.8500   1.8508   1.8519   1.8527   1.8538
  1.8551   1.8559   1.8567   1.8577   1.8591   1.8597   1.8614   1.8619
  1.8623   1.8631   1.8636   1.8646   1.8669   1.8672   1.8683   1.8693
  1.8709   1.8712   1.8715   1.8721   1.8730   1.8740   1.8747   1.8754
  1.8760   1.8784   1.8798   1.8817   1.8821   1.8838   1.8844   1.8851
  1.8860   1.8865   1.8879   1.8884   1.8895   1.8907   1.8924   1.8928
  1.8945   1.8948   1.8958   1.8983   1.8992   1.9004   1.9009   1.9019
  1.9026   1.9035   1.9049   1.9070   1.9080   1.9083   1.9090   1.9103
  1.9113   1.9128   1.9133   1.9145   1.9170   1.9183   1.9192   1.9204
  1.9219   1.9231   1.9243   1.9253   1.9260   1.9276   1.9279   1.9284
  1.9301   1.9310   1.9332   1.9352   1.9364   1.9374   1.9388   1.9393
  1.9407   1.9415   1.9428   1.9454   1.9465   1.9477   1.9490   1.9515
  1.9523   1.9536   1.9559   1.9573   1.9584   1.9604   1.9626   1.9637
  1.9647   1.9662   1.9688   1.9713   1.9718   1.9722   1.9743   1.9754
  1.9759   1.9774   1.9798   1.9828   1.9835   1.9857   1.9879   1.9890
  1.9915   1.9931   1.9948   1.9957   1.9974   1.9997   2.0019   2.0041
  2.0050   2.0069   2.0079   2.0085   2.0099   2.0118   2.0141   2.0168
  2.0174   2.0211   2.0223   2.0230   2.0251   2.0259   2.0289   2.0320
  2.0327   2.0355   2.0375   2.0387   2.0405   2.0419   2.0435   2.0456
  2.0476   2.0486   2.0513   2.0523   2.0548   2.0552   2.0577   2.0610
  2.0647   2.0653   2.0687   2.0699   2.0718   2.0743   2.0765   2.0797
  2.0803   2.0843   2.0861   2.0889   2.0910   2.0926   2.0935   2.0959
  2.1000   2.1024   2.1043   2.1081   2.1122   2.1131   2.1176   2.1196
  2.1233   2.1277   2.1342   2.1401   2.1440   2.1511   2.1528   2.1552
  2.1663   2.1768   2.1791   2.1840   2.1872   2.1892   2.2069   2.2112
  2.2442   2.2483   2.2535   2.2564   2.2617   2.2732   2.2745   2.2750
  2.2818   2.2907   2.2974   2.3010   2.3038   2.3161   2.3188   2.3260
  2.3275   2.3299   2.3373   2.3416   2.3436   2.3455   2.3470   2.3492
  2.3504   2.3539   2.3568   2.3593   2.3660   2.3668   2.3686   2.3706
  2.3720   2.3723   2.3765   2.3782   2.3803   2.3830   2.3848   2.3890
  2.3910   2.3915   2.3935   2.3958   2.3979   2.3994   2.4034   2.4047
  2.4095   2.4106   2.4115   2.4128   2.4142   2.4159   2.4173   2.4206
  2.4215   2.4239   2.4266   2.4279   2.4282   2.4305   2.4325   2.4344
  2.4364   2.4372   2.4384   2.4418   2.4431   2.4487   2.4503   2.4511
  2.4536   2.4545   2.4569   2.4604   2.4609   2.4652   2.4679   2.4687
  2.4709   2.4726   2.4742   2.4747   2.4779   2.4786   2.4800   2.4816
  2.4843   2.4858   2.4903   2.4929   2.4937   2.4959   2.4961   2.4978
  2.4991   2.5065   2.5094   2.5151   2.5165   2.5193   2.5212   2.5264
  2.5303   2.5325   2.5378   2.5408   2.5441   2.5509   2.5555   2.5596
  2.5610   2.5646   2.5687   2.5703   2.5771   2.5814   2.5954   2.6017
  2.6067   2.6152   2.6181   2.6195   2.6224   2.6228   2.6368   2.6373
  2.6381   2.6399   2.6432   2.6488   2.6534   2.6603   2.6620   2.6639
  2.6661   2.6683   2.6726   2.6746   2.6760   2.6770   2.6790   2.6805
  2.6816   2.6821   2.6914   2.6916   2.6936   2.6951   2.6962   2.6984
  2.7000   2.7064   2.7082   2.7101   2.7151   2.7180   2.7199   2.7206
  2.7223   2.7235   2.7248   2.7264   2.7272   2.7276   2.7303   2.7309
  2.7329   2.7340   2.7386   2.7390   2.7416   2.7434   2.7441   2.7444
  2.7471   2.7489   2.7502   2.7508   2.7536   2.7542   2.7559   2.7576
  2.7584   2.7597   2.7627   2.7644   2.7649   2.7679   2.7690   2.7719
  2.7737   2.7771   2.7789   2.7798   2.7821   2.7834   2.7848   2.7872
  2.7889   2.7904   2.7941   2.7963   2.7974   2.7981   2.8016   2.8049
  2.8073   2.8101   2.8116   2.8137   2.8169   2.8181   2.8230   2.8292
  2.8318   2.8338   2.8345   2.8386   2.8398   2.8431   2.8503   2.8516
  2.8583   2.8641   2.8664   2.8709   2.8818   2.8859   2.8903   2.8928
  2.9142   2.9454   3.0792   3.2431   3.8145   3.8163   3.8494   3.8723
  3.8819   3.9386   3.9398   3.9564   3.9672   3.9698   3.9820   3.9881
  3.9917   4.0071   4.0107   4.0144   4.0219   4.0263   4.0309   4.0365
  4.0386   4.0449   4.0473   4.0537   4.0581   4.0718   4.0730   4.0805
  4.0855   4.0956   4.0999   4.1073   4.1104   4.1112   4.1181   4.1214
  4.1277   4.1309   4.1314   4.1407   4.1412   4.1529   4.1532   4.1597
  4.1626   4.1722   4.1731   4.1770   4.1831   4.1869   4.1931   4.1982
  4.2004   4.2060   4.2105   4.2140   4.2213   4.2220   4.2293   4.2306
  4.2361   4.2401   4.2441   4.2504   4.2550   4.2601   4.2637   4.2700
  4.2730   4.2818   4.2855   4.2879   4.2935   4.2984   4.3062   4.3099
  4.3123   4.3177   4.3237   4.3336   4.3405   4.3455   4.3460   4.3566
  4.3628   4.3697   4.3758   4.3876   4.3950   4.4003   4.4066   4.4125
  4.4191   4.4320   4.4364   4.4452   4.4561   4.4673   4.4724   4.4824
  4.4960   4.4995   4.5127   4.5193   4.5456   4.5494   4.5709   4.5895
  4.5963   4.6357   4.6534   4.6768   4.7585   4.7926   4.7961   4.8982
 --------------------------------------------------------------
 
          Ground-State Mulliken Net Atomic Charges

     Atom                 Charge (a.u.)
  ----------------------------------------
      1 C                     0.391212
      2 H                     0.164433
      3 O                    -0.738326
      4 N                    -0.375964
      5 H                     0.493410
      6 C                    -0.281044
      7 C                    -0.212290
      8 C                    -0.438474
      9 H                     0.214486
     10 C                    -0.382046
     11 H                     0.224941
     12 H                     0.200697
     13 C                    -0.493001
     14 H                     0.229479
     15 H                     0.196523
     16 C                    -0.435012
     17 H                     0.209089
     18 H                     0.195887
     19 H                     0.224269
     20 H                     0.211409
     21 H                     0.190481
     22 H                     0.209841
     23 O                    -1.142253
     24 H                     0.620238
     25 H                     0.528557
     26 O                    -1.141863
     27 H                     0.631008
     28 H                     0.599762
     29 O                    -1.187063
     30 H                     0.653761
     31 H                     0.515342
     32 O                    -1.074400
     33 H                     0.550837
     34 H                     0.505830
     35 O                    -1.149272
     36 H                     0.626702
     37 H                     0.569374
     38 O                    -1.029114
     39 H                     0.598383
     40 H                     0.487658
     41 O                    -1.250995
     42 H                     0.586606
     43 H                     0.610233
     44 O                    -1.245613
     45 H                     0.642160
     46 H                     0.572134
     47 O                    -1.113936
     48 H                     0.602546
     49 H                     0.544748
     50 O                    -1.070262
     51 H                     0.569920
     52 H                     0.499932
     53 O                    -1.110664
     54 H                     0.564859
     55 H                     0.569028
     56 O                    -1.184680
     57 H                     0.581724
     58 H                     0.553571
     59 O                    -1.259526
     60 H                     0.583253
     61 H                     0.634921
     62 O                    -1.119205
     63 H                     0.500342
     64 H                     0.604766
     65 O                    -1.030951
     66 H                     0.507127
     67 H                     0.513342
     68 O                    -1.219504
     69 H                     0.618797
     70 H                     0.581914
     71 O                    -1.026762
     72 H                     0.492244
     73 H                     0.567128
     74 O                    -1.259850
     75 H                     0.607436
     76 H                     0.661745
     77 O                    -1.141799
     78 H                     0.581029
     79 H                     0.609407
     80 O                    -1.012162
     81 H                     0.498165
     82 H                     0.498356
     83 O                    -1.009560
     84 H                     0.472342
     85 H                     0.590225
     86 O                    -1.178014
     87 H                     0.612404
     88 H                     0.566763
     89 O                    -1.100677
     90 H                     0.602543
     91 H                     0.484832
     92 O                    -1.080434
     93 H                     0.594995
     94 H                     0.512865
     95 O                    -1.280349
     96 H                     0.606052
     97 H                     0.607540
     98 O                    -1.141019
     99 H                     0.552731
    100 H                     0.572837
    101 O                    -1.062181
    102 H                     0.478602
    103 H                     0.579856
    104 O                    -1.185189
    105 H                     0.619728
    106 H                     0.540580
    107 O                    -0.961220
    108 H                     0.467841
    109 H                     0.559675
    110 O                    -1.006558
    111 H                     0.515054
    112 H                     0.588881
    113 O                    -1.201678
    114 H                     0.517865
    115 H                     0.603006
    116 O                    -1.226366
    117 H                     0.649649
    118 H                     0.580420
    119 O                    -1.095661
    120 H                     0.500795
    121 H                     0.606024
    122 O                    -1.042811
    123 H                     0.467607
    124 H                     0.553763
    125 O                    -1.059405
    126 H                     0.511705
    127 H                     0.561671
    128 O                    -1.287251
    129 H                     0.670244
    130 H                     0.605231
    131 O                    -1.067418
    132 H                     0.563195
    133 H                     0.540095
    134 O                    -1.219202
    135 H                     0.588967
    136 H                     0.624662
    137 O                    -1.127524
    138 H                     0.580695
    139 H                     0.584970
    140 O                    -1.222456
    141 H                     0.610645
    142 H                     0.596337
    143 O                    -1.037224
    144 H                     0.518412
    145 H                     0.590445
    146 O                    -1.186696
    147 H                     0.624465
    148 H                     0.556008
    149 O                    -1.144526
    150 H                     0.558901
    151 H                     0.601921
    152 O                    -1.150473
    153 H                     0.538020
    154 H                     0.560341
    155 O                    -1.056743
    156 H                     0.521435
    157 H                     0.604921
    158 O                    -1.118431
    159 H                     0.548483
    160 H                     0.548785
    161 O                    -1.177935
    162 H                     0.566369
    163 H                     0.600779
    164 O                    -1.091902
    165 H                     0.572731
    166 H                     0.492644
    167 O                    -1.058030
    168 H                     0.594348
    169 H                     0.462565
    170 O                    -1.095693
    171 H                     0.545277
    172 H                     0.571338
    173 O                    -1.138444
    174 H                     0.538568
    175 H                     0.644965
    176 O                    -1.089743
    177 H                     0.597465
    178 H                     0.495514
    179 O                    -0.988646
    180 H                     0.474997
    181 H                     0.517974
    182 O                    -1.136280
    183 H                     0.513942
    184 H                     0.587929
    185 O                    -1.147248
    186 H                     0.537180
    187 H                     0.585272
    188 O                    -1.238287
    189 H                     0.544537
    190 H                     0.621363
    191 O                    -0.936469
    192 H                     0.416925
    193 H                     0.505280
    194 O                    -1.172021
    195 H                     0.603203
    196 H                     0.545054
    197 O                    -1.066492
    198 H                     0.533144
    199 H                     0.534285
    200 O                    -1.090824
    201 H                     0.498702
    202 H                     0.584797
    203 O                    -0.996127
    204 H                     0.474284
    205 H                     0.512100
    206 O                    -1.235996
    207 H                     0.638331
    208 H                     0.576293
    209 O                    -1.089215
    210 H                     0.503812
    211 H                     0.562328
    212 O                    -1.022546
    213 H                     0.518127
    214 H                     0.536580
    215 O                    -1.116112
    216 H                     0.598332
    217 H                     0.517823
    218 O                    -1.174999
    219 H                     0.604446
    220 H                     0.589307
    221 O                    -1.263695
    222 H                     0.642741
    223 H                     0.604813
    224 O                    -1.140541
    225 H                     0.592221
    226 H                     0.580154
    227 O                    -1.125328
    228 H                     0.600690
    229 H                     0.502033
    230 O                    -1.223109
    231 H                     0.622141
    232 H                     0.557468
    233 O                    -1.139499
    234 H                     0.614249
    235 H                     0.518129
    236 O                    -1.244438
    237 H                     0.595800
    238 H                     0.642308
    239 O                    -1.140986
    240 H                     0.499561
    241 H                     0.607460
    242 O                    -1.251022
    243 H                     0.625017
    244 H                     0.619953
    245 O                    -1.200465
    246 H                     0.537450
    247 H                     0.616075
    248 O                    -1.148824
    249 H                     0.601291
    250 H                     0.509639
    251 O                    -1.067241
    252 H                     0.565179
    253 H                     0.554191
    254 O                    -1.182968
    255 H                     0.604310
    256 H                     0.569631
    257 O                    -1.153451
    258 H                     0.510807
    259 H                     0.616296
    260 O                    -1.237596
    261 H                     0.618411
    262 H                     0.624006
    263 O                    -1.031302
    264 H                     0.519332
    265 H                     0.491169
    266 O                    -1.077618
    267 H                     0.459652
    268 H                     0.622625
    269 O                    -1.186437
    270 H                     0.621755
    271 H                     0.528130
    272 O                    -1.187152
    273 H                     0.521346
    274 H                     0.615605
[...]
    1  -0.0001160  -0.0571888   0.0246765   0.0102189  -0.0314968   0.0192303
    2  -0.0416552  -0.0717772   0.0006867   0.0202498  -0.0572382   0.0102487
    3   0.0234116   0.0284212   0.0100985  -0.0414874   0.0571638  -0.0148617
          235         236         237         238         239         240
    1  -0.0008339  -0.0062173  -0.0329975   0.0435700   0.0611718  -0.0015009
    2   0.0176415   0.0632320  -0.0207569  -0.0204516  -0.0710917   0.0421382
    3  -0.0145869   0.0608674  -0.0174509  -0.0190026   0.0140430   0.0070004
          241         242         243         244         245         246
    1  -0.0668590  -0.0751833   0.0131529   0.0608085   0.0743419  -0.0146043
    2  -0.0044312   0.0270689   0.0389574  -0.0703085  -0.0305666   0.0252308
    3  -0.0488682  -0.0605166   0.0544513   0.0015300  -0.0318830   0.0065595
          247         248         249         250         251         252
    1  -0.0353146   0.0266983  -0.0960834   0.0264082  -0.0380540  -0.0375579
    2  -0.0311540  -0.0752356   0.0076936   0.0306521   0.0649734  -0.0479953
    3   0.0166812   0.0602070  -0.0385964  -0.0019918  -0.0709943   0.0317936
          253         254         255         256         257         258
    1   0.0374570  -0.0744315   0.0121377   0.0026506  -0.0994356  -0.0019350
    2  -0.0049712   0.0251761  -0.0422728   0.0035810   0.0261897   0.0029843
    3   0.0052847  -0.0503216   0.0836372   0.0014418  -0.0275569  -0.0062386
          259         260         261         262         263         264
    1   0.0870749  -0.0618226   0.0656622   0.0021089  -0.0564828   0.0180379
    2   0.0110894  -0.0668139  -0.0220111   0.0457476   0.0870238  -0.0388271
    3   0.1309583  -0.0411111  -0.0005421   0.0262589   0.0047524   0.0494937
          265         266         267         268         269         270
    1   0.0255907  -0.0213118   0.0144837  -0.0573773  -0.0752561   0.0216159
    2  -0.0173799   0.0719960   0.0038677  -0.0620426   0.0048611   0.0668428
    3  -0.0353524  -0.0725709   0.0111602   0.0326140   0.0676343  -0.0395809
          271         272         273         274         275         276
    1   0.0102532  -0.0545067   0.0343993  -0.0016895   0.0794902  -0.0004980
    2  -0.0437002  -0.0813179   0.0150960   0.0357375  -0.0512047   0.0326375
    3  -0.0065154  -0.0150855   0.0456483  -0.0348627  -0.0369290   0.0261913
          277         278         279         280         281         282
    1  -0.0354086   0.0235826  -0.0201664   0.0150733   0.0244925  -0.0111250
    2   0.0180253   0.0750467  -0.0033029  -0.1022768  -0.0807659  -0.0013512
    3  -0.0419380  -0.0551779   0.0341855   0.0022634  -0.0393717   0.0423803
          283         284         285         286         287         288
    1  -0.0058311  -0.0850742   0.0739138  -0.0070967  -0.0904155   0.0152865
    2  -0.0037860   0.0491360   0.0303344  -0.0357819   0.0084837  -0.0081627
    3  -0.0062942   0.0151320  -0.0612386   0.0169586   0.0071015   0.0110445
          289         290         291         292         293         294
    1   0.0500040  -0.0683982   0.0292292  -0.0094357  -0.0940345   0.0847181
    2   0.0284451   0.0286451  -0.0003630  -0.0285414   0.0658868  -0.0664579
    3  -0.0170120  -0.0698939  -0.0119686   0.0885068  -0.0260816  -0.0734036
          295         296         297         298         299         300
    1   0.0061266  -0.0296468  -0.0090773   0.0216723  -0.0524350   0.0221224
    2  -0.0135762  -0.0948081   0.0310432   0.0212837  -0.0721920   0.0538005
    3   0.0584807  -0.0325567  -0.0050764   0.0344289   0.0473491   0.0365358
          301         302         303         304         305         306
    1   0.0417726  -0.0733496  -0.0032738   0.0658536   0.0776451  -0.0247275
    2  -0.0009349  -0.0395033   0.0380926  -0.0321447   0.0357919   0.0496775
    3  -0.0681117   0.0529667  -0.0176484  -0.0082102  -0.0580607   0.0264674
          307         308         309         310         311         312
    1  -0.0503717  -0.0894135   0.0152055   0.0009293  -0.0685824  -0.0122605
    2  -0.0617644  -0.0135032   0.0227264   0.0014790  -0.0789052   0.0652868
    3  -0.0020197  -0.0077655  -0.0113036   0.0159680  -0.0129228   0.0272234
          313         314         315         316         317         318
    1   0.0116698  -0.0645750  -0.0157448   0.0360955  -0.0888015   0.0454194
    2  -0.0009623  -0.0579593   0.0487220   0.0058926   0.0105238  -0.0534952
    3  -0.0040980  -0.0448093   0.0229370  -0.0052149  -0.0455496   0.0011876
          319         320         321         322         323         324
    1   0.0504900  -0.0079674  -0.0131142   0.0142387  -0.0635933  -0.0161586
    2   0.0625264   0.0469823  -0.0402294   0.0272092   0.0497830  -0.0117002
    3   0.0304410   0.0775275  -0.0136702  -0.0263086  -0.0823027   0.0612877
          325         326         327         328         329         330
    1   0.0585664   0.0456047  -0.0043387  -0.0133244  -0.0034166  -0.0603860
    2  -0.0074114   0.0917770  -0.0916817  -0.0020468  -0.0690778   0.0269961
    3  -0.0187834  -0.0412394  -0.0300499   0.0365703  -0.0759510   0.0401291
          331         332         333         334         335         336
    1   0.0304612   0.0721920  -0.0867224   0.0223214  -0.0494665   0.0227183
    2   0.0187663   0.0618314  -0.0127021  -0.0565127   0.0808300   0.0073110
    3   0.0175686  -0.0355547  -0.0338087   0.0564414  -0.0505981   0.0373862
          337         338         339         340         341         342
    1  -0.0076394  -0.0809770   0.0016100   0.0510072  -0.0930931   0.0345169
    2  -0.0601191   0.0568432  -0.0446840   0.0119321  -0.0116728  -0.0380236
    3  -0.0035614  -0.0149704   0.0332916  -0.0205850  -0.0043832   0.0147342
          343
    1   0.0199792
    2   0.0388921
    3  -0.0251534
  --- DONE ESP SUMMARY ---
Archival summary:
1\1\n0092.mhg0\SP\ProcedureUnspecified\6-31+G*\h22\ymao\SunFeb2104:50:222021SunFeb2104:50:222021\0\\#,ProcedureUnspecified,6-31+G*,\\0,1\O\H,1,0.957949\H,1,0.991611,2,116.37\Gh,3,1.88002,1,169.963,2,113.289,0\Gh,4,1.23443,3,115.022,1,138.034,0\Gh,5,1.11252,4,117.987,3,-127.183,0\Gh,5,1.36532,4,121.825,3,51.3741,0\Gh,7,1.03411,5,115.792,4,179.431,0\Gh,7,1.46867,5,129.001,4,10.5883,0\Gh,9,1.15559,7,107.989,5,-54.8989,0\Gh,9,1.58178,7,114.61,5,-171.05,0\Gh,11,1.10896,9,108.269,7,-56.3646,0\Gh,11,1.11277,9,101.255,7,53.1464,0\Gh,11,1.51983,9,114.228,7,179.794,0\Gh,14,1.09757,11,112.178,9,-61.5229,0\Gh,14,1.13268,11,114.921,9,177.252,0\Gh,14,1.51869,11,108.967,9,55.4988,0\Gh,17,1.09287,14,111.909,11,177.515,0\Gh,17,1.10667,14,105.034,11,65.438,0\Gh,17,1.56349,14,114.365,11,-57.6137,0\Gh,20,1.04072,17,116.445,14,-177.767,0\Gh,20,1.15553,17,103.231,14,-61.21,0\Gh,20,1.55532,17,107.838,14,58.4794,0\Gh,23,1.13475,20,113.427,17,-173.41,0\Gh,23,1.1622,20,110.75,17,61.1848,0\O,8,1.88988,7,174.186,5,8.91742,0\H,26,0.970752,8,91.7351,7,112.034,0\H,26,0.974976,8,106.559,7,-140.217,0\O,28,1.79959,26,165.562,8,47.0855,0\H,29,0.937776,28,94.6931,26,137.651,0\H,29,0.968234,28,114.719,26,-119.08,0\O,30,1.70938,29,168.887,28,-89.4332,0\H,32,0.945771,30,114.495,29,-58.0696,0\H,32,0.985375,30,115.066,29,72.3186,0\O,34,1.71477,32,168.727,30,44.9348,0\H,35,0.936187,34,125.931,32,158.938,0\H,35,0.984269,34,113.99,32,30.8927,0\O,37,1.76508,35,171.055,34,174.926,0\H,38,0.964042,37,113.085,35,-133.781,0\H,38,0.967678,37,128.59,35,-1.02992,0\H,35,1.85657,34,98.7309,32,-118.075,0\O,41,0.971454,35,153.995,34,-49.4632,0\H,42,0.96522,41,101.884,35,-94.0314,0\H,32,1.87804,30,88.7822,29,-168.375,0\O,44,0.935462,32,168.029,30,71.1474,0\H,45,0.975283,44,106.104,32,160.367,0\H,3,1.89247,1,104.247,2,63.5028,0\O,47,0.938517,3,152.772,1,-28.8655,0\H,48,0.957331,47,112.534,3,163.543,0\O,49,1.75925,48,161.04,47,147.766,0\H,50,0.970863,49,118.145,48,150.102,0\H,50,0.981917,49,84.4353,48,50.1922,0\H,48,1.76402,47,107.543,3,-89.6764,0\O,53,1.01889,48,177.225,47,167.588,0\H,54,0.999664,53,99.0523,48,-8.3612,0\O,52,1.78899,50,173.614,49,42.7658,0\H,56,0.893936,52,97.6199,50,26.1658,0\H,56,1.0257,52,106.939,50,133.258,0\H,54,1.88421,53,121.013,48,133.254,0\O,59,0.942728,54,169.766,53,-44.53,0\H,60,0.946731,59,109.244,54,13.0402,0\O,61,1.88505,60,145.119,59,-36.8207,0\H,62,0.95781,61,139.562,60,-83.7945,0\H,62,0.958742,61,106.355,60,48.534,0\H,60,1.89173,59,127.072,54,131.538,0\O,65,1.0353,60,170.176,59,-153.987,0\H,66,0.934855,65,110.177,60,73.0661,0\H,66,1.74126,65,133.497,60,-42.5402,0\O,68,0.966701,66,163.39,65,70.4417,0\H,69,0.962691,68,102.164,66,18.6007,0\O,31,1.90095,29,154.91,28,143.712,0\H,71,0.949945,31,87.5266,29,-22.2212,0\H,71,1.02707,31,124.873,29,-137.941,0\O,72,1.72957,71,165.078,31,177.276,0\H,74,0.942053,72,99.4787,71,-94.1481,0\H,74,0.94718,72,122.733,71,152.179,0\O,75,1.84416,74,159.792,72,-171.794,0\H,77,0.946847,75,132.536,74,178.828,0\H,77,0.950327,75,106.517,74,44.9441,0\H,74,1.85615,72,99.7478,71,27.5282,0\O,80,0.994971,74,170.021,72,-106.952,0\H,81,0.926518,80,100.04,74,-116.677,0\H,81,1.80235,80,104.058,74,54.6246,0\O,83,1.01194,81,174.65,80,15.7063,0\H,84,0.996733,83,114.146,81,175.522,0\H,84,1.75793,83,117.097,81,-14.9153,0\O,86,0.970914,84,166.195,83,78.7852,0\H,87,1.01344,86,101.981,84,-60.8821,0\O,82,1.89318,81,155.08,80,143.315,0\H,89,0.948036,82,153.24,81,68.07,0\H,89,0.978846,82,106.056,81,-124.614,0\O,90,1.82658,89,164.417,82,59.4348,0\H,92,0.944676,90,125.99,89,-104.706,0\H,92,0.964921,90,122.721,89,69.8993,0\O,94,1.8071,92,173.18,90,-129.127,0\H,95,0.953873,94,141.264,92,-72.8296,0\H,95,1.03199,94,102.684,92,116.842,0\O,97,1.82701,95,171.709,94,-97.4475,0\H,98,0.940771,97,122.659,95,128.453,0\H,98,0.958355,97,109.805,95,-0.458458,0\O,57,1.91476,56,160.962,52,-62.47,0\H,101,0.964378,57,108.338,56,-5.08858,0\H,101,0.992705,57,139.291,56,-148.978,0\H,101,1.76987,57,74.4194,56,107.096,0\O,104,0.96876,101,169.959,57,-138.649,0\H,105,0.99592,104,108.811,101,-102.965,0\O,73,1.9736,71,146.287,31,-96.3315,0\H,107,0.943396,73,110.747,71,170.086,0\H,107,0.953158,73,141.717,71,-25.8543,0\H,56,1.97387,52,106.018,50,-103.044,0\O,110,0.995435,56,172.458,52,-63.6101,0\H,111,0.976333,110,110.268,56,-6.42464,0\O,112,1.72291,111,172.206,110,-46.6042,0\H,113,0.936888,112,97.7263,111,66.4793,0\H,113,0.946435,112,102.547,111,-178.451,0\O,115,1.73629,113,167.415,112,-159.282,0\H,116,0.966713,115,115.582,113,-87.1989,0\H,116,0.977993,115,99.1974,113,27.8804,0\O,117,1.82185,116,156.494,115,-3.03662,0\H,119,0.948649,117,121.033,116,-89.1404,0\H,119,1.00836,117,96.1532,116,25.1347,0\H,116,1.93187,115,138.995,113,106.296,0\O,122,0.946443,116,153.657,115,-108.41,0\H,123,0.924357,122,104.097,116,76.7713,0\H,123,1.83206,122,124.245,116,-39.2621,0\O,125,0.975819,123,165.895,122,-85.6896,0\H,126,0.981351,125,112.332,123,31.4119,0\H,29,1.97767,28,110.733,26,21.4637,0\O,128,0.95699,29,148.035,28,143.84,0\H,129,0.932284,128,106.399,29,-132.328,0\H,129,1.61264,128,116.46,29,-4.05824,0\O,131,0.986087,129,158.325,128,26.4878,0\H,132,0.960571,131,104.958,129,-7.36745,0\H,4,1.9833,3,127.674,1,-3.77403,0\O,134,0.945921,4,158.608,3,-172.195,0\H,135,0.960288,134,115.924,4,-179.136,0\H,135,1.72277,134,108.931,4,20.3866,0\O,137,0.997228,135,175.029,134,-89.6683,0\H,138,0.969149,137,105.841,135,162.029,0\H,138,1.73052,137,136.956,135,-83.314,0\O,140,0.914727,138,161.254,137,-75.0164,0\H,141,0.98478,140,104.214,138,107.482,0\H,138,1.92124,137,110.289,135,60.6387,0\O,143,0.942097,138,169.71,137,-56.2723,0\H,144,0.958694,143,106.754,138,-17.2535,0\O,136,1.98921,135,153.521,134,-178.993,0\H,146,0.956797,136,107.907,135,-148.024,0\H,146,0.974705,136,108.166,135,-27.7914,0\H,148,1.91093,146,168.973,136,-110.951,0\O,149,0.906138,148,82.5606,146,86.4221,0\H,150,0.953489,149,108.345,148,-111.588,0\H,150,1.79227,149,102.138,148,110.731,0\O,152,0.96954,150,157.033,149,88.2507,0\H,153,0.944842,152,106.031,150,92.0186,0\O,154,1.74466,153,163.575,152,173.631,0\H,155,0.952262,154,94.7897,153,31.3361,0\H,155,1.02226,154,104.999,153,144.375,0\O,157,1.84534,155,159.118,154,-149.014,0\H,158,0.948053,157,107.533,155,21.9155,0\H,158,0.986426,157,127.281,155,144.328,0\H,155,1.96834,154,136.465,153,-78.0615,0\O,161,0.95466,155,157.736,154,58.9789,0\H,162,0.953915,161,103.999,155,108.962,0\O,160,1.97682,158,165.509,157,89.8952,0\H,164,0.961237,160,116.86,158,163.232,0\H,164,0.967268,160,112.296,158,-74.3738,0\H,164,1.88022,160,71.6838,158,29.268,0\O,167,0.972217,164,157.845,160,-40.5371,0\H,168,0.977789,167,114.264,164,18.2233,0\H,168,1.81675,167,99.6035,164,-102.394,0\O,170,0.981033,168,164.436,167,-26.51,0\H,171,0.967388,170,107.247,168,85.2531,0\O,172,1.76633,171,156.613,170,-22.3192,0\H,173,0.927637,172,132.248,171,-60.2742,0\H,173,0.929546,172,94.8361,171,55.4298,0\H,173,1.75013,172,96.7877,171,160.987,0\O,176,0.97569,173,149.264,172,70.4756,0\H,177,0.932637,176,108.296,173,169.966,0\H,171,1.79418,170,133.791,168,-123.121,0\O,179,0.994715,171,172.583,170,-170.236,0\H,180,0.950748,179,118.734,171,88.2999,0\H,180,1.76163,179,86.9462,171,-163.78,0\O,182,0.975159,180,157.398,179,-34.7154,0\H,183,0.958353,182,106.141,180,57.7767,0\H,183,1.70777,182,103.684,180,-76.6661,0\O,185,0.948826,183,166.84,182,21.8263,0\H,186,0.93617,185,100.163,183,144.909,0\H,186,1.73699,185,122.573,183,-97.216,0\O,188,0.99625,186,160.049,185,9.43707,0\H,189,1.01146,188,104.186,186,27.3743,0\H,189,1.76132,188,104.817,186,-114.557,0\O,191,0.95251,189,172.46,188,136.632,0\H,192,0.973833,191,109.813,189,101.942,0\O,184,1.78763,183,168.107,182,94.5173,0\H,194,0.958526,184,125.813,183,-169.186,0\H,194,0.960284,184,129.69,183,22.7706,0\H,171,1.80406,170,105.102,168,-29.7045,0\O,197,0.963308,171,164.654,170,-18.4539,0\H,198,0.914993,197,97.4864,171,-50.8505,0\O,181,1.8301,180,153.686,179,37.607,0\H,200,0.904484,181,128.9,180,21.5758,0\H,200,0.994434,181,117.474,180,-177.844,0\O,174,1.85411,173,164.646,172,101.455,0\H,203,0.954814,174,132.353,173,-138.002,0\H,203,0.969426,174,111.123,173,79.4465,0\O,190,1.88919,189,155.038,188,-133.965,0\H,206,0.986606,190,88.3549,189,73.1657,0\H,206,0.98961,190,92.344,189,-41.1611,0\H,206,1.74326,190,97.8385,189,-149.924,0\O,209,0.974589,206,159.341,190,-0.0136133,0\H,210,0.981833,209,96.7232,206,169.941,0\O,207,1.77215,206,160.171,190,107.023,0\H,212,0.899431,207,101.745,206,58.3338,0\H,212,0.972557,207,115.737,206,-67.372,0\H,210,1.82752,209,148.753,206,0.604327,0\O,215,0.979813,210,164.877,209,-50.4377,0\H,216,1.02943,215,104.852,210,128.987,0\O,217,1.9083,216,162.1,215,-123.106,0\H,218,0.949517,217,120.207,216,17.1557,0\H,218,0.972894,217,116.556,216,151.247,0\H,218,1.71914,217,71.2104,216,-113.639,0\O,221,0.918911,218,167.398,217,97.9128,0\H,222,0.979009,221,105.216,218,138.347,0\H,222,1.80141,221,119.706,218,-41.4602,0\O,224,0.930864,222,173.188,221,-123.081,0\H,225,1.02236,224,104.035,222,109.263,0\H,225,1.84329,224,125.26,222,5.72983,0\O,227,0.957686,225,135.194,224,-157.217,0\H,228,0.958366,227,110.04,225,38.1114,0\H,202,1.95203,200,76.852,181,74.5951,0\O,230,0.989902,202,147.996,200,146.033,0\H,231,0.985895,230,109.987,202,-117.443,0\O,219,1.9856,218,152.371,217,-111.282,0\H,233,1.00406,219,97.5908,218,15.4855,0\H,233,1.0047,219,149.254,218,-110.978,0\O,235,1.77785,233,163.729,219,59.7605,0\H,236,0.980885,235,106.924,233,-68.136,0\H,236,1.00536,235,123.001,233,174.475,0\O,237,1.71096,236,168.041,235,-24.0316,0\H,239,0.952305,237,101.676,236,-4.66819,0\H,239,0.95948,237,139.767,236,127.317,0\H,236,1.80264,235,80.474,233,53.4747,0\O,242,0.953931,236,174.79,235,-102.242,0\H,243,0.969686,242,111.789,236,-19.9899,0\O,244,1.85728,243,164.131,242,-90.9416,0\H,245,0.970631,244,90.3718,243,-46.1699,0\H,245,0.977539,244,161.249,243,135.438,0\H,239,1.87081,237,97.5619,236,-117.435,0\O,248,0.983207,239,175.063,237,-78.0756,0\H,249,0.952179,248,105.885,239,-7.51846,0\H,249,1.74788,248,104.324,239,127.718,0\O,251,0.980639,249,168.546,248,158.15,0\H,252,0.978587,251,104.824,249,155.093,0\H,252,1.77669,251,109.229,249,-110.954,0\O,254,0.973177,252,171.032,251,-85.8425,0\H,255,0.988895,254,101.487,252,85.8013,0\H,252,1.8316,251,120.048,249,7.99664,0\O,257,0.979485,252,170.034,251,163.889,0\H,258,0.957328,257,103.932,252,50.5411,0\H,250,1.89356,249,122.372,248,60.3507,0\O,260,1.02989,250,149.068,249,50.0796,0\H,261,0.929946,260,99.2254,250,81.7666,0\O,259,1.93079,258,172.249,257,-104.415,0\H,263,0.965102,259,111.846,258,173.231,0\H,263,0.975418,259,116.312,258,48.7596,0\H,255,1.93914,254,107.46,252,-154.898,0\O,266,0.990511,255,168.247,254,4.20397,0\H,267,0.932459,266,105.687,255,-164.141,0\O,268,1.78482,267,152.714,266,-14.6447,0\H,269,0.933538,268,144.613,267,-123.373,0\H,269,1.00578,268,100.176,267,99.4211,0\O,271,1.7726,269,153.619,268,139.322,0\H,272,0.952916,271,105.028,269,115.873,0\H,272,0.967184,271,125.031,269,-1.97221,0\O,273,1.92915,272,158.137,271,65.1231,0\H,275,0.957538,273,121.701,272,144.06,0\H,275,0.980325,273,103.222,272,26.8084,0\O,277,1.78248,275,167.203,273,-116.289,0\H,278,0.934912,277,115.206,275,99.6303,0\H,278,0.97782,277,138.417,275,-109.783,0\O,279,1.77098,278,154.008,277,-17.2482,0\H,281,0.938982,279,143.831,278,167.307,0\H,281,0.950798,279,95.2405,278,-54.5015,0\O,238,1.94094,236,172.557,235,-176.426,0\H,284,0.975029,238,94.5181,236,9.46865,0\H,284,0.992547,238,122.122,236,130.287,0\H,243,1.95413,242,113.718,236,117.777,0\O,287,0.971101,243,149.206,242,-29.5431,0\H,288,0.999089,287,104.877,243,155.872,0\H,229,1.98875,228,80.277,227,-89.5999,0\O,290,0.954611,229,125.842,228,-123.986,0\H,291,0.943812,290,108.594,229,-51.2999,0\H,87,1.99675,86,93.5416,84,34.4618,0\O,293,1.03114,87,168.729,86,141.273,0\H,294,0.976942,293,104.796,87,-78.0964,0\H,45,2.01052,44,120.335,32,-109.684,0\O,296,0.981911,45,174.318,44,-129.351,0\H,297,0.994866,296,98.8019,45,-159.824,0\H,297,1.89049,296,89.0618,45,-37.9966,0\O,299,0.961352,297,177.157,296,-129.717,0\H,300,0.950041,299,108.275,297,-139.155,0\H,297,1.91982,296,126.738,45,67.3364,0\O,302,1.00359,297,159.851,296,48.9121,0\H,303,0.980293,302,107.828,297,117.562,0\H,303,1.95174,302,91.602,297,-2.66709,0\O,305,0.949911,303,172.791,302,13.3391,0\H,306,0.965439,305,104.651,303,-125.695,0\O,145,2.0279,144,172.286,143,38.1785,0\H,308,0.94212,145,113.183,144,-131.211,0\H,308,0.971448,145,103.128,144,114.099,0\O,133,2.05989,132,125.888,131,168.778,0\H,311,0.921653,133,91.0773,132,47.9045,0\H,311,0.967519,133,98.4544,132,154.335,0\H,135,2.06891,134,96.8635,4,-62.9964,0\O,314,0.931138,135,163.917,134,-126.759,0\H,315,0.922149,314,110.07,135,-172.787,0\O,118,2.12311,116,168.324,115,3.76855,0\H,317,0.942109,118,130.671,116,125.94,0\H,317,0.96557,118,100.224,116,-1.39024,0\H,89,2.22142,82,68.9516,81,-29.6768,0\O,320,0.971706,89,138.373,82,-178.075,0\H,321,0.958293,320,103.133,89,100.558,0\O,322,1.98971,321,131.581,320,47.7168,0\H,323,0.925808,322,125.951,321,169.962,0\H,323,0.977156,322,125.518,321,13.0406,0\H,231,2.22503,230,101.325,202,129.394,0\O,326,1.00801,231,152.92,230,-56.3963,0\H,327,0.945445,326,106.509,231,-149.577,0\O,240,2.23702,239,150.553,237,-89.7026,0\H,329,0.927231,240,126.353,239,171.985,0\H,329,0.959039,240,88.0284,239,-77.9889,0\O,330,1.76313,329,173.297,240,12.5249,0\H,332,0.927581,330,109.598,329,-102.896,0\H,332,0.973946,330,118.366,329,130.619,0\H,332,1.83724,330,83.817,329,15.1608,0\O,335,0.941606,332,165.157,330,-14.4174,0\H,336,0.997307,335,106.727,332,-151.942,0\H,336,2.08438,335,124.373,332,-41.2383,0\O,338,0.929581,336,171.293,335,162.539,0\H,339,0.953998,338,109.836,336,-177.423,0\H,209,2.26007,206,86.9334,190,46.349,0\O,341,0.953503,209,124.592,206,67.415,0\H,342,0.923685,341,109.56,209,111.299,0\\\@

 Total job time:  41.55s(wall), 201.77s(cpu) 
 Sun Feb 21 04:50:22 2021

        *************************************************************
        *                                                           *
        *  Thank you very much for using Q-Chem.  Have a nice day.  *
        *                                                           *
        *************************************************************


