                  Welcome to Q-Chem
     A Quantum Leap Into The Future Of Chemistry


 Q-Chem 6.0 (devel), Q-Chem, Inc., Pleasanton, CA (2022)

 E. Epifanovsky,  A. T. B. Gilbert,  Xintian Feng,  Joonho Lee,  Yuezhi Mao,  
 N. Mardirossian,  P. Pokhilko,  A. White,  M. Wormit,  M. P. Coons,  
 A. L. Dempwolff,  Zhengting Gan,  D. Hait,  P. R. Horn,  L. D. Jacobson,  
 I. Kaliman,  J. Kussmann,  A. W. Lange,  Ka Un Lao,  D. S. Levine,  Jie Liu,  
 S. C. McKenzie,  A. F. Morrison,  K. Nanda,  F. Plasser,  D. R. Rehn,  
 M. L. Vidal,  Zhi-Qiang You,  Ying Zhu,  B. Alam,  B. Albrecht,  
 A. Aldossary,  E. Alguire,  J. H. Andersen,  V. Athavale,  D. Barton,  
 K. Begam,  A. Behn,  N. Bellonzi,  Y. A. Bernard,  E. J. Berquist,  
 H. Burton,  A. Carreras,  K. Carter-Fenk,  Romit Chakraborty,  
 Chandrima Chakravarty,  Junhan Chen,  A. D. Chien,  K. D. Closser,  
 V. Cofer-Shabica,  L. Cunha,  S. Dasgupta,  Jia Deng,  M. de Wergifosse,  
 M. Diedenhofen,  Hainam Do,  S. Ehlert,  Po-Tung Fang,  S. Fatehi,  
 Qingguo Feng,  T. Friedhoff,  B. Ganoe,  J. Gayvert,  Qinghui Ge,  
 G. Gidofalvi,  M. Goldey,  J. Gomes,  C. Gonzalez-Espinoza,  S. Gulania,  
 A. Gunina,  J. A. Gyamfi,  M. W. D. Hanson-Heine,  P. H. P. Harbach,  
 A. W. Hauser,  M. F. Herbst,  M. Hernandez Vera,  M. Hodecker,  
 Z. C. Holden,  S. Houck,  Xunkun Huang,  Kerwin Hui,  B. C. Huynh,  
 K. Ikeda,  M. Ivanov,  Hyunjun Ji,  Zuxin Jin,  Hanjie Jiang,  B. Kaduk,  
 S. Kaehler,  R. Kang,  K. Khistyaev,  Jaehoon Kim,  Yongbin Kim,  
 P. Klunzinger,  Z. Koczor-Benda,  Joong Hoon Koh,  D. Kosenkov,  
 Saikiran Kotaru,  L. Koulias,  T. Kowalczyk,  C. M. Krauter,  K. Kue,  
 A. Kunitsa,  T. Kus,  A. Landau,  K. V. Lawler,  D. Lefrancois,  S. Lehtola,  
 Rain Li,  Shaozhi Li,  Yi-Pei Li,  Jiashu Liang,  M. Liebenthal,  
 Hung-Hsuan Lin,  You-Sheng Lin,  Fenglai Liu,  Kuan-Yu Liu,  
 M. Loipersberger,  A. Luenser,  C. Malbon,  A. Manjanath,  P. Manohar,  
 E. Mansoor,  S. F. Manzer,  Shan-Ping Mao,  A. V. Marenich,  T. Markovich,  
 S. Mason,  F. Matz,  S. A. Maurer,  P. F. McLaughlin,  M. F. S. J. Menger,  
 J.-M. Mewes,  S. A. Mewes,  P. Morgante,  Mohammad Mostafanejad,  
 J. W. Mullinax,  K. J. Oosterbaan,  G. Paran,  V. Parravicini,  
 Alexander C. Paul,  Suranjan K. Paul,  F. Pavosevic,  Zheng Pei,  S. Prager,  
 E. I. Proynov,  E. Ramos,  B. Rana,  A. E. Rask,  A. Rettig,  R. M. Richard,  
 F. Rob,  E. Rossomme,  T. Scheele,  M. Scheurer,  M. Schneider,  
 P. E. Schneider,  N. Sergueev,  S. M. Sharada,  Hengyuan Shen,  
 W. Skomorowski,  D. W. Small,  C. J. Stein,  Yingli Su,  Yu-Chuan Su,  
 E. J. Sundstrom,  Zhen Tao,  J. Thirman,  Hung-Yi Tsai,  T. Tsuchimochi,  
 N. M. Tubman,  C. Utku,  S. P. Veccham,  O. Vydrov,  J. Wenzel,  
 Jonathan Wong,  J. Witte,  A. Yamada,  Chou-Hsun Yang,  Kun Yao,  
 S. Yeganeh,  S. R. Yost,  A. Zech,  F. Zeller,  Igor Ying Zhang,  
 Xing Zhang,  Yu Zhang,  D. Zuev,  A. Aspuru-Guzik,  A. T. Bell,  
 N. A. Besley,  K. B. Bravaya,  B. R. Brooks,  D. Casanova,  Jeng-Da Chai,  
 Hsing-Ta Chen,  S. Coriani,  C. J. Cramer,  A. E. DePrince, III,  
 R. A. DiStasio Jr.,  A. Dreuw,  B. D. Dunietz,  T. R. Furlani,  
 W. A. Goddard III,  S. Grimme,  S. Hammes-Schiffer,  T. Head-Gordon,  
 W. J. Hehre,  Chao-Ping Hsu,  T.-C. Jagau,  Yousung Jung,  A. Klamt,  
 Jing Kong,  D. S. Lambrecht,  Xiangyuan Li,  WanZhen Liang,  N. J. Mayhall,  
 C. W. McCurdy,  J. B. Neaton,  T. Neudecker,  C. Ochsenfeld,  
 J. A. Parkhill,  R. Peverati,  V. A. Rassolov,  Haisheng Ren,  Yihan Shao,  
 L. V. Slipchenko,  R. P. Steele,  J. E. Subotnik,  A. J. W. Thom,  
 A. Tkatchenko,  D. G. Truhlar,  T. Van Voorhis,  Fan Wang,  
 T. A. Wesolowski,  K. B. Whaley,  H. L. Woodcock III,  P. M. Zimmerman,  
 S. Faraji,  P. M. W. Gill,  M. Head-Gordon,  J. M. Herbert,  A. I. Krylov

 Contributors to earlier versions of Q-Chem not listed above: 
 R. D. Adamson,  B. Austin,  R. Baer,  J. Baker,  G. J. O. Beran,  
 K. Brandhorst,  S. T. Brown,  E. F. C. Byrd,  Arup K. Chakraborty,  
 G. K. L. Chan,  Chun-Min Chang,  Yunqing Chen,  C.-L. Cheng,  
 Siu Hung Chien,  D. M. Chipman,  D. L. Crittenden,  H. Dachsel,  
 R. J. Doerksen,  A. D. Dutoi,  R. G. Edgar,  J. Fosso-Tande,  
 L. Fusti-Molnar,  D. Ghosh,  A. Ghysels,  A. Golubeva-Zadorozhnaya,  
 J. Gonthier,  M. S. Gordon,  S. R. Gwaltney,  G. Hawkins,  J. E. Herr,  
 A. Heyden,  S. Hirata,  E. G. Hohenstein,  G. Kedziora,  F. J. Keil,  
 C. Kelley,  Jihan Kim,  R. A. King,  R. Z. Khaliullin,  P. P. Korambath,  
 W. Kurlancheek,  A. Laurent,  A. M. Lee,  M. S. Lee,  S. V. Levchenko,  
 Ching Yeh Lin,  D. Liotard,  E. Livshits,  R. C. Lochan,  I. Lotan,  
 L. A. Martinez-Martinez,  P. E. Maslen,  N. Nair,  D. P. O'Neill,  
 D. Neuhauser,  E. Neuscamman,  C. M. Oana,  R. Olivares-Amaya,  R. Olson,  
 T. M. Perrine,  B. Peters,  P. A. Pieniazek,  A. Prociuk,  Y. M. Rhee,  
 J. Ritchie,  M. A. Rohrdanz,  E. Rosta,  N. J. Russ,  H. F. Schaefer III,  
 M. W. Schmidt,  N. E. Schultz,  S. Sharma,  N. Shenvi,  C. D. Sherrill,  
 A. C. Simmonett,  A. Sodt,  T. Stein,  D. Stuck,  K. S. Thanthiriwatte,  
 V. Vanovschi,  L. Vogt,  Tao Wang,  A. Warshel,  M. A. Watson,  
 C. F. Williams,  Q. Wu,  X. Xu,  Jun Yang,  W. Zhang,  Yan Zhao

   Please cite Q-Chem as follows:
  "Software for the frontiers of quantum chemistry:
   An overview of developments in the Q-Chem 5 package"
   J. Chem. Phys. 155, 084801 (2021)
   https://doi.org/10.1063/5.0055522 (open access)

 Q-Chem 6.0.0 for Intel X86 EM64T Linux

 Parts of Q-Chem use Armadillo 9.900.5 (Nocturnal Misbehaviour).
 http://arma.sourceforge.net/

 Q-Chem begins on Thu Jul 21 02:41:02 2022  

 Host: nid00522
0

     Scratch files written to /global/cscratch1/sd/ymao90/water_frame0000_spade_B3LYP_631+gd20220721024040//
 Processing $rem in /global/homes/y/ymao90/my_qchem/qchem_embedding_5p4/config/preferences:
 Processing $rem in /global/homes/y/ymao90/.qchemrc:
 No nuclear gradient supported for projection-based embedding or EMFT. Set max ideriv = 0.

 Checking the input file for inconsistencies... 	...done.

--------------------------------------------------------------
User input:
--------------------------------------------------------------
$comment
job 1 performs the SPADE partition and write the orbitals
onto the disk; job 2 read in the occupied orbitals
correpsonding to the environment (solvent) and calculate
the electric fields at atomic positions of the solute
$end

$molecule
0 1
--
0 1
C    -1.43818   -1.82818   -4.01476  
H    -1.41233   -2.87396   -3.63610  
O    -0.43271   -1.39300   -4.58350  
N    -2.54675   -1.05524   -3.82050  
H    -3.33883   -1.51675   -3.34197  
C    -2.86381   0.26397    -4.38276  
C    -3.04750   0.20902    -5.96107  
C    -4.14270   0.95552    -3.75968  
H    -1.99237   0.97907    -4.12856  
C    -3.33313   1.61300    -6.56629  
H    -3.94314   -0.50849   -6.14469  
H    -2.07810   -0.25211   -6.32889  
C    -4.45992   2.32211    -4.34421  
H    -5.00391   0.26752    -3.88121  
H    -3.90466   0.91385    -2.67347  
C    -4.59606   2.19479    -5.85142  
H    -3.37782   1.54535    -7.60385  
H    -2.50983   2.38505    -6.31858  
H    -5.40106   2.80677    -3.94132  
H    -3.65053   3.04360    -4.17394  
H    -4.86796   3.14491    -6.31801  
H    -5.48783   1.55803    -6.00633  
--
0 1
O    -6.68680   5.09039    -4.20229  
H    -6.69067   5.60900    -5.02576  
H    -5.99396   5.56092    -3.67647  
O    -0.03740   -1.62200   1.16656   
H    0.10520    -0.88803   0.57930   
H    -0.26794   -2.50796   0.77748   
O    1.30594    1.63278    -11.79120 
H    0.36235    1.70600    -11.79511 
H    1.59444    0.74597    -11.70123 
O    -0.67119   4.96216    1.34436   
H    -0.42657   4.07033    1.11205   
H    0.00078    5.54309    1.09104   
O    2.07562    2.45808    -9.34553  
H    1.71662    2.17180    -10.20715 
H    2.76566    1.81449    -9.02847  
O    -6.05588   -4.14946   -9.54731  
H    -5.67966   -3.34063   -9.17480  
H    -5.52270   -4.83284   -9.12840  
O    -2.67481   -1.66772   1.68438   
H    -1.70951   -1.53256   1.71374   
H    -2.80929   -2.61387   1.61257   
O    1.58610    0.00706    -6.29540  
H    1.97294    -0.76341   -6.71159  
H    1.09113    -0.20915   -5.52789  
O    -10.87136  0.74612    -6.23383  
H    -10.60449  1.37093    -6.92742  
H    -9.97849   0.37568    -5.92950  
O    -8.22848   6.45167    1.04908   
H    -7.28269   6.45495    1.16535   
H    -8.55354   6.31026    1.94896   
O    -7.41627   1.43985    0.90212   
H    -6.89364   2.26915    0.91184   
H    -8.07613   1.50132    0.14846   
O    -2.91566   -7.88640   -5.36727  
H    -2.75169   -7.85141   -4.35885  
H    -3.25518   -8.73784   -5.62530  
O    -1.34495   1.59204    -12.08979 
H    -1.38028   0.68575    -12.45566 
H    -1.69455   2.19706    -12.75782 
O    -4.05436   5.17592    -11.61277 
H    -4.41597   6.01827    -11.84102 
H    -3.09166   5.18191    -11.67793 
O    -6.74545   -3.61134   1.30843   
H    -6.35086   -3.95410   2.12281   
H    -7.48284   -3.07086   1.61423   
O    -1.87697   5.50292    -6.55365  
H    -2.04859   6.39382    -6.18085  
H    -2.74689   5.29425    -7.01239  
O    -5.22663   -6.42551   -6.25550  
H    -5.99402   -6.77732   -5.81132  
H    -4.49111   -6.77203   -5.75519  
O    3.83228    0.98508    -3.53030  
H    3.00300    0.54538    -3.12512  
H    3.70460    1.89396    -3.37492  
O    -0.54046   -5.57625   -3.66708  
H    -1.44679   -5.51801   -3.50729  
H    -0.28347   -4.93197   -4.28827  
O    3.18571    -5.32110   -6.08350  
H    2.81537    -6.22177   -6.12464  
H    3.84686    -5.25228   -5.39531  
O    5.42226    -0.93606   -2.75504  
H    5.71783    -0.96740   -3.66615  
H    4.97676    -0.10596   -2.58292  
O    -8.37819   2.72511    -3.95270  
H    -9.16211   3.13578    -3.59868  
H    -7.71645   3.39710    -3.97564  
O    0.85275    2.41290    2.01952   
H    0.07301    2.44710    2.60318   
H    1.52514    2.57508    2.71636   
O    -3.04208   0.32768    3.84677   
H    -3.07974   -0.35864   3.15872   
H    -2.56561   0.11148    4.57835   
O    1.33506    -5.59255   -1.31060  
H    0.73142    -5.67711   -2.01240  
H    1.62481    -6.45557   -1.13241  
O    -3.61944   0.17549    -11.23831 
H    -2.91424   0.80510    -11.28345 
H    -3.21247   -0.59702   -10.93493 
O    3.61599    3.63761    -2.93116  
H    4.24763    4.38560    -2.93008  
H    2.82402    3.99028    -2.62652  
O    5.10618    0.41974    -6.03054  
H    4.32705    0.61185    -5.49568  
H    5.87869    0.70405    -5.47569  
O    4.21319    -1.68904   0.18688   
H    4.91692    -2.30892   0.06697   
H    3.62140    -1.76686   -0.62541  
O    -0.53032   -4.97669   2.67747   
H    -1.31463   -4.52659   2.81704   
H    -0.34617   -4.63729   1.79494   
O    -3.09087   -4.36349   1.84744   
H    -3.51491   -4.82410   2.57557   
H    -2.98437   -5.04327   1.18011   
O    -7.96344   0.13231    -5.14754  
H    -7.50878   -0.15581   -5.93027  
H    -7.77678   1.11809    -4.92784  
O    -10.07040  -1.58939   -2.24013  
H    -10.30791  -1.56992   -1.29441  
H    -9.51191   -2.33143   -2.35218  
O    -5.99263   -6.92651   -2.59549  
H    -6.02755   -7.73135   -2.06383  
H    -6.15467   -6.23900   -1.92856  
O    -8.88918   4.53245    -0.74761  
H    -9.08559   3.94974    -0.04521  
H    -8.51942   5.36456    -0.32046  
O    -6.76787   -2.22222   -4.19272  
H    -7.42167   -2.68135   -3.70163  
H    -7.18172   -1.34863   -4.24790  
O    -10.51826  4.80844    -5.98872  
H    -10.15132  3.91927    -6.15050  
H    -10.59508  4.92697    -5.03401  
O    0.56270    4.87347    -7.66552  
H    1.03306    5.69756    -7.86534  
H    -0.30011   5.03937    -7.29401  
O    0.13590    7.20755    -4.03136  
H    -0.22959   7.11528    -3.18164  
H    0.04235    6.39027    -4.51449  
O    -2.49398   -5.89461   -0.62375  
H    -2.02613   -6.68810   -0.31279  
H    -2.76231   -5.92874   -1.56338  
O    1.71647    2.91587    -5.97481  
H    2.05864    2.03647    -6.30307  
H    1.53563    3.42902    -6.77918  
O    -0.39090   3.30129    -9.96231  
H    -0.25832   3.69708    -9.09963  
H    -0.82882   2.47687    -9.84566  
O    -0.24686   0.11156    -0.91273  
H    -1.00276   0.14557    -1.40826  
H    0.32803    0.90575    -1.07905  
O    -8.30980   -2.17544   -9.01146  
H    -9.09313   -2.70275   -8.94177  
H    -7.61486   -2.74179   -9.32678  
O    -1.94692   -6.55574   -8.64805  
H    -1.52572   -7.34585   -8.23804  
H    -1.86703   -5.90317   -8.01205  
O    0.72587    1.01762    -3.56575  
H    0.69755    1.80759    -4.10687  
H    0.22346    0.23299    -3.90521  
O    -3.07235   2.72385    0.67030   
H    -2.36875   2.50030    1.36169   
H    -3.22283   1.86491    0.18854   
O    -11.14730  2.78129    -4.02688  
H    -10.94558  2.15485    -4.82069  
H    -11.88550  3.34290    -4.33359  
O    -4.81623   8.52439    -6.47109  
H    -4.00116   8.24417    -5.99798  
H    -4.52166   9.04589    -7.21130  
O    -4.37510   5.08698    -8.04836  
H    -4.65111   4.21261    -8.42842  
H    -4.11516   5.73368    -8.73019  
O    -3.86480   6.48500    -2.82954  
H    -4.15373   7.37351    -2.61315  
H    -3.60683   6.07949    -2.03659  
O    -7.22736   -5.07350   -0.96016  
H    -7.09374   -4.47148   -0.19302  
H    -7.43528   -5.88717   -0.54645  
O    -1.03461   -1.28716   -13.15974 
H    -0.08414   -1.35993   -13.00600 
H    -1.45519   -2.10059   -12.93835 
O    5.31419    -2.22672   -6.66345  
H    6.25046    -2.53879   -6.52978  
H    5.28390    -1.26668   -6.53735  
O    -2.36611   7.77353    -5.22014  
H    -2.00606   8.64654    -5.05038  
H    -2.50597   7.38335    -4.36277  
O    -8.48976   -3.78725   -2.95453  
H    -9.00928   -4.29866   -3.55706  
H    -8.08167   -4.36091   -2.26508  
O    -3.19335   7.59978    -9.24506  
H    -3.39580   8.34366    -8.56218  
H    -3.74908   7.87740    -9.93708  
O    -0.62020   4.12656    -4.52247  
H    -1.21420   4.50962    -5.23651  
H    0.13865    3.77431    -5.07763  
O    -10.93475  -2.51332   -5.34627  
H    -11.31291  -3.34113   -5.20077  
H    -10.68191  -2.17732   -4.47491  
O    0.14163    -2.89579   -9.12699  
H    0.75446    -3.31010   -9.73542  
H    0.72283    -2.32554   -8.62082  
O    1.70554    7.21280    -8.70278  
H    1.92232    6.68890    -9.49060  
H    1.97927    8.13749    -8.86279  
O    -6.48981   6.38976    -6.60901  
H    -5.79310   7.07682    -6.54423  
H    -6.02297   5.58848    -6.92149  
O    -3.07169   -8.04842   -2.55218  
H    -3.74844   -8.70474   -2.45189  
H    -2.42028   -8.29386   -1.85328  
O    -7.85190   8.40344    -2.14132  
H    -7.64557   7.52442    -2.43926  
H    -8.62852   8.73135    -2.55487  
O    2.20962    -0.94182   -2.13437  
H    1.48880    -0.58999   -1.55425  
H    1.87415    -1.70176   -2.66535  
O    -3.65373   -3.40235   -5.91864  
H    -2.92307   -3.70716   -6.42930  
H    -3.69392   -3.95510   -5.13637  
O    -6.89944   -0.33362   -7.53915  
H    -7.51928   -0.96041   -7.87141  
H    -6.05571   -0.72070   -7.72740  
O    3.25433    -3.82244   -1.67595  
H    2.51085    -4.42349   -1.87075  
H    3.60597    -3.51992   -2.48505  
O    -6.25849   -0.90194   -0.34922  
H    -6.59678   -0.15310   0.12736   
H    -6.46606   -1.66122   0.20978   
O    -1.33352   -4.48318   -7.17917  
H    -0.53202   -4.20287   -6.65621  
H    -1.33894   -3.92751   -7.97318  
O    -9.91408   2.68783    -7.86519  
H    -8.94435   2.59879    -8.14036  
H    -10.39516  3.44182    -8.30512  
O    -0.45500   -4.14320   0.06328   
H    -1.21800   -4.64315   -0.29770  
H    0.33736    -4.46126   -0.39152  
O    1.19105    4.43852    -2.32999  
H    1.27525    5.35441    -2.01285  
H    0.38534    4.36925    -2.82760  
O    -6.50333   -3.71975   -6.58557  
H    -6.23833   -3.18838   -5.83507  
H    -5.90697   -4.43525   -6.62517  
O    -1.60052   2.50690    3.08762   
H    -1.84576   3.45386    3.23746   
H    -2.29029   1.85879    3.36612   
O    -5.38325   8.67822    -1.23736  
H    -6.18976   8.81553    -1.68985  
H    -4.86726   9.46444    -1.50521  
O    -9.13552   6.94241    -7.34580  
H    -9.59075   6.28192    -6.82331  
H    -8.19969   6.85802    -7.06923  
O    -4.61986   -2.19486   -8.40277  
H    -4.49414   -2.73666   -7.65137  
H    -3.72480   -1.75381   -8.67878  
O    4.06659    0.39213    -8.60348  
H    4.71354    0.14598    -9.36040  
H    4.57823    0.37734    -7.87059  
O    0.79043    -3.78501   -5.63423  
H    1.70953    -4.06314   -5.64147  
H    0.61528    -2.94643   -5.23314  
O    1.83539    -8.29710   -1.08605  
H    2.01144    -8.90665   -0.37252  
H    2.31065    -8.61421   -1.86922  
O    -0.97468   7.21347    -1.23746  
H    -0.10094   7.09465    -0.77154  
H    -1.56876   6.58590    -0.86350  
O    -5.37268   3.06250    -10.44371 
H    -4.99288   3.73808    -10.98971 
H    -4.86795   2.28466    -10.75732 
O    -5.42781   6.77345    0.74157   
H    -4.79341   7.02182    1.41442   
H    -5.46550   7.54067    0.13248   
O    -4.66767   -2.50676   -2.43329  
H    -4.68000   -1.87216   -1.69879  
H    -5.49833   -2.37487   -2.92643  
O    -2.92940   5.38855    -0.56271  
H    -3.41545   5.51218    0.27218   
H    -2.76032   4.48565    -0.69151  
O    1.73017    2.15893    -0.61159  
H    1.53516    2.37201    0.32468   
H    1.68314    3.06222    -1.10310  
O    -7.20454   2.31659    -8.51706  
H    -6.41802   2.45564    -8.98662  
H    -7.01106   1.42776    -8.11393  
O    -1.29548   5.37968    -11.69336 
H    -0.97350   4.56890    -11.14202 
H    -0.60714   5.89457    -12.10682 
O    -9.40989   5.38200    -3.20125  
H    -8.46018   5.21515    -3.42780  
H    -9.48577   5.20736    -2.28844  
O    1.65116    -7.67110   -5.37072  
H    2.28526    -8.04389   -5.89990  
H    1.83124    -7.91760   -4.46742  
O    -5.19679   -0.54255   -13.42298 
H    -5.51944   0.31175    -13.78231 
H    -4.56331   -0.42122   -12.69072 
O    3.70087    -2.60103   -4.26015  
H    3.90195    -1.75103   -3.87499  
H    4.12598    -2.65864   -5.10083  
O    -5.50150   3.88195    0.97675   
H    -5.50855   4.77617    0.59117   
H    -4.66895   3.45747    0.79249   
O    -3.50624   -5.11597   -3.48424  
H    -3.88726   -4.56346   -2.78191  
H    -4.02721   -5.90009   -3.52079  
O    -0.18714   0.68068    -8.33065  
H    0.45635    1.19842    -8.89385  
H    0.43823    0.42269    -7.56875  
O    -1.63976   3.53924    -13.98854 
H    -1.78903   4.44124    -13.73546 
H    -0.65867   3.44901    -14.20326 
O    -9.02623   -4.11074   -6.48267  
H    -9.14110   -3.38133   -5.86829  
H    -8.05467   -4.15610   -6.64509  
O    -2.00815   -1.24345   -9.28810  
H    -1.54619   -2.05644   -9.13998  
H    -1.48348   -0.52617   -8.97351  
O    -8.97621   1.09122    -1.49695  
H    -9.29183   0.20868    -1.78962  
H    -8.52229   1.37621    -2.33510  
O    -11.66957  1.85980    -0.96441  
H    -11.88616  1.66238    -0.06070  
H    -10.76614  1.57428    -1.12717  
O    -8.23373   -0.10828   -11.06388 
H    -8.31120   -0.97273   -11.38613 
H    -8.65231   -0.12246   -10.18103 
O    -0.63059   -8.42218   -6.62834  
H    -1.33985   -8.13813   -6.07247  
H    0.15698    -7.94745   -6.32114  
O    -3.30761   0.15698    -0.11630  
H    -4.18060   -0.02796   -0.39932  
H    -3.21399   -0.48994   0.57145   
O    -7.92386   2.45163    -11.93509 
H    -7.41589   2.49800    -11.10803 
H    -7.89486   1.51971    -12.15647 
O    -1.05130   -8.29180   -0.42720  
H    -0.96191   -9.09698   0.09017   
H    -0.16664   -8.09988   -0.76801  
O    2.58996    -1.85380   -7.94662  
H    3.30404    -2.46473   -7.70284  
H    3.10006    -1.07062   -8.24760  
$end

$rem
JOBTYPE  SP
METHOD  B3LYP
BASIS  6-31+G(D)
SYMMETRY  FALSE
SYM_IGNORE  TRUE
MEM_TOTAL  16000
MEM_STATIC  8000
MAX_SUB_FILE_NUM  16000
BASIS_LIN_DEP_THRESH  6
THRESH  14
SCF_CONVERGENCE  8
GEN_SCFMAN  TRUE
SCF_GUESS  SAD
FD_MAT_VEC_PROD  FALSE
XC_GRID  000075000302
NL_GRID  1
MAX_SCF_CYCLES  200
ENV_METHOD  B3LYP
GEN_SCFMAN_EMBED  TRUE
SPADE_PARTITION  TRUE
ESP_GRID  0
ESP_EFIELD  1
EMBEDDING_EARLY_STOP  TRUE
$end

--------------------------------------------------------------
 ----------------------------------------------------------------
             Standard Nuclear Orientation (Angstroms)
    I     Atom           X                Y                Z
 ----------------------------------------------------------------
    1      C      -1.4381800000    -1.8281800000    -4.0147600000
    2      H      -1.4123300000    -2.8739600000    -3.6361000000
    3      O      -0.4327100000    -1.3930000000    -4.5835000000
    4      N      -2.5467500000    -1.0552400000    -3.8205000000
    5      H      -3.3388300000    -1.5167500000    -3.3419700000
    6      C      -2.8638100000     0.2639700000    -4.3827600000
    7      C      -3.0475000000     0.2090200000    -5.9610700000
    8      C      -4.1427000000     0.9555200000    -3.7596800000
    9      H      -1.9923700000     0.9790700000    -4.1285600000
   10      C      -3.3331300000     1.6130000000    -6.5662900000
   11      H      -3.9431400000    -0.5084900000    -6.1446900000
   12      H      -2.0781000000    -0.2521100000    -6.3288900000
   13      C      -4.4599200000     2.3221100000    -4.3442100000
   14      H      -5.0039100000     0.2675200000    -3.8812100000
   15      H      -3.9046600000     0.9138500000    -2.6734700000
   16      C      -4.5960600000     2.1947900000    -5.8514200000
   17      H      -3.3778200000     1.5453500000    -7.6038500000
   18      H      -2.5098300000     2.3850500000    -6.3185800000
   19      H      -5.4010600000     2.8067700000    -3.9413200000
   20      H      -3.6505300000     3.0436000000    -4.1739400000
   21      H      -4.8679600000     3.1449100000    -6.3180100000
   22      H      -5.4878300000     1.5580300000    -6.0063300000
   23      O      -6.6868000000     5.0903900000    -4.2022900000
   24      H      -6.6906700000     5.6090000000    -5.0257600000
   25      H      -5.9939600000     5.5609200000    -3.6764700000
   26      O      -0.0374000000    -1.6220000000     1.1665600000
   27      H       0.1052000000    -0.8880300000     0.5793000000
   28      H      -0.2679400000    -2.5079600000     0.7774800000
   29      O       1.3059400000     1.6327800000   -11.7912000000
   30      H       0.3623500000     1.7060000000   -11.7951100000
   31      H       1.5944400000     0.7459700000   -11.7012300000
   32      O      -0.6711900000     4.9621600000     1.3443600000
   33      H      -0.4265700000     4.0703300000     1.1120500000
   34      H       0.0007800000     5.5430900000     1.0910400000
   35      O       2.0756200000     2.4580800000    -9.3455300000
   36      H       1.7166200000     2.1718000000   -10.2071500000
   37      H       2.7656600000     1.8144900000    -9.0284700000
   38      O      -6.0558800000    -4.1494600000    -9.5473100000
   39      H      -5.6796600000    -3.3406300000    -9.1748000000
   40      H      -5.5227000000    -4.8328400000    -9.1284000000
   41      O      -2.6748100000    -1.6677200000     1.6843800000
   42      H      -1.7095100000    -1.5325600000     1.7137400000
   43      H      -2.8092900000    -2.6138700000     1.6125700000
   44      O       1.5861000000     0.0070600000    -6.2954000000
   45      H       1.9729400000    -0.7634100000    -6.7115900000
   46      H       1.0911300000    -0.2091500000    -5.5278900000
   47      O     -10.8713600000     0.7461200000    -6.2338300000
   48      H     -10.6044900000     1.3709300000    -6.9274200000
   49      H      -9.9784900000     0.3756800000    -5.9295000000
   50      O      -8.2284800000     6.4516700000     1.0490800000
   51      H      -7.2826900000     6.4549500000     1.1653500000
   52      H      -8.5535400000     6.3102600000     1.9489600000
   53      O      -7.4162700000     1.4398500000     0.9021200000
   54      H      -6.8936400000     2.2691500000     0.9118400000
   55      H      -8.0761300000     1.5013200000     0.1484600000
   56      O      -2.9156600000    -7.8864000000    -5.3672700000
   57      H      -2.7516900000    -7.8514100000    -4.3588500000
   58      H      -3.2551800000    -8.7378400000    -5.6253000000
   59      O      -1.3449500000     1.5920400000   -12.0897900000
   60      H      -1.3802800000     0.6857500000   -12.4556600000
   61      H      -1.6945500000     2.1970600000   -12.7578200000
   62      O      -4.0543600000     5.1759200000   -11.6127700000
   63      H      -4.4159700000     6.0182700000   -11.8410200000
   64      H      -3.0916600000     5.1819100000   -11.6779300000
   65      O      -6.7454500000    -3.6113400000     1.3084300000
   66      H      -6.3508600000    -3.9541000000     2.1228100000
   67      H      -7.4828400000    -3.0708600000     1.6142300000
   68      O      -1.8769700000     5.5029200000    -6.5536500000
   69      H      -2.0485900000     6.3938200000    -6.1808500000
   70      H      -2.7468900000     5.2942500000    -7.0123900000
   71      O      -5.2266300000    -6.4255100000    -6.2555000000
   72      H      -5.9940200000    -6.7773200000    -5.8113200000
   73      H      -4.4911100000    -6.7720300000    -5.7551900000
   74      O       3.8322800000     0.9850800000    -3.5303000000
   75      H       3.0030000000     0.5453800000    -3.1251200000
   76      H       3.7046000000     1.8939600000    -3.3749200000
   77      O      -0.5404600000    -5.5762500000    -3.6670800000
   78      H      -1.4467900000    -5.5180100000    -3.5072900000
   79      H      -0.2834700000    -4.9319700000    -4.2882700000
   80      O       3.1857100000    -5.3211000000    -6.0835000000
   81      H       2.8153700000    -6.2217700000    -6.1246400000
   82      H       3.8468600000    -5.2522800000    -5.3953100000
   83      O       5.4222600000    -0.9360600000    -2.7550400000
   84      H       5.7178300000    -0.9674000000    -3.6661500000
   85      H       4.9767600000    -0.1059600000    -2.5829200000
   86      O      -8.3781900000     2.7251100000    -3.9527000000
   87      H      -9.1621100000     3.1357800000    -3.5986800000
   88      H      -7.7164500000     3.3971000000    -3.9756400000
   89      O       0.8527500000     2.4129000000     2.0195200000
   90      H       0.0730100000     2.4471000000     2.6031800000
   91      H       1.5251400000     2.5750800000     2.7163600000
   92      O      -3.0420800000     0.3276800000     3.8467700000
   93      H      -3.0797400000    -0.3586400000     3.1587200000
   94      H      -2.5656100000     0.1114800000     4.5783500000
   95      O       1.3350600000    -5.5925500000    -1.3106000000
   96      H       0.7314200000    -5.6771100000    -2.0124000000
   97      H       1.6248100000    -6.4555700000    -1.1324100000
   98      O      -3.6194400000     0.1754900000   -11.2383100000
   99      H      -2.9142400000     0.8051000000   -11.2834500000
  100      H      -3.2124700000    -0.5970200000   -10.9349300000
  101      O       3.6159900000     3.6376100000    -2.9311600000
  102      H       4.2476300000     4.3856000000    -2.9300800000
  103      H       2.8240200000     3.9902800000    -2.6265200000
  104      O       5.1061800000     0.4197400000    -6.0305400000
  105      H       4.3270500000     0.6118500000    -5.4956800000
  106      H       5.8786900000     0.7040500000    -5.4756900000
  107      O       4.2131900000    -1.6890400000     0.1868800000
  108      H       4.9169200000    -2.3089200000     0.0669700000
  109      H       3.6214000000    -1.7668600000    -0.6254100000
  110      O      -0.5303200000    -4.9766900000     2.6774700000
  111      H      -1.3146300000    -4.5265900000     2.8170400000
  112      H      -0.3461700000    -4.6372900000     1.7949400000
  113      O      -3.0908700000    -4.3634900000     1.8474400000
  114      H      -3.5149100000    -4.8241000000     2.5755700000
  115      H      -2.9843700000    -5.0432700000     1.1801100000
  116      O      -7.9634400000     0.1323100000    -5.1475400000
  117      H      -7.5087800000    -0.1558100000    -5.9302700000
  118      H      -7.7767800000     1.1180900000    -4.9278400000
  119      O     -10.0704000000    -1.5893900000    -2.2401300000
  120      H     -10.3079100000    -1.5699200000    -1.2944100000
  121      H      -9.5119100000    -2.3314300000    -2.3521800000
  122      O      -5.9926300000    -6.9265100000    -2.5954900000
  123      H      -6.0275500000    -7.7313500000    -2.0638300000
  124      H      -6.1546700000    -6.2390000000    -1.9285600000
  125      O      -8.8891800000     4.5324500000    -0.7476100000
  126      H      -9.0855900000     3.9497400000    -0.0452100000
  127      H      -8.5194200000     5.3645600000    -0.3204600000
  128      O      -6.7678700000    -2.2222200000    -4.1927200000
  129      H      -7.4216700000    -2.6813500000    -3.7016300000
  130      H      -7.1817200000    -1.3486300000    -4.2479000000
  131      O     -10.5182600000     4.8084400000    -5.9887200000
  132      H     -10.1513200000     3.9192700000    -6.1505000000
  133      H     -10.5950800000     4.9269700000    -5.0340100000
  134      O       0.5627000000     4.8734700000    -7.6655200000
  135      H       1.0330600000     5.6975600000    -7.8653400000
  136      H      -0.3001100000     5.0393700000    -7.2940100000
  137      O       0.1359000000     7.2075500000    -4.0313600000
  138      H      -0.2295900000     7.1152800000    -3.1816400000
  139      H       0.0423500000     6.3902700000    -4.5144900000
  140      O      -2.4939800000    -5.8946100000    -0.6237500000
  141      H      -2.0261300000    -6.6881000000    -0.3127900000
  142      H      -2.7623100000    -5.9287400000    -1.5633800000
  143      O       1.7164700000     2.9158700000    -5.9748100000
  144      H       2.0586400000     2.0364700000    -6.3030700000
  145      H       1.5356300000     3.4290200000    -6.7791800000
  146      O      -0.3909000000     3.3012900000    -9.9623100000
  147      H      -0.2583200000     3.6970800000    -9.0996300000
  148      H      -0.8288200000     2.4768700000    -9.8456600000
  149      O      -0.2468600000     0.1115600000    -0.9127300000
  150      H      -1.0027600000     0.1455700000    -1.4082600000
  151      H       0.3280300000     0.9057500000    -1.0790500000
  152      O      -8.3098000000    -2.1754400000    -9.0114600000
  153      H      -9.0931300000    -2.7027500000    -8.9417700000
  154      H      -7.6148600000    -2.7417900000    -9.3267800000
  155      O      -1.9469200000    -6.5557400000    -8.6480500000
  156      H      -1.5257200000    -7.3458500000    -8.2380400000
  157      H      -1.8670300000    -5.9031700000    -8.0120500000
  158      O       0.7258700000     1.0176200000    -3.5657500000
  159      H       0.6975500000     1.8075900000    -4.1068700000
  160      H       0.2234600000     0.2329900000    -3.9052100000
  161      O      -3.0723500000     2.7238500000     0.6703000000
  162      H      -2.3687500000     2.5003000000     1.3616900000
  163      H      -3.2228300000     1.8649100000     0.1885400000
  164      O     -11.1473000000     2.7812900000    -4.0268800000
  165      H     -10.9455800000     2.1548500000    -4.8206900000
  166      H     -11.8855000000     3.3429000000    -4.3335900000
  167      O      -4.8162300000     8.5243900000    -6.4710900000
  168      H      -4.0011600000     8.2441700000    -5.9979800000
  169      H      -4.5216600000     9.0458900000    -7.2113000000
  170      O      -4.3751000000     5.0869800000    -8.0483600000
  171      H      -4.6511100000     4.2126100000    -8.4284200000
  172      H      -4.1151600000     5.7336800000    -8.7301900000
  173      O      -3.8648000000     6.4850000000    -2.8295400000
  174      H      -4.1537300000     7.3735100000    -2.6131500000
  175      H      -3.6068300000     6.0794900000    -2.0365900000
  176      O      -7.2273600000    -5.0735000000    -0.9601600000
  177      H      -7.0937400000    -4.4714800000    -0.1930200000
  178      H      -7.4352800000    -5.8871700000    -0.5464500000
  179      O      -1.0346100000    -1.2871600000   -13.1597400000
  180      H      -0.0841400000    -1.3599300000   -13.0060000000
  181      H      -1.4551900000    -2.1005900000   -12.9383500000
  182      O       5.3141900000    -2.2267200000    -6.6634500000
  183      H       6.2504600000    -2.5387900000    -6.5297800000
  184      H       5.2839000000    -1.2666800000    -6.5373500000
  185      O      -2.3661100000     7.7735300000    -5.2201400000
  186      H      -2.0060600000     8.6465400000    -5.0503800000
  187      H      -2.5059700000     7.3833500000    -4.3627700000
  188      O      -8.4897600000    -3.7872500000    -2.9545300000
  189      H      -9.0092800000    -4.2986600000    -3.5570600000
  190      H      -8.0816700000    -4.3609100000    -2.2650800000
  191      O      -3.1933500000     7.5997800000    -9.2450600000
  192      H      -3.3958000000     8.3436600000    -8.5621800000
  193      H      -3.7490800000     7.8774000000    -9.9370800000
  194      O      -0.6202000000     4.1265600000    -4.5224700000
  195      H      -1.2142000000     4.5096200000    -5.2365100000
  196      H       0.1386500000     3.7743100000    -5.0776300000
  197      O     -10.9347500000    -2.5133200000    -5.3462700000
  198      H     -11.3129100000    -3.3411300000    -5.2007700000
  199      H     -10.6819100000    -2.1773200000    -4.4749100000
  200      O       0.1416300000    -2.8957900000    -9.1269900000
  201      H       0.7544600000    -3.3101000000    -9.7354200000
  202      H       0.7228300000    -2.3255400000    -8.6208200000
  203      O       1.7055400000     7.2128000000    -8.7027800000
  204      H       1.9223200000     6.6889000000    -9.4906000000
  205      H       1.9792700000     8.1374900000    -8.8627900000
  206      O      -6.4898100000     6.3897600000    -6.6090100000
  207      H      -5.7931000000     7.0768200000    -6.5442300000
  208      H      -6.0229700000     5.5884800000    -6.9214900000
  209      O      -3.0716900000    -8.0484200000    -2.5521800000
  210      H      -3.7484400000    -8.7047400000    -2.4518900000
  211      H      -2.4202800000    -8.2938600000    -1.8532800000
  212      O      -7.8519000000     8.4034400000    -2.1413200000
  213      H      -7.6455700000     7.5244200000    -2.4392600000
  214      H      -8.6285200000     8.7313500000    -2.5548700000
  215      O       2.2096200000    -0.9418200000    -2.1343700000
  216      H       1.4888000000    -0.5899900000    -1.5542500000
  217      H       1.8741500000    -1.7017600000    -2.6653500000
  218      O      -3.6537300000    -3.4023500000    -5.9186400000
  219      H      -2.9230700000    -3.7071600000    -6.4293000000
  220      H      -3.6939200000    -3.9551000000    -5.1363700000
  221      O      -6.8994400000    -0.3336200000    -7.5391500000
  222      H      -7.5192800000    -0.9604100000    -7.8714100000
  223      H      -6.0557100000    -0.7207000000    -7.7274000000
  224      O       3.2543300000    -3.8224400000    -1.6759500000
  225      H       2.5108500000    -4.4234900000    -1.8707500000
  226      H       3.6059700000    -3.5199200000    -2.4850500000
  227      O      -6.2584900000    -0.9019400000    -0.3492200000
  228      H      -6.5967800000    -0.1531000000     0.1273600000
  229      H      -6.4660600000    -1.6612200000     0.2097800000
  230      O      -1.3335200000    -4.4831800000    -7.1791700000
  231      H      -0.5320200000    -4.2028700000    -6.6562100000
  232      H      -1.3389400000    -3.9275100000    -7.9731800000
  233      O      -9.9140800000     2.6878300000    -7.8651900000
  234      H      -8.9443500000     2.5987900000    -8.1403600000
  235      H     -10.3951600000     3.4418200000    -8.3051200000
  236      O      -0.4550000000    -4.1432000000     0.0632800000
  237      H      -1.2180000000    -4.6431500000    -0.2977000000
  238      H       0.3373600000    -4.4612600000    -0.3915200000
  239      O       1.1910500000     4.4385200000    -2.3299900000
  240      H       1.2752500000     5.3544100000    -2.0128500000
  241      H       0.3853400000     4.3692500000    -2.8276000000
  242      O      -6.5033300000    -3.7197500000    -6.5855700000
  243      H      -6.2383300000    -3.1883800000    -5.8350700000
  244      H      -5.9069700000    -4.4352500000    -6.6251700000
  245      O      -1.6005200000     2.5069000000     3.0876200000
  246      H      -1.8457600000     3.4538600000     3.2374600000
  247      H      -2.2902900000     1.8587900000     3.3661200000
  248      O      -5.3832500000     8.6782200000    -1.2373600000
  249      H      -6.1897600000     8.8155300000    -1.6898500000
  250      H      -4.8672600000     9.4644400000    -1.5052100000
  251      O      -9.1355200000     6.9424100000    -7.3458000000
  252      H      -9.5907500000     6.2819200000    -6.8233100000
  253      H      -8.1996900000     6.8580200000    -7.0692300000
  254      O      -4.6198600000    -2.1948600000    -8.4027700000
  255      H      -4.4941400000    -2.7366600000    -7.6513700000
  256      H      -3.7248000000    -1.7538100000    -8.6787800000
  257      O       4.0665900000     0.3921300000    -8.6034800000
  258      H       4.7135400000     0.1459800000    -9.3604000000
  259      H       4.5782300000     0.3773400000    -7.8705900000
  260      O       0.7904300000    -3.7850100000    -5.6342300000
  261      H       1.7095300000    -4.0631400000    -5.6414700000
  262      H       0.6152800000    -2.9464300000    -5.2331400000
  263      O       1.8353900000    -8.2971000000    -1.0860500000
  264      H       2.0114400000    -8.9066500000    -0.3725200000
  265      H       2.3106500000    -8.6142100000    -1.8692200000
  266      O      -0.9746800000     7.2134700000    -1.2374600000
  267      H      -0.1009400000     7.0946500000    -0.7715400000
  268      H      -1.5687600000     6.5859000000    -0.8635000000
  269      O      -5.3726800000     3.0625000000   -10.4437100000
  270      H      -4.9928800000     3.7380800000   -10.9897100000
  271      H      -4.8679500000     2.2846600000   -10.7573200000
  272      O      -5.4278100000     6.7734500000     0.7415700000
  273      H      -4.7934100000     7.0218200000     1.4144200000
  274      H      -5.4655000000     7.5406700000     0.1324800000
  275      O      -4.6676700000    -2.5067600000    -2.4332900000
  276      H      -4.6800000000    -1.8721600000    -1.6987900000
  277      H      -5.4983300000    -2.3748700000    -2.9264300000
  278      O      -2.9294000000     5.3885500000    -0.5627100000
  279      H      -3.4154500000     5.5121800000     0.2721800000
  280      H      -2.7603200000     4.4856500000    -0.6915100000
  281      O       1.7301700000     2.1589300000    -0.6115900000
  282      H       1.5351600000     2.3720100000     0.3246800000
  283      H       1.6831400000     3.0622200000    -1.1031000000
  284      O      -7.2045400000     2.3165900000    -8.5170600000
  285      H      -6.4180200000     2.4556400000    -8.9866200000
  286      H      -7.0110600000     1.4277600000    -8.1139300000
  287      O      -1.2954800000     5.3796800000   -11.6933600000
  288      H      -0.9735000000     4.5689000000   -11.1420200000
  289      H      -0.6071400000     5.8945700000   -12.1068200000
  290      O      -9.4098900000     5.3820000000    -3.2012500000
  291      H      -8.4601800000     5.2151500000    -3.4278000000
  292      H      -9.4857700000     5.2073600000    -2.2884400000
  293      O       1.6511600000    -7.6711000000    -5.3707200000
  294      H       2.2852600000    -8.0438900000    -5.8999000000
  295      H       1.8312400000    -7.9176000000    -4.4674200000
  296      O      -5.1967900000    -0.5425500000   -13.4229800000
  297      H      -5.5194400000     0.3117500000   -13.7823100000
  298      H      -4.5633100000    -0.4212200000   -12.6907200000
  299      O       3.7008700000    -2.6010300000    -4.2601500000
  300      H       3.9019500000    -1.7510300000    -3.8749900000
  301      H       4.1259800000    -2.6586400000    -5.1008300000
  302      O      -5.5015000000     3.8819500000     0.9767500000
  303      H      -5.5085500000     4.7761700000     0.5911700000
  304      H      -4.6689500000     3.4574700000     0.7924900000
  305      O      -3.5062400000    -5.1159700000    -3.4842400000
  306      H      -3.8872600000    -4.5634600000    -2.7819100000
  307      H      -4.0272100000    -5.9000900000    -3.5207900000
  308      O      -0.1871400000     0.6806800000    -8.3306500000
  309      H       0.4563500000     1.1984200000    -8.8938500000
  310      H       0.4382300000     0.4226900000    -7.5687500000
  311      O      -1.6397600000     3.5392400000   -13.9885400000
  312      H      -1.7890300000     4.4412400000   -13.7354600000
  313      H      -0.6586700000     3.4490100000   -14.2032600000
  314      O      -9.0262300000    -4.1107400000    -6.4826700000
  315      H      -9.1411000000    -3.3813300000    -5.8682900000
  316      H      -8.0546700000    -4.1561000000    -6.6450900000
  317      O      -2.0081500000    -1.2434500000    -9.2881000000
  318      H      -1.5461900000    -2.0564400000    -9.1399800000
  319      H      -1.4834800000    -0.5261700000    -8.9735100000
  320      O      -8.9762100000     1.0912200000    -1.4969500000
  321      H      -9.2918300000     0.2086800000    -1.7896200000
  322      H      -8.5222900000     1.3762100000    -2.3351000000
  323      O     -11.6695700000     1.8598000000    -0.9644100000
  324      H     -11.8861600000     1.6623800000    -0.0607000000
  325      H     -10.7661400000     1.5742800000    -1.1271700000
  326      O      -8.2337300000    -0.1082800000   -11.0638800000
  327      H      -8.3112000000    -0.9727300000   -11.3861300000
  328      H      -8.6523100000    -0.1224600000   -10.1810300000
  329      O      -0.6305900000    -8.4221800000    -6.6283400000
  330      H      -1.3398500000    -8.1381300000    -6.0724700000
  331      H       0.1569800000    -7.9474500000    -6.3211400000
  332      O      -3.3076100000     0.1569800000    -0.1163000000
  333      H      -4.1806000000    -0.0279600000    -0.3993200000
  334      H      -3.2139900000    -0.4899400000     0.5714500000
  335      O      -7.9238600000     2.4516300000   -11.9350900000
  336      H      -7.4158900000     2.4980000000   -11.1080300000
  337      H      -7.8948600000     1.5197100000   -12.1564700000
  338      O      -1.0513000000    -8.2918000000    -0.4272000000
  339      H      -0.9619100000    -9.0969800000     0.0901700000
  340      H      -0.1666400000    -8.0998800000    -0.7680100000
  341      O       2.5899600000    -1.8538000000    -7.9466200000
  342      H       3.3040400000    -2.4647300000    -7.7028400000
  343      H       3.1000600000    -1.0706200000    -8.2476000000
 ----------------------------------------------------------------
 Nuclear Repulsion Energy =       42791.58598232 hartrees
 There are      570 alpha and      570 beta electrons
 Requested basis set is 6-31+G(d)
 There are 1034 shells and 2658 basis functions

 Total QAlloc Memory Limit  16000 MB
 Mega-Array Size      7821 MB
 MEM_STATIC part      8000 MB

 A cutoff of  1.0D-14 yielded 169771 shell pairs
 There are   1182654 function pairs
 Smallest overlap matrix eigenvalue = 1.21E-06

 Scale SEOQF with 1.000000e-02/1.000000e-02/1.000000e-02

 Standard Electronic Orientation quadrupole field applied
 Nucleus-field energy     =    -0.0000001986 hartrees
 Guess from superposition of atomic densities
 Warning:  Energy on first SCF cycle will be non-variational
 SAD guess density has 1140.000002 electrons

 -----------------------------------------------------------------------
  General SCF calculation program by
  Eric Jon Sundstrom, Paul Horn, Yuezhi Mao, Dmitri Zuev, Alec White,
  David Stuck, Shaama M.S., Shane Yost, Joonho Lee, David Small,
  Daniel Levine, Susi Lehtola, Hugh Burton, Evgeny Epifanovsky,
  Bang C. Huynh
 -----------------------------------------------------------------------
=================================================
        Doing projection-based embedding         
      F. Manby et al. JCTC, 8, 2564 (2012)       
=================================================

****************************************************
   Low-level SCF calculation for the whole system   
****************************************************
----------------------------------------------
 Summary of the low-level theory: 
 Exchange:     0.2000 Hartree-Fock + 0.0800 Slater + 0.7200 B88
 Correlation:  0.1900 VWN1RPA + 0.8100 LYP
 Using Euler-Maclaurin-Lebedev (75,302) quadrature formula
----------------------------------------------
 using 16 threads for integral computing
 -------------------------------------------------------
 OpenMP Integral computing Module                
 Release: version 1.0, May 2013, Q-Chem Inc. Pittsburgh 
 -------------------------------------------------------
 A restricted SCF calculation will be
 performed using DIIS
 SCF converges when DIIS error is below 1.0e-08
 ---------------------------------------
  Cycle       Energy         DIIS error
 ---------------------------------------
    1   -8584.7479020818      1.30e-02  
    2   -8576.9306214046      2.99e-03  
    3   -8567.5154050797      4.35e-03  
    4   -8582.2014995270      9.23e-04  
    5   -8582.7617519346      2.47e-04  
    6   -8582.8191959274      1.08e-04  
    7   -8582.8247335235      6.46e-05  
    8   -8582.8274732142      1.94e-05  
    9   -8582.8277078302      6.89e-06  
   10   -8582.8277382833      7.76e-07  
   11   -8582.8277386221      4.19e-07  
   12   -8582.8277387341      1.14e-07  
   13   -8582.8277387425      2.54e-08  
   14   -8582.8277387429      7.32e-09  Convergence criterion met
 ---------------------------------------
 SCF time:   CPU 140723.58s  wall 9321.00s 
 SCF   energy in the final basis set =    -8582.8277387429
 Total energy in the final basis set =    -8582.8277387429

****************************************************
             Start embedding calculation            
****************************************************
----------------------------------------------
 Summary of the high-level theory: 
 Exchange:     0.2000 Hartree-Fock + 0.0800 Slater + 0.7200 B88
 Correlation:  0.1900 VWN1RPA + 0.8100 LYP
 Using Euler-Maclaurin-Lebedev (75,302) quadrature formula
----------------------------------------------
Doing R-in-R Embedding Calculation
Number of fragments: 2
Embedded fragment(s): 1 
NOcc for each fragment
           35
          535
NBasis for each fragment
          197
         2461
Variational space of the embedded problem: 
NOcc (active)  = 35
NOcc (fixed)   = 535
NVir (total)   = 2088
Read converged orbitals from disk
=========================================================
       Doing SPADE partition for the orbital space       
     D. Claudino and N. Mayhall JCTC 15, 1053 (2019)     
=========================================================
SPADE singular values:
 1.0000 1.0000 1.0000 1.0000 1.0000 1.0000 1.0000 1.0000 1.0000 0.9999
 0.9999 0.9999 0.9998 0.9998 0.9997 0.9996 0.9995 0.9994 0.9991 0.9990
 0.9984 0.9982 0.9976 0.9975 0.9965 0.9960 0.9954 0.9947 0.9946 0.9944
 0.9931 0.9926 0.9897 0.9849 0.9798 0.2158 0.1797 0.1577 0.1532 0.1415
 0.1352 0.1260 0.1154 0.1073 0.0973 0.0920 0.0868 0.0796 0.0715 0.0666
 0.0577 0.0531 0.0450 0.0426 0.0401 0.0375 0.0359 0.0332 0.0317 0.0293
 0.0282 0.0271 0.0247 0.0238 0.0225 0.0218 0.0213 0.0201 0.0190 0.0184
 0.0179 0.0164 0.0146 0.0144 0.0140 0.0137 0.0125 0.0113 0.0107 0.0107
 0.0099 0.0090 0.0089 0.0085 0.0083 0.0082 0.0078 0.0072 0.0071 0.0068
 0.0067 0.0063 0.0059 0.0058 0.0053 0.0050 0.0049 0.0045 0.0035 0.0034
 0.0033 0.0032 0.0029 0.0028 0.0027 0.0026 0.0024 0.0023 0.0023 0.0022
 0.0022 0.0020 0.0020 0.0020 0.0018 0.0018 0.0017 0.0017 0.0016 0.0016
 0.0015 0.0014 0.0014 0.0013 0.0012 0.0012 0.0011 0.0011 0.0011 0.0011
 0.0010 0.0009 0.0009 0.0009 0.0008 0.0008 0.0008 0.0007 0.0007 0.0007
 0.0007 0.0006 0.0006 0.0006 0.0006 0.0005 0.0005 0.0005 0.0005 0.0004
 0.0004 0.0004 0.0004 0.0003 0.0003 0.0003 0.0003 0.0003 0.0003 0.0003
 0.0003 0.0003 0.0003 0.0003 0.0002 0.0002 0.0002 0.0002 0.0002 0.0002
 0.0002 0.0002 0.0002 0.0002 0.0002 0.0002 0.0002 0.0002 0.0001 0.0001
 0.0001 0.0001 0.0001 0.0001 0.0001 0.0001 0.0001 0.0001 0.0001 0.0001
 0.0001 0.0001 0.0001 0.0001 0.0001 0.0001 0.0001
Early stop requested; no embedded SCF will be performed

 535 environment occs will be part of frozen-core in future post-HF calculations

 --------------------------------------------------------------

                    Orbital Energies (a.u.)
 --------------------------------------------------------------

 Alpha MOs
 -- Occupied --
-19.2739 -19.2582 -19.2553 -19.2352 -19.2338 -19.2333 -19.2222 -19.2149
-19.2120 -19.2098 -19.2088 -19.2054 -19.2040 -19.2028 -19.1994 -19.1961
-19.1955 -19.1947 -19.1935 -19.1932 -19.1919 -19.1903 -19.1882 -19.1875
-19.1859 -19.1856 -19.1851 -19.1833 -19.1823 -19.1800 -19.1763 -19.1748
-19.1748 -19.1712 -19.1698 -19.1695 -19.1691 -19.1662 -19.1654 -19.1645
-19.1643 -19.1619 -19.1610 -19.1610 -19.1607 -19.1598 -19.1588 -19.1582
-19.1574 -19.1538 -19.1530 -19.1516 -19.1480 -19.1455 -19.1444 -19.1437
-19.1436 -19.1433 -19.1427 -19.1425 -19.1414 -19.1412 -19.1410 -19.1405
-19.1377 -19.1376 -19.1352 -19.1351 -19.1334 -19.1323 -19.1298 -19.1277
-19.1273 -19.1271 -19.1271 -19.1263 -19.1262 -19.1260 -19.1238 -19.1236
-19.1233 -19.1222 -19.1203 -19.1201 -19.1167 -19.1165 -19.1143 -19.1124
-19.1093 -19.1089 -19.1083 -19.1041 -19.1035 -19.1018 -19.0947 -19.0940
-19.0920 -19.0899 -19.0881 -19.0857 -19.0816 -19.0795 -19.0766 -19.0720
-19.0684 -19.0582 -19.0496  -1.1318  -1.1167  -1.1159  -1.1132  -1.1006
 -1.0931  -1.0918  -1.0779  -1.0760  -1.0751  -1.0679  -1.0658  -1.0646
 -1.0630  -1.0593  -1.0558  -1.0555  -1.0545  -1.0521  -1.0511  -1.0498
 -1.0496  -1.0493  -1.0491  -1.0487  -1.0476  -1.0463  -1.0462  -1.0459
 -1.0445  -1.0419  -1.0407  -1.0381  -1.0345  -1.0342  -1.0302  -1.0298
 -1.0291  -1.0289  -1.0273  -1.0270  -1.0265  -1.0249  -1.0233  -1.0225
 -1.0222  -1.0218  -1.0190  -1.0185  -1.0161  -1.0152  -1.0148  -1.0144
 -1.0134  -1.0107  -1.0091  -1.0090  -1.0081  -1.0076  -1.0052  -1.0028
 -1.0026  -1.0020  -0.9997  -0.9974  -0.9970  -0.9943  -0.9940  -0.9930
 -0.9921  -0.9912  -0.9905  -0.9878  -0.9873  -0.9857  -0.9852  -0.9843
 -0.9819  -0.9817  -0.9794  -0.9792  -0.9789  -0.9779  -0.9758  -0.9742
 -0.9734  -0.9731  -0.9727  -0.9709  -0.9689  -0.9632  -0.9603  -0.9589
 -0.9571  -0.9558  -0.9526  -0.9518  -0.9499  -0.9488  -0.9398  -0.9366
 -0.9272  -0.9258  -0.9231  -0.9166  -0.9147  -0.9081  -0.6557  -0.6406
 -0.6335  -0.6311  -0.6193  -0.6099  -0.6082  -0.6051  -0.5980  -0.5919
 -0.5906  -0.5887  -0.5870  -0.5865  -0.5859  -0.5852  -0.5834  -0.5806
 -0.5802  -0.5795  -0.5794  -0.5794  -0.5782  -0.5778  -0.5770  -0.5764
 -0.5761  -0.5738  -0.5733  -0.5717  -0.5715  -0.5708  -0.5665  -0.5663
 -0.5651  -0.5578  -0.5572  -0.5553  -0.5545  -0.5543  -0.5540  -0.5529
 -0.5518  -0.5502  -0.5490  -0.5483  -0.5479  -0.5467  -0.5461  -0.5443
 -0.5440  -0.5433  -0.5426  -0.5385  -0.5382  -0.5348  -0.5335  -0.5329
 -0.5319  -0.5314  -0.5287  -0.5274  -0.5264  -0.5257  -0.5251  -0.5238
 -0.5233  -0.5231  -0.5216  -0.5213  -0.5193  -0.5190  -0.5177  -0.5128
 -0.5115  -0.5110  -0.5108  -0.5106  -0.5102  -0.5080  -0.5074  -0.5068
 -0.5064  -0.5059  -0.5044  -0.5035  -0.5023  -0.5008  -0.4999  -0.4996
 -0.4983  -0.4976  -0.4967  -0.4957  -0.4950  -0.4937  -0.4826  -0.4819
 -0.4809  -0.4805  -0.4794  -0.4784  -0.4781  -0.4760  -0.4715  -0.4708
 -0.4686  -0.4665  -0.4635  -0.4614  -0.4608  -0.4601  -0.4586  -0.4551
 -0.4528  -0.4512  -0.4453  -0.4453  -0.4417  -0.4416  -0.4408  -0.4392
 -0.4389  -0.4385  -0.4378  -0.4366  -0.4346  -0.4343  -0.4331  -0.4311
 -0.4308  -0.4289  -0.4287  -0.4266  -0.4255  -0.4242  -0.4241  -0.4239
 -0.4192  -0.4176  -0.4172  -0.4161  -0.4155  -0.4131  -0.4128  -0.4125
 -0.4109  -0.4106  -0.4101  -0.4099  -0.4097  -0.4070  -0.4064  -0.4051
 -0.4039  -0.4032  -0.4027  -0.4013  -0.4000  -0.3997  -0.3985  -0.3977
 -0.3967  -0.3960  -0.3948  -0.3942  -0.3930  -0.3915  -0.3901  -0.3889
 -0.3885  -0.3876  -0.3863  -0.3852  -0.3847  -0.3839  -0.3820  -0.3807
 -0.3799  -0.3790  -0.3782  -0.3761  -0.3753  -0.3736  -0.3727  -0.3722
 -0.3714  -0.3705  -0.3701  -0.3691  -0.3682  -0.3657  -0.3645  -0.3642
 -0.3628  -0.3622  -0.3608  -0.3598  -0.3595  -0.3590  -0.3582  -0.3578
 -0.3572  -0.3570  -0.3556  -0.3550  -0.3538  -0.3525  -0.3519  -0.3517
 -0.3512  -0.3505  -0.3502  -0.3496  -0.3486  -0.3477  -0.3463  -0.3458
 -0.3446  -0.3440  -0.3425  -0.3424  -0.3414  -0.3403  -0.3395  -0.3391
 -0.3389  -0.3373  -0.3372  -0.3368  -0.3365  -0.3358  -0.3356  -0.3352
 -0.3342  -0.3318  -0.3317  -0.3305  -0.3292  -0.3285  -0.3280  -0.3278
 -0.3269  -0.3267  -0.3255  -0.3244  -0.3241  -0.3233  -0.3228  -0.3219
 -0.3215  -0.3202  -0.3196  -0.3187  -0.3183  -0.3182  -0.3165  -0.3156
 -0.3134  -0.3123  -0.3091  -0.3090  -0.3073  -0.3068  -0.3061  -0.3058
 -0.3051  -0.3029  -0.3028  -0.3017  -0.3013  -0.3006  -0.3002  -0.2997
 -0.2990  -0.2989  -0.2976  -0.2967  -0.2957  -0.2942  -0.2934  -0.2906
 -0.2901  -0.2900  -0.2898  -0.2884  -0.2870  -0.2857  -0.2854  -0.2854
 -0.2846  -0.2846  -0.2835  -0.2834  -0.2829  -0.2805  -0.2800  -0.2772
 -0.2770  -0.2761  -0.2742  -0.2738  -0.2711  -0.2696  -0.2659  -0.2630
 -0.2628  -0.2604  -0.2551  -0.2532  -0.2530  -0.2490  -0.2469  -0.2446
 -0.2433  -0.2321  -0.2295  -0.2279  -0.2254  -0.2142  -0.2119 -10.2240
-10.2541 -10.3656 -10.1832 -13.2654 -11.9648 -12.4256 -11.9382 -13.3345
 -0.5752  -0.8573  -0.8057  -0.6545  -0.7472  -0.7079  -0.8381  -1.0657
 -0.4055  -0.5036  -0.3955  -0.4500  -0.4758  -0.4358  -0.4335  -0.3766
 -0.4128  -0.4160  -0.3749  -0.4181  -0.3503  -0.3965  -0.4503  -0.3215
 -0.5277  -0.3617
 -- Virtual --
 -0.0865  -0.0688  -0.0529  -0.0463  -0.0449  -0.0398  -0.0357  -0.0254
 -0.0243  -0.0190  -0.0131  -0.0115  -0.0081  -0.0066  -0.0049  -0.0029
 -0.0015   0.0027   0.0068   0.0100   0.0107   0.0119   0.0167   0.0179
  0.0182   0.0196   0.0240   0.0244   0.0285   0.0312   0.0330   0.0335
  0.0356   0.0369   0.0397   0.0407   0.0433   0.0451   0.0465   0.0477
  0.0496   0.0499   0.0519   0.0536   0.0543   0.0582   0.0583   0.0602
  0.0632   0.0649   0.0655   0.0667   0.0685   0.0712   0.0716   0.0723
  0.0741   0.0760   0.0765   0.0776   0.0784   0.0803   0.0810   0.0816
  0.0822   0.0834   0.0855   0.0865   0.0877   0.0882   0.0891   0.0910
  0.0917   0.0930   0.0935   0.0952   0.0962   0.0968   0.0980   0.0991
  0.0998   0.1014   0.1018   0.1036   0.1044   0.1061   0.1069   0.1082
  0.1087   0.1097   0.1107   0.1109   0.1114   0.1120   0.1136   0.1139
  0.1144   0.1172   0.1182   0.1187   0.1192   0.1200   0.1206   0.1224
  0.1226   0.1236   0.1239   0.1251   0.1258   0.1271   0.1275   0.1291
  0.1298   0.1304   0.1310   0.1317   0.1335   0.1344   0.1350   0.1353
  0.1367   0.1370   0.1379   0.1387   0.1389   0.1404   0.1413   0.1415
  0.1423   0.1427   0.1435   0.1454   0.1470   0.1479   0.1480   0.1484
  0.1496   0.1500   0.1511   0.1516   0.1528   0.1535   0.1544   0.1549
  0.1553   0.1560   0.1567   0.1574   0.1585   0.1594   0.1597   0.1607
  0.1620   0.1627   0.1629   0.1636   0.1642   0.1647   0.1656   0.1666
  0.1673   0.1682   0.1688   0.1693   0.1704   0.1712   0.1715   0.1720
  0.1730   0.1736   0.1747   0.1757   0.1765   0.1769   0.1773   0.1775
  0.1791   0.1799   0.1802   0.1806   0.1815   0.1817   0.1825   0.1833
  0.1834   0.1843   0.1850   0.1855   0.1861   0.1868   0.1869   0.1876
  0.1891   0.1900   0.1907   0.1910   0.1918   0.1923   0.1928   0.1935
  0.1943   0.1949   0.1953   0.1962   0.1972   0.1978   0.1980   0.1986
  0.1993   0.1998   0.2000   0.2007   0.2011   0.2015   0.2028   0.2039
  0.2043   0.2048   0.2052   0.2060   0.2073   0.2078   0.2087   0.2096
  0.2099   0.2109   0.2112   0.2118   0.2121   0.2129   0.2136   0.2139
  0.2144   0.2156   0.2159   0.2167   0.2179   0.2181   0.2191   0.2196
  0.2206   0.2207   0.2218   0.2227   0.2233   0.2234   0.2242   0.2246
  0.2251   0.2258   0.2261   0.2268   0.2273   0.2286   0.2288   0.2289
  0.2302   0.2308   0.2312   0.2322   0.2327   0.2332   0.2338   0.2343
  0.2345   0.2352   0.2356   0.2366   0.2371   0.2378   0.2381   0.2392
  0.2403   0.2411   0.2413   0.2416   0.2429   0.2432   0.2441   0.2445
  0.2451   0.2452   0.2455   0.2464   0.2470   0.2475   0.2477   0.2484
  0.2492   0.2500   0.2501   0.2506   0.2510   0.2519   0.2522   0.2530
  0.2538   0.2549   0.2552   0.2556   0.2564   0.2570   0.2573   0.2585
  0.2590   0.2594   0.2598   0.2601   0.2613   0.2621   0.2623   0.2627
  0.2634   0.2644   0.2645   0.2658   0.2659   0.2661   0.2669   0.2671
  0.2677   0.2683   0.2688   0.2698   0.2699   0.2710   0.2711   0.2714
  0.2719   0.2725   0.2729   0.2736   0.2744   0.2749   0.2755   0.2761
  0.2768   0.2772   0.2784   0.2791   0.2798   0.2800   0.2804   0.2807
  0.2813   0.2821   0.2829   0.2836   0.2844   0.2852   0.2861   0.2867
  0.2872   0.2875   0.2890   0.2896   0.2899   0.2903   0.2909   0.2916
  0.2920   0.2926   0.2929   0.2936   0.2942   0.2944   0.2947   0.2953
  0.2957   0.2968   0.2975   0.2985   0.2987   0.2996   0.3000   0.3006
  0.3017   0.3027   0.3028   0.3030   0.3037   0.3045   0.3052   0.3063
  0.3066   0.3069   0.3079   0.3081   0.3096   0.3105   0.3107   0.3115
  0.3121   0.3123   0.3130   0.3136   0.3145   0.3152   0.3155   0.3157
  0.3166   0.3177   0.3182   0.3190   0.3194   0.3201   0.3206   0.3211
  0.3222   0.3225   0.3236   0.3241   0.3249   0.3262   0.3266   0.3273
  0.3281   0.3282   0.3295   0.3305   0.3307   0.3313   0.3324   0.3329
  0.3336   0.3346   0.3355   0.3361   0.3368   0.3373   0.3379   0.3387
  0.3393   0.3401   0.3402   0.3414   0.3421   0.3429   0.3433   0.3439
  0.3441   0.3450   0.3467   0.3476   0.3478   0.3485   0.3501   0.3507
  0.3511   0.3522   0.3527   0.3536   0.3542   0.3554   0.3561   0.3566
  0.3575   0.3586   0.3592   0.3594   0.3607   0.3612   0.3612   0.3617
  0.3626   0.3632   0.3643   0.3650   0.3665   0.3676   0.3679   0.3682
  0.3693   0.3703   0.3705   0.3716   0.3722   0.3729   0.3735   0.3751
  0.3754   0.3759   0.3778   0.3782   0.3795   0.3799   0.3814   0.3825
  0.3833   0.3840   0.3850   0.3859   0.3866   0.3873   0.3880   0.3898
  0.3905   0.3916   0.3931   0.3937   0.3948   0.3951   0.3953   0.3970
  0.3979   0.3987   0.3995   0.4003   0.4011   0.4020   0.4031   0.4039
  0.4046   0.4049   0.4065   0.4071   0.4078   0.4084   0.4098   0.4103
  0.4109   0.4127   0.4139   0.4149   0.4151   0.4167   0.4176   0.4182
  0.4190   0.4195   0.4208   0.4212   0.4217   0.4236   0.4244   0.4265
  0.4275   0.4290   0.4299   0.4304   0.4323   0.4326   0.4329   0.4349
  0.4354   0.4375   0.4385   0.4393   0.4399   0.4412   0.4417   0.4436
  0.4446   0.4452   0.4454   0.4481   0.4493   0.4507   0.4511   0.4525
  0.4537   0.4552   0.4563   0.4569   0.4584   0.4606   0.4612   0.4622
  0.4641   0.4645   0.4667   0.4682   0.4696   0.4703   0.4711   0.4722
  0.4732   0.4751   0.4767   0.4775   0.4797   0.4800   0.4805   0.4824
  0.4837   0.4853   0.4856   0.4874   0.4888   0.4903   0.4914   0.4917
  0.4935   0.4949   0.4978   0.4993   0.4995   0.5007   0.5013   0.5029
  0.5050   0.5073   0.5077   0.5090   0.5109   0.5116   0.5120   0.5136
  0.5154   0.5157   0.5169   0.5178   0.5196   0.5208   0.5217   0.5237
  0.5246   0.5259   0.5281   0.5296   0.5311   0.5328   0.5347   0.5361
  0.5364   0.5371   0.5383   0.5389   0.5405   0.5426   0.5440   0.5445
  0.5468   0.5487   0.5491   0.5519   0.5520   0.5540   0.5581   0.5596
  0.5608   0.5617   0.5622   0.5642   0.5666   0.5692   0.5710   0.5719
  0.5729   0.5738   0.5772   0.5786   0.5796   0.5805   0.5822   0.5852
  0.5889   0.5900   0.5901   0.5925   0.5929   0.5966   0.5978   0.6013
  0.6024   0.6064   0.6079   0.6105   0.6125   0.6137   0.6158   0.6184
  0.6200   0.6237   0.6251   0.6285   0.6300   0.6332   0.6356   0.6368
  0.6404   0.6409   0.6435   0.6487   0.6501   0.6545   0.6559   0.6573
  0.6599   0.6636   0.6664   0.6715   0.6786   0.6800   0.6875   0.6886
  0.6967   0.7030   0.7151   0.7185   0.7308   0.8030   0.8296   0.8537
  0.8690   0.8811   0.8861   0.8951   0.8983   0.9068   0.9183   0.9286
  0.9326   0.9342   0.9376   0.9422   0.9446   0.9473   0.9508   0.9520
  0.9533   0.9569   0.9596   0.9643   0.9663   0.9673   0.9722   0.9737
  0.9774   0.9799   0.9844   0.9865   0.9891   0.9902   0.9919   0.9937
  0.9945   0.9958   1.0005   1.0027   1.0035   1.0050   1.0066   1.0084
  1.0099   1.0112   1.0141   1.0149   1.0157   1.0175   1.0190   1.0190
  1.0221   1.0230   1.0274   1.0277   1.0310   1.0321   1.0327   1.0356
  1.0375   1.0384   1.0389   1.0420   1.0431   1.0449   1.0454   1.0460
  1.0474   1.0505   1.0508   1.0514   1.0527   1.0535   1.0543   1.0548
  1.0564   1.0579   1.0584   1.0590   1.0609   1.0613   1.0631   1.0641
  1.0650   1.0670   1.0674   1.0680   1.0691   1.0703   1.0720   1.0724
  1.0732   1.0736   1.0751   1.0761   1.0770   1.0775   1.0778   1.0798
  1.0803   1.0812   1.0815   1.0822   1.0847   1.0848   1.0859   1.0871
  1.0886   1.0898   1.0910   1.0915   1.0935   1.0941   1.0946   1.0957
  1.0966   1.0972   1.0976   1.0985   1.0995   1.1004   1.1016   1.1026
  1.1032   1.1043   1.1047   1.1057   1.1073   1.1075   1.1087   1.1089
  1.1096   1.1100   1.1115   1.1127   1.1139   1.1149   1.1154   1.1164
  1.1169   1.1185   1.1194   1.1205   1.1210   1.1219   1.1232   1.1240
  1.1242   1.1246   1.1258   1.1271   1.1279   1.1285   1.1289   1.1290
  1.1297   1.1307   1.1316   1.1326   1.1331   1.1347   1.1355   1.1360
  1.1372   1.1377   1.1389   1.1406   1.1408   1.1424   1.1429   1.1439
  1.1443   1.1455   1.1459   1.1463   1.1473   1.1478   1.1488   1.1493
  1.1505   1.1508   1.1517   1.1521   1.1523   1.1537   1.1545   1.1556
  1.1560   1.1566   1.1583   1.1594   1.1605   1.1607   1.1620   1.1623
  1.1631   1.1643   1.1654   1.1659   1.1669   1.1680   1.1685   1.1691
  1.1703   1.1707   1.1714   1.1721   1.1731   1.1744   1.1747   1.1754
  1.1760   1.1769   1.1784   1.1786   1.1799   1.1807   1.1815   1.1821
  1.1827   1.1834   1.1839   1.1846   1.1860   1.1870   1.1873   1.1874
  1.1898   1.1901   1.1909   1.1918   1.1921   1.1934   1.1938   1.1942
  1.1955   1.1956   1.1970   1.1977   1.1984   1.1990   1.1996   1.2018
  1.2034   1.2039   1.2048   1.2050   1.2060   1.2061   1.2067   1.2072
  1.2083   1.2096   1.2106   1.2108   1.2112   1.2123   1.2124   1.2137
  1.2140   1.2152   1.2157   1.2164   1.2172   1.2175   1.2189   1.2191
  1.2202   1.2207   1.2212   1.2224   1.2232   1.2248   1.2253   1.2260
  1.2267   1.2276   1.2291   1.2292   1.2299   1.2303   1.2307   1.2318
  1.2322   1.2325   1.2339   1.2347   1.2357   1.2365   1.2377   1.2384
  1.2391   1.2392   1.2404   1.2406   1.2415   1.2424   1.2427   1.2432
  1.2445   1.2451   1.2466   1.2475   1.2476   1.2483   1.2492   1.2496
  1.2505   1.2510   1.2525   1.2531   1.2543   1.2546   1.2558   1.2570
  1.2578   1.2586   1.2588   1.2594   1.2602   1.2615   1.2629   1.2641
  1.2648   1.2650   1.2666   1.2668   1.2675   1.2683   1.2688   1.2704
  1.2713   1.2718   1.2723   1.2731   1.2747   1.2755   1.2766   1.2771
  1.2775   1.2780   1.2785   1.2795   1.2805   1.2820   1.2827   1.2829
  1.2843   1.2850   1.2853   1.2857   1.2864   1.2877   1.2887   1.2889
  1.2895   1.2911   1.2919   1.2934   1.2937   1.2945   1.2952   1.2959
  1.2971   1.2978   1.2984   1.2996   1.3001   1.3007   1.3016   1.3023
  1.3038   1.3044   1.3058   1.3069   1.3076   1.3085   1.3096   1.3114
  1.3123   1.3129   1.3141   1.3147   1.3149   1.3154   1.3158   1.3173
  1.3185   1.3192   1.3198   1.3215   1.3225   1.3227   1.3243   1.3247
  1.3256   1.3265   1.3277   1.3289   1.3295   1.3308   1.3319   1.3329
  1.3336   1.3344   1.3353   1.3363   1.3379   1.3387   1.3391   1.3404
  1.3410   1.3413   1.3424   1.3434   1.3441   1.3453   1.3457   1.3460
  1.3472   1.3482   1.3488   1.3499   1.3503   1.3521   1.3526   1.3537
  1.3546   1.3561   1.3566   1.3575   1.3591   1.3595   1.3601   1.3605
  1.3629   1.3639   1.3645   1.3659   1.3660   1.3674   1.3680   1.3688
  1.3709   1.3713   1.3724   1.3732   1.3742   1.3749   1.3760   1.3780
  1.3789   1.3796   1.3809   1.3819   1.3829   1.3838   1.3849   1.3865
  1.3870   1.3875   1.3892   1.3905   1.3918   1.3926   1.3940   1.3949
  1.3964   1.3988   1.3991   1.3997   1.4008   1.4019   1.4029   1.4033
  1.4050   1.4055   1.4068   1.4085   1.4098   1.4100   1.4120   1.4124
  1.4138   1.4157   1.4164   1.4178   1.4193   1.4203   1.4210   1.4214
  1.4223   1.4232   1.4243   1.4264   1.4271   1.4288   1.4294   1.4304
  1.4317   1.4327   1.4343   1.4350   1.4356   1.4360   1.4393   1.4393
  1.4421   1.4427   1.4438   1.4443   1.4456   1.4471   1.4493   1.4512
  1.4517   1.4545   1.4557   1.4563   1.4571   1.4593   1.4611   1.4631
  1.4644   1.4654   1.4667   1.4684   1.4701   1.4713   1.4720   1.4738
  1.4744   1.4754   1.4767   1.4791   1.4802   1.4808   1.4816   1.4839
  1.4859   1.4880   1.4888   1.4906   1.4931   1.4945   1.4956   1.4966
  1.4986   1.5004   1.5014   1.5034   1.5038   1.5051   1.5092   1.5102
  1.5128   1.5136   1.5155   1.5179   1.5192   1.5197   1.5209   1.5226
  1.5236   1.5247   1.5286   1.5292   1.5304   1.5339   1.5355   1.5368
  1.5400   1.5415   1.5449   1.5459   1.5477   1.5496   1.5511   1.5534
  1.5552   1.5572   1.5604   1.5621   1.5638   1.5653   1.5676   1.5683
  1.5712   1.5735   1.5754   1.5771   1.5789   1.5805   1.5834   1.5863
  1.5885   1.5894   1.5923   1.5937   1.5951   1.5963   1.5982   1.6007
  1.6024   1.6046   1.6068   1.6073   1.6100   1.6116   1.6144   1.6158
  1.6179   1.6200   1.6221   1.6235   1.6242   1.6261   1.6281   1.6303
  1.6322   1.6331   1.6343   1.6345   1.6366   1.6399   1.6411   1.6435
  1.6450   1.6465   1.6481   1.6497   1.6506   1.6517   1.6542   1.6544
  1.6553   1.6559   1.6587   1.6597   1.6608   1.6635   1.6656   1.6681
  1.6694   1.6701   1.6705   1.6715   1.6738   1.6750   1.6777   1.6794
  1.6801   1.6811   1.6838   1.6846   1.6871   1.6885   1.6911   1.6914
  1.6927   1.6957   1.6972   1.6982   1.6984   1.7000   1.7006   1.7016
  1.7021   1.7032   1.7037   1.7049   1.7067   1.7081   1.7094   1.7106
  1.7117   1.7123   1.7133   1.7137   1.7156   1.7172   1.7181   1.7196
  1.7200   1.7208   1.7215   1.7228   1.7232   1.7233   1.7245   1.7258
  1.7271   1.7276   1.7282   1.7286   1.7310   1.7312   1.7325   1.7336
  1.7346   1.7348   1.7364   1.7366   1.7373   1.7382   1.7391   1.7394
  1.7424   1.7431   1.7434   1.7443   1.7446   1.7462   1.7464   1.7474
  1.7475   1.7484   1.7488   1.7500   1.7516   1.7519   1.7528   1.7533
  1.7540   1.7553   1.7562   1.7569   1.7581   1.7587   1.7592   1.7597
  1.7609   1.7612   1.7613   1.7627   1.7638   1.7648   1.7654   1.7669
  1.7672   1.7680   1.7688   1.7697   1.7702   1.7718   1.7719   1.7725
  1.7742   1.7753   1.7773   1.7777   1.7782   1.7793   1.7804   1.7811
  1.7816   1.7827   1.7828   1.7830   1.7835   1.7846   1.7854   1.7873
  1.7878   1.7882   1.7899   1.7903   1.7910   1.7916   1.7923   1.7938
  1.7947   1.7955   1.7963   1.7967   1.7984   1.7985   1.7996   1.8006
  1.8020   1.8032   1.8035   1.8041   1.8050   1.8056   1.8060   1.8067
  1.8085   1.8089   1.8092   1.8102   1.8108   1.8110   1.8125   1.8128
  1.8137   1.8142   1.8157   1.8161   1.8164   1.8176   1.8180   1.8188
  1.8195   1.8206   1.8216   1.8224   1.8227   1.8235   1.8242   1.8246
  1.8249   1.8256   1.8263   1.8276   1.8288   1.8303   1.8308   1.8321
  1.8329   1.8340   1.8340   1.8355   1.8365   1.8371   1.8388   1.8395
  1.8401   1.8404   1.8407   1.8416   1.8427   1.8446   1.8452   1.8461
  1.8467   1.8481   1.8497   1.8503   1.8509   1.8519   1.8527   1.8537
  1.8552   1.8559   1.8567   1.8576   1.8593   1.8598   1.8613   1.8619
  1.8623   1.8632   1.8637   1.8646   1.8670   1.8673   1.8685   1.8694
  1.8707   1.8713   1.8716   1.8722   1.8729   1.8742   1.8748   1.8752
  1.8760   1.8783   1.8799   1.8817   1.8821   1.8838   1.8844   1.8853
  1.8862   1.8866   1.8879   1.8884   1.8896   1.8907   1.8922   1.8928
  1.8946   1.8949   1.8957   1.8983   1.8992   1.9003   1.9011   1.9017
  1.9026   1.9034   1.9051   1.9069   1.9081   1.9084   1.9090   1.9102
  1.9113   1.9131   1.9133   1.9148   1.9173   1.9181   1.9193   1.9206
  1.9219   1.9231   1.9243   1.9255   1.9261   1.9275   1.9280   1.9283
  1.9301   1.9310   1.9332   1.9352   1.9368   1.9377   1.9389   1.9393
  1.9409   1.9415   1.9428   1.9455   1.9466   1.9478   1.9493   1.9517
  1.9524   1.9538   1.9559   1.9573   1.9583   1.9605   1.9627   1.9636
  1.9648   1.9662   1.9689   1.9716   1.9719   1.9725   1.9745   1.9755
  1.9762   1.9776   1.9800   1.9829   1.9834   1.9858   1.9879   1.9890
  1.9916   1.9934   1.9950   1.9960   1.9975   1.9997   2.0021   2.0041
  2.0049   2.0068   2.0081   2.0088   2.0098   2.0117   2.0141   2.0165
  2.0177   2.0212   2.0223   2.0232   2.0252   2.0259   2.0293   2.0321
  2.0329   2.0356   2.0375   2.0388   2.0409   2.0419   2.0437   2.0457
  2.0477   2.0485   2.0513   2.0525   2.0548   2.0555   2.0579   2.0611
  2.0648   2.0654   2.0690   2.0704   2.0718   2.0746   2.0767   2.0799
  2.0804   2.0845   2.0863   2.0889   2.0912   2.0926   2.0936   2.0962
  2.1002   2.1025   2.1045   2.1083   2.1124   2.1132   2.1182   2.1200
  2.1234   2.1276   2.1346   2.1401   2.1443   2.1517   2.1526   2.1554
  2.1666   2.1772   2.1789   2.1842   2.1872   2.1888   2.2063   2.2107
  2.2444   2.2483   2.2536   2.2565   2.2620   2.2734   2.2750   2.2754
  2.2820   2.2907   2.2975   2.3018   2.3041   2.3155   2.3184   2.3269
  2.3279   2.3299   2.3375   2.3415   2.3439   2.3460   2.3473   2.3485
  2.3503   2.3539   2.3565   2.3592   2.3665   2.3670   2.3694   2.3708
  2.3718   2.3728   2.3764   2.3777   2.3802   2.3829   2.3846   2.3892
  2.3912   2.3914   2.3932   2.3964   2.3977   2.3994   2.4031   2.4046
  2.4099   2.4105   2.4116   2.4127   2.4145   2.4160   2.4176   2.4207
  2.4213   2.4245   2.4267   2.4281   2.4284   2.4306   2.4324   2.4347
  2.4363   2.4374   2.4385   2.4422   2.4429   2.4487   2.4506   2.4515
  2.4538   2.4547   2.4570   2.4607   2.4612   2.4648   2.4674   2.4691
  2.4711   2.4725   2.4744   2.4746   2.4777   2.4784   2.4800   2.4815
  2.4833   2.4860   2.4901   2.4927   2.4935   2.4956   2.4964   2.4978
  2.5001   2.5067   2.5097   2.5151   2.5165   2.5192   2.5215   2.5268
  2.5307   2.5326   2.5380   2.5414   2.5445   2.5514   2.5556   2.5598
  2.5621   2.5654   2.5683   2.5708   2.5772   2.5813   2.5954   2.6007
  2.6069   2.6147   2.6175   2.6197   2.6224   2.6236   2.6366   2.6372
  2.6382   2.6408   2.6434   2.6482   2.6535   2.6610   2.6622   2.6640
  2.6658   2.6680   2.6726   2.6741   2.6762   2.6774   2.6791   2.6809
  2.6815   2.6818   2.6910   2.6914   2.6942   2.6957   2.6961   2.6986
  2.7009   2.7061   2.7082   2.7103   2.7156   2.7183   2.7202   2.7209
  2.7226   2.7238   2.7240   2.7263   2.7275   2.7282   2.7305   2.7312
  2.7330   2.7347   2.7385   2.7394   2.7421   2.7438   2.7440   2.7448
  2.7481   2.7496   2.7503   2.7510   2.7532   2.7543   2.7557   2.7575
  2.7587   2.7596   2.7627   2.7642   2.7647   2.7684   2.7693   2.7717
  2.7744   2.7774   2.7790   2.7799   2.7818   2.7837   2.7847   2.7874
  2.7887   2.7902   2.7939   2.7963   2.7976   2.7983   2.8016   2.8045
  2.8069   2.8105   2.8119   2.8145   2.8168   2.8179   2.8230   2.8304
  2.8318   2.8341   2.8349   2.8387   2.8396   2.8436   2.8503   2.8515
  2.8583   2.8635   2.8663   2.8712   2.8818   2.8859   2.8900   2.8925
  2.9144   2.9457   3.0784   3.2426   3.8147   3.8166   3.8497   3.8725
  3.8813   3.9387   3.9398   3.9566   3.9673   3.9697   3.9817   3.9884
  3.9921   4.0068   4.0106   4.0143   4.0223   4.0265   4.0311   4.0367
  4.0386   4.0449   4.0474   4.0535   4.0580   4.0714   4.0730   4.0807
  4.0855   4.0961   4.1000   4.1071   4.1102   4.1109   4.1181   4.1212
  4.1274   4.1310   4.1316   4.1408   4.1415   4.1528   4.1530   4.1598
  4.1626   4.1720   4.1731   4.1768   4.1834   4.1867   4.1930   4.1983
  4.2004   4.2060   4.2106   4.2142   4.2213   4.2223   4.2295   4.2306
  4.2362   4.2402   4.2442   4.2503   4.2551   4.2599   4.2639   4.2700
  4.2731   4.2822   4.2857   4.2878   4.2935   4.2987   4.3060   4.3097
  4.3123   4.3180   4.3236   4.3338   4.3408   4.3455   4.3462   4.3564
  4.3629   4.3698   4.3760   4.3873   4.3950   4.4003   4.4068   4.4128
  4.4192   4.4320   4.4364   4.4453   4.4564   4.4681   4.4723   4.4830
  4.4964   4.4997   4.5127   4.5195   4.5464   4.5504   4.5712   4.5899
  4.5961   4.6360   4.6531   4.6768   4.7587   4.7928   4.7962   4.8969
 --------------------------------------------------------------

          Ground-State Mulliken Net Atomic Charges

     Atom                 Charge (a.u.)
  ----------------------------------------
      1 C                     0.060573
      2 H                     0.177284
      3 O                    -0.494545
      4 N                     0.224875
      5 H                     0.524147
      6 C                    -1.660251
      7 C                     0.963170
      8 C                    -0.261074
      9 H                     0.230566
     10 C                     0.072913
     11 H                     0.235801
     12 H                     0.200302
     13 C                    -1.174812
     14 H                     0.250577
     15 H                     0.211229
     16 C                    -1.122388
     17 H                     0.220110
     18 H                     0.199512
     19 H                     0.226503
     20 H                     0.226580
     21 H                     0.212063
     22 H                     0.235410
     23 O                    -1.166052
     24 H                     0.631142
     25 H                     0.541433
     26 O                    -1.152798
     27 H                     0.637352
     28 H                     0.603427
     29 O                    -1.191301
     30 H                     0.656369
     31 H                     0.518054
     32 O                    -1.075727
     33 H                     0.552578
     34 H                     0.506479
     35 O                    -1.152519
     36 H                     0.631629
     37 H                     0.570725
     38 O                    -1.027795
     39 H                     0.606992
     40 H                     0.486533
     41 O                    -1.261109
     42 H                     0.591176
     43 H                     0.615564
     44 O                    -1.258662
     45 H                     0.645250
     46 H                     0.602191
     47 O                    -1.114993
     48 H                     0.602348
     49 H                     0.546799
     50 O                    -1.071027
     51 H                     0.570320
     52 H                     0.500392
     53 O                    -1.119927
     54 H                     0.571835
     55 H                     0.572650
     56 O                    -1.183941
     57 H                     0.581501
     58 H                     0.554140
     59 O                    -1.260612
     60 H                     0.583901
     61 H                     0.635534
     62 O                    -1.122932
     63 H                     0.501260
     64 H                     0.606699
     65 O                    -1.032060
     66 H                     0.507851
     67 H                     0.513703
     68 O                    -1.250228
     69 H                     0.628919
     70 H                     0.584746
     71 O                    -1.027809
     72 H                     0.493012
     73 H                     0.568164
     74 O                    -1.265268
     75 H                     0.611908
     76 H                     0.662445
     77 O                    -1.139376
     78 H                     0.583528
     79 H                     0.623452
     80 O                    -1.014014
     81 H                     0.498400
     82 H                     0.500252
     83 O                    -1.011178
     84 H                     0.473412
     85 H                     0.590602
     86 O                    -1.195111
     87 H                     0.628643
     88 H                     0.562546
     89 O                    -1.102233
     90 H                     0.602230
     91 H                     0.485535
     92 O                    -1.080918
     93 H                     0.595493
     94 H                     0.513516
     95 O                    -1.290881
     96 H                     0.611047
     97 H                     0.610411
     98 O                    -1.153451
     99 H                     0.559833
    100 H                     0.578661
    101 O                    -1.063265
    102 H                     0.478902
    103 H                     0.579052
    104 O                    -1.187019
    105 H                     0.621628
    106 H                     0.541849
    107 O                    -0.962243
    108 H                     0.467900
    109 H                     0.561368
    110 O                    -1.006418
    111 H                     0.515349
    112 H                     0.589349
    113 O                    -1.202195
    114 H                     0.519270
    115 H                     0.602820
    116 O                    -1.239757
    117 H                     0.670061
    118 H                     0.583206
    119 O                    -1.097155
    120 H                     0.501726
    121 H                     0.607085
    122 O                    -1.042472
    123 H                     0.468428
    124 H                     0.553555
    125 O                    -1.060835
    126 H                     0.511966
    127 H                     0.562509
    128 O                    -1.305332
    129 H                     0.676661
    130 H                     0.614555
    131 O                    -1.069820
    132 H                     0.566112
    133 H                     0.540599
    134 O                    -1.223961
    135 H                     0.590017
    136 H                     0.634056
    137 O                    -1.143895
    138 H                     0.585992
    139 H                     0.597971
    140 O                    -1.224868
    141 H                     0.611636
    142 H                     0.599782
    143 O                    -1.045345
    144 H                     0.526074
    145 H                     0.594555
    146 O                    -1.201316
    147 H                     0.632750
    148 H                     0.564764
    149 O                    -1.144309
    150 H                     0.587645
    151 H                     0.607328
    152 O                    -1.150979
    153 H                     0.538759
    154 H                     0.560604
    155 O                    -1.053959
    156 H                     0.521170
    157 H                     0.610876
    158 O                    -1.112248
    159 H                     0.571143
    160 H                     0.558840
    161 O                    -1.202156
    162 H                     0.567414
    163 H                     0.618446
    164 O                    -1.089404
    165 H                     0.573607
    166 H                     0.493383
    167 O                    -1.059390
    168 H                     0.595720
    169 H                     0.464053
    170 O                    -1.049085
    171 H                     0.541653
    172 H                     0.583574
    173 O                    -1.150851
    174 H                     0.544261
    175 H                     0.646567
    176 O                    -1.088610
    177 H                     0.597064
    178 H                     0.496292
    179 O                    -0.989601
    180 H                     0.476264
    181 H                     0.518258
[...]
          307         308         309         310         311         312
    1  -1.9363636   0.1178595   2.0182257   1.4330029   0.0545558  -0.2231115
    2  -3.6138821   0.0199152   0.9811960  -0.3945554   0.5492727   3.3153002
    3   0.0873777  -0.9692685  -2.3428978   0.4112022  -2.7442486  -2.0385999
          313         314         315         316         317         318
    1   2.8112997  -2.3789305  -2.3144452  -0.3036249  -0.1510956   1.1005741
    2   0.5054579  -2.0450884   0.2117592  -2.1759021  -0.5744634  -2.8133344
    3  -3.0789915  -0.9227165   0.8396616  -1.2273509  -1.6016883  -1.3259612
          319         320         321         322         323         324
    1   1.2333769  -1.6114484  -2.4297756  -0.2936785  -2.6966373  -2.8472124
    2   1.3742044   0.1183516  -2.0426981   0.6126044   0.3287413  -0.3867797
    3  -0.4991267   1.4390675   0.5457847  -0.7388690   1.0242552   3.7275909
          325         326         327         328         329         330
    1  -0.5275172  -1.5204037  -1.7818205  -2.9233609   0.6215544  -1.0433610
    2  -0.4919950  -0.1695997  -3.0178747  -0.1935207  -2.8146630  -1.9558092
    3   0.9852551  -2.1544072  -3.1189817   0.1545338  -1.2701194   0.4558603
          331         332         333         334         335         336
    1   2.4182755  -0.0936945  -2.6300909  -0.2331450  -1.6660546  -0.4139687
    2  -1.3389706   0.2819953  -0.2908929  -1.4064771   0.9979616   0.9190932
    3  -0.4538235   0.8867701   0.2227237   2.9156338  -2.3623151  -0.2260103
          337         338         339         340         341         342
    1  -1.3686374   0.0914608   0.4090721   2.4725454   1.3844112   3.4034160
    2  -1.7431294  -2.3456116  -4.3781564  -1.8923709  -1.0861036  -2.6912369
    3  -3.0163310   1.3291917   2.6460020   0.3477028  -1.5749786  -1.0124098
          343
    1   2.7431278
    2   0.7677978
    3  -2.3632736
 EField
            1           2           3           4           5           6
    1  -0.0303842  -0.0224771  -0.0384400  -0.0255268  -0.0309658  -0.0121758
    2  -0.0044086   0.0012901  -0.0096556  -0.0093973  -0.0218510  -0.0024524
    3   0.0056770   0.0074419   0.0050520   0.0028065   0.0073262   0.0004379
            7           8           9          10          11          12
    1  -0.0086277  -0.0041279  -0.0127196  -0.0020929  -0.0037305  -0.0152191
    2  -0.0028019  -0.0033859   0.0092058  -0.0017343  -0.0083360   0.0022151
    3   0.0005240  -0.0014190   0.0009388   0.0020717   0.0047183  -0.0034368
           13          14          15          16          17          18
    1  -0.0033844  -0.0013344  -0.0021352  -0.0036968  -0.0005017  -0.0022622
    2   0.0002983  -0.0053251  -0.0028730  -0.0010624  -0.0034928  -0.0021531
    3  -0.0001586  -0.0016680  -0.0042023   0.0030543   0.0027153   0.0023146
           19          20          21          22          23          24
    1  -0.0024603  -0.0019124  -0.0042337  -0.0017277  -0.0485834  -0.0077451
    2   0.0040203  -0.0001782  -0.0027880  -0.0009207  -0.0793010   0.0258309
    3  -0.0022479  -0.0009520   0.0075468   0.0014388   0.0190119  -0.0522670
           25          26          27          28          29          30
    1   0.0281635   0.0136173   0.0001206   0.0041602   0.0577632  -0.0845461
    2   0.0029251   0.0016395   0.0414668  -0.0176964   0.0885555   0.0017824
    3   0.0199213   0.0907663  -0.0570179  -0.0306782  -0.0161560  -0.0049794
           31          32          33          34          35          36
    1   0.0176424  -0.1001272   0.0235738   0.0736092  -0.0262840  -0.0082428
    2  -0.0773596   0.0217254  -0.0589627   0.0561127   0.0842755  -0.0022838
    3   0.0041647   0.0514584  -0.0147734  -0.0228005   0.0439193  -0.0497859
           37          38          39          40          41          42
    1   0.0198455  -0.0772626   0.0275807   0.0239356  -0.0586676   0.0634718
    2  -0.0127280  -0.0060795   0.0475233  -0.0439221   0.0642219   0.0097836
    3   0.0004416  -0.0711047   0.0151800   0.0190347   0.0023815  -0.0071166
           43          44          45          46          47          48
    1  -0.0137114   0.0244768   0.0251851  -0.0210314  -0.0905172   0.0103095
    2  -0.0584944   0.0939758  -0.0597582  -0.0084799  -0.0292267   0.0352317
    3  -0.0036272  -0.0430458  -0.0274646   0.0502055   0.0312129  -0.0396271
           49          50          51          52          53          54
    1   0.0102458  -0.0549486   0.0739762  -0.0262620   0.0037592   0.0252628
    2  -0.0097025   0.0184458   0.0050805  -0.0079983  -0.0720146   0.0380457
    3   0.0103853  -0.0890398  -0.0003819   0.0415685   0.0593645  -0.0011625
           55          56          57          58          59          60
    1  -0.0116395   0.0196781  -0.0021770  -0.0240435   0.0279214  -0.0043418
    2  -0.0014123   0.0840690  -0.0083131  -0.0585456   0.0254539  -0.0429708
    3  -0.0259789  -0.0512791   0.0116016  -0.0153610   0.0829071  -0.0251538
           61          62          63          64          65          66
    1  -0.0204603  -0.0477554  -0.0260396   0.0587893   0.0357246   0.0287235
    2   0.0406103  -0.0844605   0.0616232   0.0123424  -0.0127900  -0.0168084
    3  -0.0435534   0.0273275  -0.0213552  -0.0031367  -0.0986175   0.0371179
           67          68          69          70          71          72
    1  -0.0437301   0.0671028   0.0020184  -0.0239977   0.0066293  -0.0564466
    2   0.0324649  -0.0483888   0.0385914  -0.0154707   0.0631064  -0.0170960
    3   0.0146310   0.0018058   0.0168198  -0.0152141  -0.0900646   0.0256190
           73          74          75          76          77          78
    1   0.0601742   0.0663063  -0.0099167  -0.0089566   0.0621375  -0.1092087
    2  -0.0221944  -0.0494825  -0.0070025   0.0993452  -0.0697694   0.0166373
    3   0.0209855  -0.0340266   0.0092201   0.0188212   0.0411622   0.0099056
           79          80          81          82          83          84
    1   0.0226632  -0.0294412  -0.0224506   0.0406416   0.0147771   0.0203175
    2   0.0605901   0.0733515  -0.0321272   0.0002839  -0.0745275   0.0061328
    3  -0.0653647  -0.0673070   0.0081955   0.0452635   0.0789285  -0.0470929
           85          86          87          88          89          90
    1  -0.0301066   0.0057965  -0.0666495   0.0583634   0.0035843  -0.0569360
    2   0.0592583  -0.0925787   0.0286699   0.0542142  -0.0218654  -0.0105892
    3   0.0023308  -0.0314605   0.0182166  -0.0043486  -0.0957257   0.0157540
           91          92          93          94          95          96
    1   0.0390157  -0.0612242   0.0048556   0.0732437   0.0293027  -0.0692848
    2   0.0021206   0.0835275  -0.0448129  -0.0451063   0.0885547  -0.0034501
    3   0.0149705  -0.0250175  -0.0331967   0.1048766   0.0498778  -0.0812985
           97          98          99         100         101         102
    1   0.0357573  -0.1057564   0.0522491   0.0412265   0.0233964   0.0275021
    2  -0.0862216   0.0203211   0.0516812  -0.0846524  -0.0959183   0.0240067
    3   0.0271277  -0.0218982  -0.0057613   0.0450090  -0.0299458  -0.0033632
          103         104         105         106         107         108
    1  -0.1009839   0.0032909  -0.0470545   0.0173942  -0.0257165   0.0492992
    2   0.0366412  -0.0298507   0.0177038   0.0140756   0.0694882  -0.0482743
    3   0.0246331  -0.0841507   0.0478263   0.0155621   0.0792245  -0.0128045
          109         110         111         112         113         114
    1  -0.0100030   0.0673865  -0.0960937   0.0246225   0.0289862  -0.0226222
    2  -0.0041875  -0.0729425   0.0505316   0.0126479   0.0989772  -0.0221165
    3  -0.0098895   0.0589578   0.0254989  -0.0563825  -0.0095701   0.0456992
          115         116         117         118         119         120
    1   0.0096274  -0.0556753   0.0415455  -0.0054273  -0.0353799  -0.0173899
    2  -0.0372812  -0.0422819  -0.0080129   0.0056748   0.0697007   0.0015068
    3  -0.0551438   0.0527299  -0.0652855   0.0004239  -0.0771004   0.0359061
          121         122         123         124         125         126
    1   0.0588567   0.0135335  -0.0020554  -0.0063662  -0.0067023  -0.0207858
    2  -0.0723820   0.0178138  -0.0468019   0.0512383  -0.0049951  -0.0543108
    3  -0.0145090  -0.1075987   0.0189801   0.0193659  -0.1030664   0.0609630
          127         128         129         130         131         132
    1  -0.0001960   0.0874024  -0.0530777  -0.0132868  -0.0264545   0.0180672
    2   0.0129018  -0.0255361  -0.0547022   0.0627084   0.0628954  -0.0389777
    3   0.0194896  -0.0407174   0.0382261  -0.0145480  -0.0709993  -0.0073023
          133         134         135         136         137         138
    1   0.0076229   0.0357094   0.0137642  -0.0625240   0.0477181  -0.0439278
    2   0.0035129  -0.0834274   0.0468755   0.0289488   0.0900607  -0.0118413
    3   0.0564156  -0.0156163  -0.0042455   0.0245655  -0.0425422   0.0854019
          139         140         141         142         143         144
    1  -0.0077776  -0.0210445   0.0229346  -0.0115018  -0.0059848   0.0013284
    2  -0.0569401   0.0720809  -0.0418659  -0.0086480   0.0311077  -0.0197030
    3  -0.0241657   0.0521248   0.0045617  -0.0397872   0.0889558  -0.0013597
          145         146         147         148         149         150
    1  -0.0128564   0.0364781   0.0212486  -0.0428954   0.0349046  -0.1112685
    2   0.0354872   0.0417011   0.0285185  -0.0632601  -0.0599318   0.0103148
    3  -0.0438821  -0.0832169   0.0570032   0.0095200   0.0731404  -0.0635211
          151         152         153         154         155         156
    1   0.0143600   0.0097525  -0.0566337   0.0480002  -0.0443361   0.0149190
    2   0.0367728   0.0996180  -0.0429155  -0.0501729  -0.0016278  -0.0286336
    3  -0.0032544   0.0216794   0.0159171  -0.0187908  -0.1001990   0.0147415
          157         158         159         160         161         162
    1   0.0117096   0.0510525  -0.0085156  -0.0157375  -0.0372702   0.0075131
    2   0.0777032   0.0048242   0.0517055   0.0201184   0.0725315  -0.0023234
    3   0.0790559   0.0951381  -0.0411313   0.0076840  -0.0138935   0.0132421
          163         164         165         166         167         168
    1  -0.0020392   0.0487502  -0.0064899  -0.0306463  -0.0962553   0.0356105
    2  -0.0363557  -0.0100383  -0.0155939   0.0184357  -0.0226424  -0.0156679
    3  -0.0105197   0.0854159  -0.0032186  -0.0089269   0.0371459   0.0245703
          169         170         171         172         173         174
    1   0.0072697  -0.0035161  -0.0079005   0.0105820  -0.0012660  -0.0249309
    2   0.0400460   0.0163408  -0.0211994   0.0241543  -0.0443797   0.0480104
    3  -0.0458419   0.0914281  -0.0235042  -0.0374758  -0.0953387   0.0222988
          175         176         177         178         179         180
    1   0.0267197   0.0126778   0.0154434  -0.0289650  -0.0500876   0.0469986
    2  -0.0452312   0.0351871   0.0323103  -0.0727700   0.0905117  -0.0088942
    3   0.0886024  -0.0954483   0.0300315   0.0344215  -0.0439354   0.0056525
          181         182         183         184         185         186
    1  -0.0366052  -0.0736458   0.0207124   0.0035919  -0.0150925   0.0330893
    2  -0.0669124  -0.0559748  -0.0077282   0.0571822  -0.0438588   0.0473458
    3   0.0172719  -0.0244727   0.0014783   0.0156437  -0.0860537   0.0102201
          187         188         189         190         191         192
    1  -0.0141598   0.0198845  -0.0344639   0.0170311   0.0766341   0.0119153
    2  -0.0373075   0.0904868  -0.0429104  -0.0254595  -0.0836175  -0.0110986
    3   0.0668380   0.0024911  -0.0514169   0.0239135   0.0198525   0.0068962
          193         194         195         196         197         198
    1  -0.0532001  -0.0186637  -0.0259406   0.0206386   0.0150793  -0.0434627
    2   0.0178571  -0.0043525   0.0108583  -0.0110737   0.0647762  -0.0912990
    3  -0.0782771   0.0871740  -0.0127045  -0.0075863  -0.1001504   0.0087080
          199         200         201         202         203         204
    1   0.0064032  -0.1023608   0.0305036   0.0380601  -0.0465655   0.0111482
    2   0.0294146  -0.0136218  -0.0335865   0.0338670  -0.0345424  -0.0244680
    3   0.0434116   0.0085679  -0.0396093   0.0325331   0.0892628  -0.0392070
          205         206         207         208         209         210
    1   0.0099795  -0.0908865   0.0234205   0.0219844   0.0097774  -0.0548473
    2   0.0354801   0.0126815   0.0333118  -0.0297447   0.0837241  -0.0439814
    3  -0.0033974   0.0133964  -0.0023087  -0.0249038  -0.0598124   0.0011316
          211         212         213         214         215         216
    1   0.0330166   0.0535541  -0.0027290  -0.0683337   0.0921772  -0.0284796
    2  -0.0043019   0.0491464  -0.0646782   0.0188679   0.0357018   0.0056254
    3   0.0248125   0.0748937  -0.0274115  -0.0383439   0.0084346   0.0191584
          217         218         219         220         221         222
    1  -0.0076050  -0.0645735   0.0632062  -0.0030186  -0.0181346  -0.0576885
    2  -0.0250727   0.0803908  -0.0334273  -0.0315460   0.0845529  -0.0592312
    3   0.0010723  -0.0146923  -0.0322289   0.0512709   0.0435201  -0.0361996
          223         224         225         226         227         228
    1   0.0686223   0.0284636  -0.0269406   0.0346136   0.0455268  -0.0280998
    2  -0.0363612   0.0184113  -0.0277577   0.0292647   0.0013318   0.0710815
    3  -0.0141920   0.1031973   0.0046324  -0.0768712  -0.0961449   0.0342708
          229         230         231         232         233         234
    1  -0.0000585  -0.0571484   0.0243179   0.0099531  -0.0314081   0.0188845
    2  -0.0416574  -0.0718061   0.0005476   0.0203337  -0.0572830   0.0101023
    3   0.0234229   0.0282722   0.0099475  -0.0410505   0.0570649  -0.0149808
          235         236         237         238         239         240
    1  -0.0007866  -0.0061570  -0.0328419   0.0430844   0.0611503  -0.0015721
    2   0.0176106   0.0627684  -0.0207274  -0.0204538  -0.0710550   0.0421183
    3  -0.0145925   0.0611348  -0.0173882  -0.0188984   0.0139804   0.0069513
          241         242         243         244         245         246
    1  -0.0665349  -0.0750417   0.0133253   0.0610808   0.0743303  -0.0146103
    2  -0.0044037   0.0269639   0.0384693  -0.0701096  -0.0305617   0.0252173
    3  -0.0489047  -0.0604320   0.0538838   0.0016195  -0.0318571   0.0065765
          247         248         249         250         251         252
    1  -0.0353161   0.0266799  -0.0960737   0.0264044  -0.0380257  -0.0375125
    2  -0.0311327  -0.0752211   0.0076880   0.0306430   0.0649690  -0.0479751
    3   0.0166890   0.0601968  -0.0386091  -0.0020033  -0.0709515   0.0318243
          253         254         255         256         257         258
    1   0.0374149  -0.0740632   0.0128055   0.0022189  -0.0994207  -0.0019282
    2  -0.0049969   0.0245314  -0.0417498   0.0025078   0.0261854   0.0029998
    3   0.0053211  -0.0503241   0.0824480   0.0017645  -0.0276131  -0.0062234
          259         260         261         262         263         264
    1   0.0871019  -0.0616901   0.0648279   0.0041090  -0.0564947   0.0180311
    2   0.0110845  -0.0670294  -0.0224259   0.0384334   0.0869819  -0.0388465
    3   0.1309086  -0.0410275  -0.0008804   0.0230901   0.0047590   0.0494938
          265         266         267         268         269         270
    1   0.0255777  -0.0213058   0.0144580  -0.0573306  -0.0753948   0.0216088
    2  -0.0173954   0.0720105   0.0038416  -0.0619768   0.0047973   0.0666935
    3  -0.0353587  -0.0725342   0.0110994   0.0326323   0.0672219  -0.0395575
          271         272         273         274         275         276
    1   0.0101650  -0.0544998   0.0344057  -0.0016824   0.0794112  -0.0008063
    2  -0.0435244  -0.0812238   0.0151028   0.0357244  -0.0501911   0.0301147
    3  -0.0064915  -0.0150552   0.0456005  -0.0348395  -0.0371527   0.0220958
          277         278         279         280         281         282
    1  -0.0317358   0.0235912  -0.0202033   0.0149508   0.0244625  -0.0111014
    2   0.0186304   0.0750957  -0.0033015  -0.1020668  -0.0806143  -0.0012139
    3  -0.0400290  -0.0550801   0.0341872   0.0024054  -0.0393193   0.0422830
          283         284         285         286         287         288
    1  -0.0059130  -0.0847629   0.0729042  -0.0069703  -0.0903960   0.0152941
    2  -0.0037983   0.0484232   0.0294913  -0.0343866   0.0084790  -0.0080990
    3  -0.0062737   0.0145617  -0.0605472   0.0163288   0.0070797   0.0110064
          289         290         291         292         293         294
    1   0.0500007  -0.0683215   0.0293322  -0.0093681  -0.0940406   0.0847027
    2   0.0284280   0.0286265  -0.0004345  -0.0285493   0.0658433  -0.0664439
    3  -0.0170053  -0.0698706  -0.0119055   0.0884663  -0.0260767  -0.0733956
          295         296         297         298         299         300
    1   0.0061242  -0.0296346  -0.0090695   0.0216592  -0.0520598   0.0223993
    2  -0.0136124  -0.0948137   0.0310358   0.0212431  -0.0722388   0.0537523
    3   0.0584714  -0.0325498  -0.0050659   0.0344145   0.0473641   0.0365360
          301         302         303         304         305         306
    1   0.0419351  -0.0731073  -0.0030711   0.0652807   0.0773349  -0.0250566
    2  -0.0009632  -0.0394320   0.0379484  -0.0317846   0.0356592   0.0494323
    3  -0.0680882   0.0531616  -0.0176143  -0.0084274  -0.0579959   0.0263894
          307         308         309         310         311         312
    1  -0.0503509  -0.0885357   0.0150475   0.0009001  -0.0685794  -0.0122412
    2  -0.0615159  -0.0137933   0.0222744   0.0015058  -0.0788987   0.0652862
    3  -0.0020419  -0.0079387  -0.0111859   0.0153151  -0.0129335   0.0272049
          313         314         315         316         317         318
    1   0.0116703  -0.0645173  -0.0156752   0.0360198  -0.0881738   0.0448795
    2  -0.0009607  -0.0579598   0.0487071   0.0059539   0.0102312  -0.0523997
    3  -0.0040880  -0.0447799   0.0229363  -0.0051557  -0.0456263   0.0015033
          319         320         321         322         323         324
    1   0.0503038  -0.0080695  -0.0131166   0.0141277  -0.0635713  -0.0161424
    2   0.0614505   0.0469388  -0.0401965   0.0269033   0.0497603  -0.0117093
    3   0.0299882   0.0774145  -0.0136986  -0.0259211  -0.0822958   0.0612853
          325         326         327         328         329         330
    1   0.0585202   0.0455561  -0.0043281  -0.0132509  -0.0034525  -0.0603447
    2  -0.0074298   0.0917679  -0.0916693  -0.0020094  -0.0690700   0.0270283
    3  -0.0187735  -0.0411889  -0.0299935   0.0365558  -0.0759168   0.0401170
          331         332         333         334         335         336
    1   0.0303924   0.0715944  -0.0856425   0.0219352  -0.0494245   0.0227041
    2   0.0187634   0.0618241  -0.0126109  -0.0558534   0.0807807   0.0071588
    3   0.0175908  -0.0351930  -0.0335495   0.0560826  -0.0505459   0.0373728
          337         338         339         340         341         342
    1  -0.0075860  -0.0809957   0.0015781   0.0509740  -0.0928999   0.0347048
    2  -0.0601005   0.0568290  -0.0446681   0.0119195  -0.0115740  -0.0379772
    3  -0.0035014  -0.0149820   0.0332776  -0.0205952  -0.0045473   0.0145877
          343
    1   0.0200366
    2   0.0389289
    3  -0.0252024
  --- DONE ESP SUMMARY ---
 Total job time:  24.11s(wall), 70.67s(cpu) 
 Thu Jul 21 05:22:21 2022

        *************************************************************
        *                                                           *
        *  Thank you very much for using Q-Chem.  Have a nice day.  *
        *                                                           *
        *************************************************************


