                  Welcome to Q-Chem
     A Quantum Leap Into The Future Of Chemistry


 Q-Chem 6.0 (devel), Q-Chem, Inc., Pleasanton, CA (2022)

 E. Epifanovsky,  A. T. B. Gilbert,  Xintian Feng,  Joonho Lee,  Yuezhi Mao,  
 N. Mardirossian,  P. Pokhilko,  A. White,  M. Wormit,  M. P. Coons,  
 A. L. Dempwolff,  Zhengting Gan,  D. Hait,  P. R. Horn,  L. D. Jacobson,  
 I. Kaliman,  J. Kussmann,  A. W. Lange,  Ka Un Lao,  D. S. Levine,  Jie Liu,  
 S. C. McKenzie,  A. F. Morrison,  K. Nanda,  F. Plasser,  D. R. Rehn,  
 M. L. Vidal,  Zhi-Qiang You,  Ying Zhu,  B. Alam,  B. Albrecht,  
 A. Aldossary,  E. Alguire,  J. H. Andersen,  V. Athavale,  D. Barton,  
 K. Begam,  A. Behn,  N. Bellonzi,  Y. A. Bernard,  E. J. Berquist,  
 H. Burton,  A. Carreras,  K. Carter-Fenk,  Romit Chakraborty,  
 Chandrima Chakravarty,  Junhan Chen,  A. D. Chien,  K. D. Closser,  
 V. Cofer-Shabica,  L. Cunha,  S. Dasgupta,  Jia Deng,  M. de Wergifosse,  
 M. Diedenhofen,  Hainam Do,  S. Ehlert,  Po-Tung Fang,  S. Fatehi,  
 Qingguo Feng,  T. Friedhoff,  B. Ganoe,  J. Gayvert,  Qinghui Ge,  
 G. Gidofalvi,  M. Goldey,  J. Gomes,  C. Gonzalez-Espinoza,  S. Gulania,  
 A. Gunina,  J. A. Gyamfi,  M. W. D. Hanson-Heine,  P. H. P. Harbach,  
 A. W. Hauser,  M. F. Herbst,  M. Hernandez Vera,  M. Hodecker,  
 Z. C. Holden,  S. Houck,  Xunkun Huang,  Kerwin Hui,  B. C. Huynh,  
 K. Ikeda,  M. Ivanov,  Hyunjun Ji,  Zuxin Jin,  Hanjie Jiang,  B. Kaduk,  
 S. Kaehler,  R. Kang,  K. Khistyaev,  Jaehoon Kim,  Yongbin Kim,  
 P. Klunzinger,  Z. Koczor-Benda,  Joong Hoon Koh,  D. Kosenkov,  
 Saikiran Kotaru,  L. Koulias,  T. Kowalczyk,  C. M. Krauter,  K. Kue,  
 A. Kunitsa,  T. Kus,  A. Landau,  K. V. Lawler,  D. Lefrancois,  S. Lehtola,  
 Rain Li,  Shaozhi Li,  Yi-Pei Li,  Jiashu Liang,  M. Liebenthal,  
 Hung-Hsuan Lin,  You-Sheng Lin,  Fenglai Liu,  Kuan-Yu Liu,  
 M. Loipersberger,  A. Luenser,  C. Malbon,  A. Manjanath,  P. Manohar,  
 E. Mansoor,  S. F. Manzer,  Shan-Ping Mao,  A. V. Marenich,  T. Markovich,  
 S. Mason,  F. Matz,  S. A. Maurer,  P. F. McLaughlin,  M. F. S. J. Menger,  
 J.-M. Mewes,  S. A. Mewes,  P. Morgante,  Mohammad Mostafanejad,  
 J. W. Mullinax,  K. J. Oosterbaan,  G. Paran,  V. Parravicini,  
 Alexander C. Paul,  Suranjan K. Paul,  F. Pavosevic,  Zheng Pei,  S. Prager,  
 E. I. Proynov,  E. Ramos,  B. Rana,  A. E. Rask,  A. Rettig,  R. M. Richard,  
 F. Rob,  E. Rossomme,  T. Scheele,  M. Scheurer,  M. Schneider,  
 P. E. Schneider,  N. Sergueev,  S. M. Sharada,  Hengyuan Shen,  
 W. Skomorowski,  D. W. Small,  C. J. Stein,  Yingli Su,  Yu-Chuan Su,  
 E. J. Sundstrom,  Zhen Tao,  J. Thirman,  Hung-Yi Tsai,  T. Tsuchimochi,  
 N. M. Tubman,  C. Utku,  S. P. Veccham,  O. Vydrov,  J. Wenzel,  
 Jonathan Wong,  J. Witte,  A. Yamada,  Chou-Hsun Yang,  Kun Yao,  
 S. Yeganeh,  S. R. Yost,  A. Zech,  F. Zeller,  Igor Ying Zhang,  
 Xing Zhang,  Yu Zhang,  D. Zuev,  A. Aspuru-Guzik,  A. T. Bell,  
 N. A. Besley,  K. B. Bravaya,  B. R. Brooks,  D. Casanova,  Jeng-Da Chai,  
 Hsing-Ta Chen,  S. Coriani,  C. J. Cramer,  A. E. DePrince, III,  
 R. A. DiStasio Jr.,  A. Dreuw,  B. D. Dunietz,  T. R. Furlani,  
 W. A. Goddard III,  S. Grimme,  S. Hammes-Schiffer,  T. Head-Gordon,  
 W. J. Hehre,  Chao-Ping Hsu,  T.-C. Jagau,  Yousung Jung,  A. Klamt,  
 Jing Kong,  D. S. Lambrecht,  Xiangyuan Li,  WanZhen Liang,  N. J. Mayhall,  
 C. W. McCurdy,  J. B. Neaton,  T. Neudecker,  C. Ochsenfeld,  
 J. A. Parkhill,  R. Peverati,  V. A. Rassolov,  Haisheng Ren,  Yihan Shao,  
 L. V. Slipchenko,  R. P. Steele,  J. E. Subotnik,  A. J. W. Thom,  
 A. Tkatchenko,  D. G. Truhlar,  T. Van Voorhis,  Fan Wang,  
 T. A. Wesolowski,  K. B. Whaley,  H. L. Woodcock III,  P. M. Zimmerman,  
 S. Faraji,  P. M. W. Gill,  M. Head-Gordon,  J. M. Herbert,  A. I. Krylov

 Contributors to earlier versions of Q-Chem not listed above: 
 R. D. Adamson,  B. Austin,  R. Baer,  J. Baker,  G. J. O. Beran,  
 K. Brandhorst,  S. T. Brown,  E. F. C. Byrd,  Arup K. Chakraborty,  
 G. K. L. Chan,  Chun-Min Chang,  Yunqing Chen,  C.-L. Cheng,  
 Siu Hung Chien,  D. M. Chipman,  D. L. Crittenden,  H. Dachsel,  
 R. J. Doerksen,  A. D. Dutoi,  R. G. Edgar,  J. Fosso-Tande,  
 L. Fusti-Molnar,  D. Ghosh,  A. Ghysels,  A. Golubeva-Zadorozhnaya,  
 J. Gonthier,  M. S. Gordon,  S. R. Gwaltney,  G. Hawkins,  J. E. Herr,  
 A. Heyden,  S. Hirata,  E. G. Hohenstein,  G. Kedziora,  F. J. Keil,  
 C. Kelley,  Jihan Kim,  R. A. King,  R. Z. Khaliullin,  P. P. Korambath,  
 W. Kurlancheek,  A. Laurent,  A. M. Lee,  M. S. Lee,  S. V. Levchenko,  
 Ching Yeh Lin,  D. Liotard,  E. Livshits,  R. C. Lochan,  I. Lotan,  
 L. A. Martinez-Martinez,  P. E. Maslen,  N. Nair,  D. P. O'Neill,  
 D. Neuhauser,  E. Neuscamman,  C. M. Oana,  R. Olivares-Amaya,  R. Olson,  
 T. M. Perrine,  B. Peters,  P. A. Pieniazek,  A. Prociuk,  Y. M. Rhee,  
 J. Ritchie,  M. A. Rohrdanz,  E. Rosta,  N. J. Russ,  H. F. Schaefer III,  
 M. W. Schmidt,  N. E. Schultz,  S. Sharma,  N. Shenvi,  C. D. Sherrill,  
 A. C. Simmonett,  A. Sodt,  T. Stein,  D. Stuck,  K. S. Thanthiriwatte,  
 V. Vanovschi,  L. Vogt,  Tao Wang,  A. Warshel,  M. A. Watson,  
 C. F. Williams,  Q. Wu,  X. Xu,  Jun Yang,  W. Zhang,  Yan Zhao

   Please cite Q-Chem as follows:
  "Software for the frontiers of quantum chemistry:
   An overview of developments in the Q-Chem 5 package"
   J. Chem. Phys. 155, 084801 (2021)
   https://doi.org/10.1063/5.0055522 (open access)

 Q-Chem 6.0.0 for Intel X86 EM64T Linux

 Parts of Q-Chem use Armadillo 9.900.5 (Nocturnal Misbehaviour).
 http://arma.sourceforge.net/

 Q-Chem begins on Thu Jul 21 02:41:02 2022  

 Host: nid00522
0

     Scratch files written to /global/cscratch1/sd/ymao90/water_frame0000_almo_B3LYP_631+gd20220721024040//
 Processing $rem in /global/homes/y/ymao90/my_qchem/qchem_embedding_5p4/config/preferences:
 Processing $rem in /global/homes/y/ymao90/.qchemrc:

 Checking the input file for inconsistencies... 	...done.

--------------------------------------------------------------
User input:
--------------------------------------------------------------
$comment
job 1 performs an ALMO calculation for the full solute-
solvent system and save the electron density of the
polarized solvent environment (the 2nd fragment) on disk; 
job 2 read in the saved environment density and calculate
the electric fields at atomic positions of the solute
$end

$molecule
0 1
--
0 1
C    -1.43818   -1.82818   -4.01476  
H    -1.41233   -2.87396   -3.63610  
O    -0.43271   -1.39300   -4.58350  
N    -2.54675   -1.05524   -3.82050  
H    -3.33883   -1.51675   -3.34197  
C    -2.86381   0.26397    -4.38276  
C    -3.04750   0.20902    -5.96107  
C    -4.14270   0.95552    -3.75968  
H    -1.99237   0.97907    -4.12856  
C    -3.33313   1.61300    -6.56629  
H    -3.94314   -0.50849   -6.14469  
H    -2.07810   -0.25211   -6.32889  
C    -4.45992   2.32211    -4.34421  
H    -5.00391   0.26752    -3.88121  
H    -3.90466   0.91385    -2.67347  
C    -4.59606   2.19479    -5.85142  
H    -3.37782   1.54535    -7.60385  
H    -2.50983   2.38505    -6.31858  
H    -5.40106   2.80677    -3.94132  
H    -3.65053   3.04360    -4.17394  
H    -4.86796   3.14491    -6.31801  
H    -5.48783   1.55803    -6.00633  
--
0 1
O    -6.68680   5.09039    -4.20229  
H    -6.69067   5.60900    -5.02576  
H    -5.99396   5.56092    -3.67647  
O    -0.03740   -1.62200   1.16656   
H    0.10520    -0.88803   0.57930   
H    -0.26794   -2.50796   0.77748   
O    1.30594    1.63278    -11.79120 
H    0.36235    1.70600    -11.79511 
H    1.59444    0.74597    -11.70123 
O    -0.67119   4.96216    1.34436   
H    -0.42657   4.07033    1.11205   
H    0.00078    5.54309    1.09104   
O    2.07562    2.45808    -9.34553  
H    1.71662    2.17180    -10.20715 
H    2.76566    1.81449    -9.02847  
O    -6.05588   -4.14946   -9.54731  
H    -5.67966   -3.34063   -9.17480  
H    -5.52270   -4.83284   -9.12840  
O    -2.67481   -1.66772   1.68438   
H    -1.70951   -1.53256   1.71374   
H    -2.80929   -2.61387   1.61257   
O    1.58610    0.00706    -6.29540  
H    1.97294    -0.76341   -6.71159  
H    1.09113    -0.20915   -5.52789  
O    -10.87136  0.74612    -6.23383  
H    -10.60449  1.37093    -6.92742  
H    -9.97849   0.37568    -5.92950  
O    -8.22848   6.45167    1.04908   
H    -7.28269   6.45495    1.16535   
H    -8.55354   6.31026    1.94896   
O    -7.41627   1.43985    0.90212   
H    -6.89364   2.26915    0.91184   
H    -8.07613   1.50132    0.14846   
O    -2.91566   -7.88640   -5.36727  
H    -2.75169   -7.85141   -4.35885  
H    -3.25518   -8.73784   -5.62530  
O    -1.34495   1.59204    -12.08979 
H    -1.38028   0.68575    -12.45566 
H    -1.69455   2.19706    -12.75782 
O    -4.05436   5.17592    -11.61277 
H    -4.41597   6.01827    -11.84102 
H    -3.09166   5.18191    -11.67793 
O    -6.74545   -3.61134   1.30843   
H    -6.35086   -3.95410   2.12281   
H    -7.48284   -3.07086   1.61423   
O    -1.87697   5.50292    -6.55365  
H    -2.04859   6.39382    -6.18085  
H    -2.74689   5.29425    -7.01239  
O    -5.22663   -6.42551   -6.25550  
H    -5.99402   -6.77732   -5.81132  
H    -4.49111   -6.77203   -5.75519  
O    3.83228    0.98508    -3.53030  
H    3.00300    0.54538    -3.12512  
H    3.70460    1.89396    -3.37492  
O    -0.54046   -5.57625   -3.66708  
H    -1.44679   -5.51801   -3.50729  
H    -0.28347   -4.93197   -4.28827  
O    3.18571    -5.32110   -6.08350  
H    2.81537    -6.22177   -6.12464  
H    3.84686    -5.25228   -5.39531  
O    5.42226    -0.93606   -2.75504  
H    5.71783    -0.96740   -3.66615  
H    4.97676    -0.10596   -2.58292  
O    -8.37819   2.72511    -3.95270  
H    -9.16211   3.13578    -3.59868  
H    -7.71645   3.39710    -3.97564  
O    0.85275    2.41290    2.01952   
H    0.07301    2.44710    2.60318   
H    1.52514    2.57508    2.71636   
O    -3.04208   0.32768    3.84677   
H    -3.07974   -0.35864   3.15872   
H    -2.56561   0.11148    4.57835   
O    1.33506    -5.59255   -1.31060  
H    0.73142    -5.67711   -2.01240  
H    1.62481    -6.45557   -1.13241  
O    -3.61944   0.17549    -11.23831 
H    -2.91424   0.80510    -11.28345 
H    -3.21247   -0.59702   -10.93493 
O    3.61599    3.63761    -2.93116  
H    4.24763    4.38560    -2.93008  
H    2.82402    3.99028    -2.62652  
O    5.10618    0.41974    -6.03054  
H    4.32705    0.61185    -5.49568  
H    5.87869    0.70405    -5.47569  
O    4.21319    -1.68904   0.18688   
H    4.91692    -2.30892   0.06697   
H    3.62140    -1.76686   -0.62541  
O    -0.53032   -4.97669   2.67747   
H    -1.31463   -4.52659   2.81704   
H    -0.34617   -4.63729   1.79494   
O    -3.09087   -4.36349   1.84744   
H    -3.51491   -4.82410   2.57557   
H    -2.98437   -5.04327   1.18011   
O    -7.96344   0.13231    -5.14754  
H    -7.50878   -0.15581   -5.93027  
H    -7.77678   1.11809    -4.92784  
O    -10.07040  -1.58939   -2.24013  
H    -10.30791  -1.56992   -1.29441  
H    -9.51191   -2.33143   -2.35218  
O    -5.99263   -6.92651   -2.59549  
H    -6.02755   -7.73135   -2.06383  
H    -6.15467   -6.23900   -1.92856  
O    -8.88918   4.53245    -0.74761  
H    -9.08559   3.94974    -0.04521  
H    -8.51942   5.36456    -0.32046  
O    -6.76787   -2.22222   -4.19272  
H    -7.42167   -2.68135   -3.70163  
H    -7.18172   -1.34863   -4.24790  
O    -10.51826  4.80844    -5.98872  
H    -10.15132  3.91927    -6.15050  
H    -10.59508  4.92697    -5.03401  
O    0.56270    4.87347    -7.66552  
H    1.03306    5.69756    -7.86534  
H    -0.30011   5.03937    -7.29401  
O    0.13590    7.20755    -4.03136  
H    -0.22959   7.11528    -3.18164  
H    0.04235    6.39027    -4.51449  
O    -2.49398   -5.89461   -0.62375  
H    -2.02613   -6.68810   -0.31279  
H    -2.76231   -5.92874   -1.56338  
O    1.71647    2.91587    -5.97481  
H    2.05864    2.03647    -6.30307  
H    1.53563    3.42902    -6.77918  
O    -0.39090   3.30129    -9.96231  
H    -0.25832   3.69708    -9.09963  
H    -0.82882   2.47687    -9.84566  
O    -0.24686   0.11156    -0.91273  
H    -1.00276   0.14557    -1.40826  
H    0.32803    0.90575    -1.07905  
O    -8.30980   -2.17544   -9.01146  
H    -9.09313   -2.70275   -8.94177  
H    -7.61486   -2.74179   -9.32678  
O    -1.94692   -6.55574   -8.64805  
H    -1.52572   -7.34585   -8.23804  
H    -1.86703   -5.90317   -8.01205  
O    0.72587    1.01762    -3.56575  
H    0.69755    1.80759    -4.10687  
H    0.22346    0.23299    -3.90521  
O    -3.07235   2.72385    0.67030   
H    -2.36875   2.50030    1.36169   
H    -3.22283   1.86491    0.18854   
O    -11.14730  2.78129    -4.02688  
H    -10.94558  2.15485    -4.82069  
H    -11.88550  3.34290    -4.33359  
O    -4.81623   8.52439    -6.47109  
H    -4.00116   8.24417    -5.99798  
H    -4.52166   9.04589    -7.21130  
O    -4.37510   5.08698    -8.04836  
H    -4.65111   4.21261    -8.42842  
H    -4.11516   5.73368    -8.73019  
O    -3.86480   6.48500    -2.82954  
H    -4.15373   7.37351    -2.61315  
H    -3.60683   6.07949    -2.03659  
O    -7.22736   -5.07350   -0.96016  
H    -7.09374   -4.47148   -0.19302  
H    -7.43528   -5.88717   -0.54645  
O    -1.03461   -1.28716   -13.15974 
H    -0.08414   -1.35993   -13.00600 
H    -1.45519   -2.10059   -12.93835 
O    5.31419    -2.22672   -6.66345  
H    6.25046    -2.53879   -6.52978  
H    5.28390    -1.26668   -6.53735  
O    -2.36611   7.77353    -5.22014  
H    -2.00606   8.64654    -5.05038  
H    -2.50597   7.38335    -4.36277  
O    -8.48976   -3.78725   -2.95453  
H    -9.00928   -4.29866   -3.55706  
H    -8.08167   -4.36091   -2.26508  
O    -3.19335   7.59978    -9.24506  
H    -3.39580   8.34366    -8.56218  
H    -3.74908   7.87740    -9.93708  
O    -0.62020   4.12656    -4.52247  
H    -1.21420   4.50962    -5.23651  
H    0.13865    3.77431    -5.07763  
O    -10.93475  -2.51332   -5.34627  
H    -11.31291  -3.34113   -5.20077  
H    -10.68191  -2.17732   -4.47491  
O    0.14163    -2.89579   -9.12699  
H    0.75446    -3.31010   -9.73542  
H    0.72283    -2.32554   -8.62082  
O    1.70554    7.21280    -8.70278  
H    1.92232    6.68890    -9.49060  
H    1.97927    8.13749    -8.86279  
O    -6.48981   6.38976    -6.60901  
H    -5.79310   7.07682    -6.54423  
H    -6.02297   5.58848    -6.92149  
O    -3.07169   -8.04842   -2.55218  
H    -3.74844   -8.70474   -2.45189  
H    -2.42028   -8.29386   -1.85328  
O    -7.85190   8.40344    -2.14132  
H    -7.64557   7.52442    -2.43926  
H    -8.62852   8.73135    -2.55487  
O    2.20962    -0.94182   -2.13437  
H    1.48880    -0.58999   -1.55425  
H    1.87415    -1.70176   -2.66535  
O    -3.65373   -3.40235   -5.91864  
H    -2.92307   -3.70716   -6.42930  
H    -3.69392   -3.95510   -5.13637  
O    -6.89944   -0.33362   -7.53915  
H    -7.51928   -0.96041   -7.87141  
H    -6.05571   -0.72070   -7.72740  
O    3.25433    -3.82244   -1.67595  
H    2.51085    -4.42349   -1.87075  
H    3.60597    -3.51992   -2.48505  
O    -6.25849   -0.90194   -0.34922  
H    -6.59678   -0.15310   0.12736   
H    -6.46606   -1.66122   0.20978   
O    -1.33352   -4.48318   -7.17917  
H    -0.53202   -4.20287   -6.65621  
H    -1.33894   -3.92751   -7.97318  
O    -9.91408   2.68783    -7.86519  
H    -8.94435   2.59879    -8.14036  
H    -10.39516  3.44182    -8.30512  
O    -0.45500   -4.14320   0.06328   
H    -1.21800   -4.64315   -0.29770  
H    0.33736    -4.46126   -0.39152  
O    1.19105    4.43852    -2.32999  
H    1.27525    5.35441    -2.01285  
H    0.38534    4.36925    -2.82760  
O    -6.50333   -3.71975   -6.58557  
H    -6.23833   -3.18838   -5.83507  
H    -5.90697   -4.43525   -6.62517  
O    -1.60052   2.50690    3.08762   
H    -1.84576   3.45386    3.23746   
H    -2.29029   1.85879    3.36612   
O    -5.38325   8.67822    -1.23736  
H    -6.18976   8.81553    -1.68985  
H    -4.86726   9.46444    -1.50521  
O    -9.13552   6.94241    -7.34580  
H    -9.59075   6.28192    -6.82331  
H    -8.19969   6.85802    -7.06923  
O    -4.61986   -2.19486   -8.40277  
H    -4.49414   -2.73666   -7.65137  
H    -3.72480   -1.75381   -8.67878  
O    4.06659    0.39213    -8.60348  
H    4.71354    0.14598    -9.36040  
H    4.57823    0.37734    -7.87059  
O    0.79043    -3.78501   -5.63423  
H    1.70953    -4.06314   -5.64147  
H    0.61528    -2.94643   -5.23314  
O    1.83539    -8.29710   -1.08605  
H    2.01144    -8.90665   -0.37252  
H    2.31065    -8.61421   -1.86922  
O    -0.97468   7.21347    -1.23746  
H    -0.10094   7.09465    -0.77154  
H    -1.56876   6.58590    -0.86350  
O    -5.37268   3.06250    -10.44371 
H    -4.99288   3.73808    -10.98971 
H    -4.86795   2.28466    -10.75732 
O    -5.42781   6.77345    0.74157   
H    -4.79341   7.02182    1.41442   
H    -5.46550   7.54067    0.13248   
O    -4.66767   -2.50676   -2.43329  
H    -4.68000   -1.87216   -1.69879  
H    -5.49833   -2.37487   -2.92643  
O    -2.92940   5.38855    -0.56271  
H    -3.41545   5.51218    0.27218   
H    -2.76032   4.48565    -0.69151  
O    1.73017    2.15893    -0.61159  
H    1.53516    2.37201    0.32468   
H    1.68314    3.06222    -1.10310  
O    -7.20454   2.31659    -8.51706  
H    -6.41802   2.45564    -8.98662  
H    -7.01106   1.42776    -8.11393  
O    -1.29548   5.37968    -11.69336 
H    -0.97350   4.56890    -11.14202 
H    -0.60714   5.89457    -12.10682 
O    -9.40989   5.38200    -3.20125  
H    -8.46018   5.21515    -3.42780  
H    -9.48577   5.20736    -2.28844  
O    1.65116    -7.67110   -5.37072  
H    2.28526    -8.04389   -5.89990  
H    1.83124    -7.91760   -4.46742  
O    -5.19679   -0.54255   -13.42298 
H    -5.51944   0.31175    -13.78231 
H    -4.56331   -0.42122   -12.69072 
O    3.70087    -2.60103   -4.26015  
H    3.90195    -1.75103   -3.87499  
H    4.12598    -2.65864   -5.10083  
O    -5.50150   3.88195    0.97675   
H    -5.50855   4.77617    0.59117   
H    -4.66895   3.45747    0.79249   
O    -3.50624   -5.11597   -3.48424  
H    -3.88726   -4.56346   -2.78191  
H    -4.02721   -5.90009   -3.52079  
O    -0.18714   0.68068    -8.33065  
H    0.45635    1.19842    -8.89385  
H    0.43823    0.42269    -7.56875  
O    -1.63976   3.53924    -13.98854 
H    -1.78903   4.44124    -13.73546 
H    -0.65867   3.44901    -14.20326 
O    -9.02623   -4.11074   -6.48267  
H    -9.14110   -3.38133   -5.86829  
H    -8.05467   -4.15610   -6.64509  
O    -2.00815   -1.24345   -9.28810  
H    -1.54619   -2.05644   -9.13998  
H    -1.48348   -0.52617   -8.97351  
O    -8.97621   1.09122    -1.49695  
H    -9.29183   0.20868    -1.78962  
H    -8.52229   1.37621    -2.33510  
O    -11.66957  1.85980    -0.96441  
H    -11.88616  1.66238    -0.06070  
H    -10.76614  1.57428    -1.12717  
O    -8.23373   -0.10828   -11.06388 
H    -8.31120   -0.97273   -11.38613 
H    -8.65231   -0.12246   -10.18103 
O    -0.63059   -8.42218   -6.62834  
H    -1.33985   -8.13813   -6.07247  
H    0.15698    -7.94745   -6.32114  
O    -3.30761   0.15698    -0.11630  
H    -4.18060   -0.02796   -0.39932  
H    -3.21399   -0.48994   0.57145   
O    -7.92386   2.45163    -11.93509 
H    -7.41589   2.49800    -11.10803 
H    -7.89486   1.51971    -12.15647 
O    -1.05130   -8.29180   -0.42720  
H    -0.96191   -9.09698   0.09017   
H    -0.16664   -8.09988   -0.76801  
O    2.58996    -1.85380   -7.94662  
H    3.30404    -2.46473   -7.70284  
H    3.10006    -1.07062   -8.24760  
$end

$rem
JOBTYPE  SP
METHOD  B3LYP
BASIS  6-31+G(D)
SYMMETRY  FALSE
SYM_IGNORE  TRUE
MEM_TOTAL  16000
MEM_STATIC  8000
MAX_SUB_FILE_NUM  16000
BASIS_LIN_DEP_THRESH  6
THRESH  14
SCF_CONVERGENCE  8
GEN_SCFMAN  TRUE
SCF_GUESS  FRAGMO
FD_MAT_VEC_PROD  FALSE
XC_GRID  000075000302
NL_GRID  1
MAX_SCF_CYCLES  200
FRGM_METHOD  STOLL
SCFMI_MODE   1
ALMO_EFIELD  TRUE
$end

$rem_frgm
SCF_CONVERGENCE  4
$end

--------------------------------------------------------------
 ----------------------------------------------------------------
             Standard Nuclear Orientation (Angstroms)
    I     Atom           X                Y                Z
 ----------------------------------------------------------------
    1      C      -1.4381800000    -1.8281800000    -4.0147600000
    2      H      -1.4123300000    -2.8739600000    -3.6361000000
    3      O      -0.4327100000    -1.3930000000    -4.5835000000
    4      N      -2.5467500000    -1.0552400000    -3.8205000000
    5      H      -3.3388300000    -1.5167500000    -3.3419700000
    6      C      -2.8638100000     0.2639700000    -4.3827600000
    7      C      -3.0475000000     0.2090200000    -5.9610700000
    8      C      -4.1427000000     0.9555200000    -3.7596800000
    9      H      -1.9923700000     0.9790700000    -4.1285600000
   10      C      -3.3331300000     1.6130000000    -6.5662900000
   11      H      -3.9431400000    -0.5084900000    -6.1446900000
   12      H      -2.0781000000    -0.2521100000    -6.3288900000
   13      C      -4.4599200000     2.3221100000    -4.3442100000
   14      H      -5.0039100000     0.2675200000    -3.8812100000
   15      H      -3.9046600000     0.9138500000    -2.6734700000
   16      C      -4.5960600000     2.1947900000    -5.8514200000
   17      H      -3.3778200000     1.5453500000    -7.6038500000
   18      H      -2.5098300000     2.3850500000    -6.3185800000
   19      H      -5.4010600000     2.8067700000    -3.9413200000
   20      H      -3.6505300000     3.0436000000    -4.1739400000
   21      H      -4.8679600000     3.1449100000    -6.3180100000
   22      H      -5.4878300000     1.5580300000    -6.0063300000
   23      O      -6.6868000000     5.0903900000    -4.2022900000
   24      H      -6.6906700000     5.6090000000    -5.0257600000
   25      H      -5.9939600000     5.5609200000    -3.6764700000
   26      O      -0.0374000000    -1.6220000000     1.1665600000
   27      H       0.1052000000    -0.8880300000     0.5793000000
   28      H      -0.2679400000    -2.5079600000     0.7774800000
   29      O       1.3059400000     1.6327800000   -11.7912000000
   30      H       0.3623500000     1.7060000000   -11.7951100000
   31      H       1.5944400000     0.7459700000   -11.7012300000
   32      O      -0.6711900000     4.9621600000     1.3443600000
   33      H      -0.4265700000     4.0703300000     1.1120500000
   34      H       0.0007800000     5.5430900000     1.0910400000
   35      O       2.0756200000     2.4580800000    -9.3455300000
   36      H       1.7166200000     2.1718000000   -10.2071500000
   37      H       2.7656600000     1.8144900000    -9.0284700000
   38      O      -6.0558800000    -4.1494600000    -9.5473100000
   39      H      -5.6796600000    -3.3406300000    -9.1748000000
   40      H      -5.5227000000    -4.8328400000    -9.1284000000
   41      O      -2.6748100000    -1.6677200000     1.6843800000
   42      H      -1.7095100000    -1.5325600000     1.7137400000
   43      H      -2.8092900000    -2.6138700000     1.6125700000
   44      O       1.5861000000     0.0070600000    -6.2954000000
   45      H       1.9729400000    -0.7634100000    -6.7115900000
   46      H       1.0911300000    -0.2091500000    -5.5278900000
   47      O     -10.8713600000     0.7461200000    -6.2338300000
   48      H     -10.6044900000     1.3709300000    -6.9274200000
   49      H      -9.9784900000     0.3756800000    -5.9295000000
   50      O      -8.2284800000     6.4516700000     1.0490800000
   51      H      -7.2826900000     6.4549500000     1.1653500000
   52      H      -8.5535400000     6.3102600000     1.9489600000
   53      O      -7.4162700000     1.4398500000     0.9021200000
   54      H      -6.8936400000     2.2691500000     0.9118400000
   55      H      -8.0761300000     1.5013200000     0.1484600000
   56      O      -2.9156600000    -7.8864000000    -5.3672700000
   57      H      -2.7516900000    -7.8514100000    -4.3588500000
   58      H      -3.2551800000    -8.7378400000    -5.6253000000
   59      O      -1.3449500000     1.5920400000   -12.0897900000
   60      H      -1.3802800000     0.6857500000   -12.4556600000
   61      H      -1.6945500000     2.1970600000   -12.7578200000
   62      O      -4.0543600000     5.1759200000   -11.6127700000
   63      H      -4.4159700000     6.0182700000   -11.8410200000
   64      H      -3.0916600000     5.1819100000   -11.6779300000
   65      O      -6.7454500000    -3.6113400000     1.3084300000
   66      H      -6.3508600000    -3.9541000000     2.1228100000
   67      H      -7.4828400000    -3.0708600000     1.6142300000
   68      O      -1.8769700000     5.5029200000    -6.5536500000
   69      H      -2.0485900000     6.3938200000    -6.1808500000
   70      H      -2.7468900000     5.2942500000    -7.0123900000
   71      O      -5.2266300000    -6.4255100000    -6.2555000000
   72      H      -5.9940200000    -6.7773200000    -5.8113200000
   73      H      -4.4911100000    -6.7720300000    -5.7551900000
   74      O       3.8322800000     0.9850800000    -3.5303000000
   75      H       3.0030000000     0.5453800000    -3.1251200000
   76      H       3.7046000000     1.8939600000    -3.3749200000
   77      O      -0.5404600000    -5.5762500000    -3.6670800000
   78      H      -1.4467900000    -5.5180100000    -3.5072900000
   79      H      -0.2834700000    -4.9319700000    -4.2882700000
   80      O       3.1857100000    -5.3211000000    -6.0835000000
   81      H       2.8153700000    -6.2217700000    -6.1246400000
   82      H       3.8468600000    -5.2522800000    -5.3953100000
   83      O       5.4222600000    -0.9360600000    -2.7550400000
   84      H       5.7178300000    -0.9674000000    -3.6661500000
   85      H       4.9767600000    -0.1059600000    -2.5829200000
   86      O      -8.3781900000     2.7251100000    -3.9527000000
   87      H      -9.1621100000     3.1357800000    -3.5986800000
   88      H      -7.7164500000     3.3971000000    -3.9756400000
   89      O       0.8527500000     2.4129000000     2.0195200000
   90      H       0.0730100000     2.4471000000     2.6031800000
   91      H       1.5251400000     2.5750800000     2.7163600000
   92      O      -3.0420800000     0.3276800000     3.8467700000
   93      H      -3.0797400000    -0.3586400000     3.1587200000
   94      H      -2.5656100000     0.1114800000     4.5783500000
   95      O       1.3350600000    -5.5925500000    -1.3106000000
   96      H       0.7314200000    -5.6771100000    -2.0124000000
   97      H       1.6248100000    -6.4555700000    -1.1324100000
   98      O      -3.6194400000     0.1754900000   -11.2383100000
   99      H      -2.9142400000     0.8051000000   -11.2834500000
  100      H      -3.2124700000    -0.5970200000   -10.9349300000
  101      O       3.6159900000     3.6376100000    -2.9311600000
  102      H       4.2476300000     4.3856000000    -2.9300800000
  103      H       2.8240200000     3.9902800000    -2.6265200000
  104      O       5.1061800000     0.4197400000    -6.0305400000
  105      H       4.3270500000     0.6118500000    -5.4956800000
  106      H       5.8786900000     0.7040500000    -5.4756900000
  107      O       4.2131900000    -1.6890400000     0.1868800000
  108      H       4.9169200000    -2.3089200000     0.0669700000
  109      H       3.6214000000    -1.7668600000    -0.6254100000
  110      O      -0.5303200000    -4.9766900000     2.6774700000
  111      H      -1.3146300000    -4.5265900000     2.8170400000
  112      H      -0.3461700000    -4.6372900000     1.7949400000
  113      O      -3.0908700000    -4.3634900000     1.8474400000
  114      H      -3.5149100000    -4.8241000000     2.5755700000
  115      H      -2.9843700000    -5.0432700000     1.1801100000
  116      O      -7.9634400000     0.1323100000    -5.1475400000
  117      H      -7.5087800000    -0.1558100000    -5.9302700000
  118      H      -7.7767800000     1.1180900000    -4.9278400000
  119      O     -10.0704000000    -1.5893900000    -2.2401300000
  120      H     -10.3079100000    -1.5699200000    -1.2944100000
  121      H      -9.5119100000    -2.3314300000    -2.3521800000
  122      O      -5.9926300000    -6.9265100000    -2.5954900000
  123      H      -6.0275500000    -7.7313500000    -2.0638300000
  124      H      -6.1546700000    -6.2390000000    -1.9285600000
  125      O      -8.8891800000     4.5324500000    -0.7476100000
  126      H      -9.0855900000     3.9497400000    -0.0452100000
  127      H      -8.5194200000     5.3645600000    -0.3204600000
  128      O      -6.7678700000    -2.2222200000    -4.1927200000
  129      H      -7.4216700000    -2.6813500000    -3.7016300000
  130      H      -7.1817200000    -1.3486300000    -4.2479000000
  131      O     -10.5182600000     4.8084400000    -5.9887200000
  132      H     -10.1513200000     3.9192700000    -6.1505000000
  133      H     -10.5950800000     4.9269700000    -5.0340100000
  134      O       0.5627000000     4.8734700000    -7.6655200000
  135      H       1.0330600000     5.6975600000    -7.8653400000
  136      H      -0.3001100000     5.0393700000    -7.2940100000
  137      O       0.1359000000     7.2075500000    -4.0313600000
  138      H      -0.2295900000     7.1152800000    -3.1816400000
  139      H       0.0423500000     6.3902700000    -4.5144900000
  140      O      -2.4939800000    -5.8946100000    -0.6237500000
  141      H      -2.0261300000    -6.6881000000    -0.3127900000
  142      H      -2.7623100000    -5.9287400000    -1.5633800000
  143      O       1.7164700000     2.9158700000    -5.9748100000
  144      H       2.0586400000     2.0364700000    -6.3030700000
  145      H       1.5356300000     3.4290200000    -6.7791800000
  146      O      -0.3909000000     3.3012900000    -9.9623100000
  147      H      -0.2583200000     3.6970800000    -9.0996300000
  148      H      -0.8288200000     2.4768700000    -9.8456600000
  149      O      -0.2468600000     0.1115600000    -0.9127300000
  150      H      -1.0027600000     0.1455700000    -1.4082600000
  151      H       0.3280300000     0.9057500000    -1.0790500000
  152      O      -8.3098000000    -2.1754400000    -9.0114600000
  153      H      -9.0931300000    -2.7027500000    -8.9417700000
  154      H      -7.6148600000    -2.7417900000    -9.3267800000
  155      O      -1.9469200000    -6.5557400000    -8.6480500000
  156      H      -1.5257200000    -7.3458500000    -8.2380400000
  157      H      -1.8670300000    -5.9031700000    -8.0120500000
  158      O       0.7258700000     1.0176200000    -3.5657500000
  159      H       0.6975500000     1.8075900000    -4.1068700000
  160      H       0.2234600000     0.2329900000    -3.9052100000
  161      O      -3.0723500000     2.7238500000     0.6703000000
  162      H      -2.3687500000     2.5003000000     1.3616900000
  163      H      -3.2228300000     1.8649100000     0.1885400000
  164      O     -11.1473000000     2.7812900000    -4.0268800000
  165      H     -10.9455800000     2.1548500000    -4.8206900000
  166      H     -11.8855000000     3.3429000000    -4.3335900000
  167      O      -4.8162300000     8.5243900000    -6.4710900000
  168      H      -4.0011600000     8.2441700000    -5.9979800000
  169      H      -4.5216600000     9.0458900000    -7.2113000000
  170      O      -4.3751000000     5.0869800000    -8.0483600000
  171      H      -4.6511100000     4.2126100000    -8.4284200000
  172      H      -4.1151600000     5.7336800000    -8.7301900000
  173      O      -3.8648000000     6.4850000000    -2.8295400000
  174      H      -4.1537300000     7.3735100000    -2.6131500000
  175      H      -3.6068300000     6.0794900000    -2.0365900000
  176      O      -7.2273600000    -5.0735000000    -0.9601600000
  177      H      -7.0937400000    -4.4714800000    -0.1930200000
  178      H      -7.4352800000    -5.8871700000    -0.5464500000
  179      O      -1.0346100000    -1.2871600000   -13.1597400000
  180      H      -0.0841400000    -1.3599300000   -13.0060000000
  181      H      -1.4551900000    -2.1005900000   -12.9383500000
  182      O       5.3141900000    -2.2267200000    -6.6634500000
  183      H       6.2504600000    -2.5387900000    -6.5297800000
  184      H       5.2839000000    -1.2666800000    -6.5373500000
  185      O      -2.3661100000     7.7735300000    -5.2201400000
  186      H      -2.0060600000     8.6465400000    -5.0503800000
  187      H      -2.5059700000     7.3833500000    -4.3627700000
  188      O      -8.4897600000    -3.7872500000    -2.9545300000
  189      H      -9.0092800000    -4.2986600000    -3.5570600000
  190      H      -8.0816700000    -4.3609100000    -2.2650800000
  191      O      -3.1933500000     7.5997800000    -9.2450600000
  192      H      -3.3958000000     8.3436600000    -8.5621800000
  193      H      -3.7490800000     7.8774000000    -9.9370800000
  194      O      -0.6202000000     4.1265600000    -4.5224700000
  195      H      -1.2142000000     4.5096200000    -5.2365100000
  196      H       0.1386500000     3.7743100000    -5.0776300000
  197      O     -10.9347500000    -2.5133200000    -5.3462700000
  198      H     -11.3129100000    -3.3411300000    -5.2007700000
  199      H     -10.6819100000    -2.1773200000    -4.4749100000
  200      O       0.1416300000    -2.8957900000    -9.1269900000
  201      H       0.7544600000    -3.3101000000    -9.7354200000
  202      H       0.7228300000    -2.3255400000    -8.6208200000
  203      O       1.7055400000     7.2128000000    -8.7027800000
  204      H       1.9223200000     6.6889000000    -9.4906000000
  205      H       1.9792700000     8.1374900000    -8.8627900000
  206      O      -6.4898100000     6.3897600000    -6.6090100000
  207      H      -5.7931000000     7.0768200000    -6.5442300000
  208      H      -6.0229700000     5.5884800000    -6.9214900000
  209      O      -3.0716900000    -8.0484200000    -2.5521800000
  210      H      -3.7484400000    -8.7047400000    -2.4518900000
  211      H      -2.4202800000    -8.2938600000    -1.8532800000
  212      O      -7.8519000000     8.4034400000    -2.1413200000
  213      H      -7.6455700000     7.5244200000    -2.4392600000
  214      H      -8.6285200000     8.7313500000    -2.5548700000
  215      O       2.2096200000    -0.9418200000    -2.1343700000
  216      H       1.4888000000    -0.5899900000    -1.5542500000
  217      H       1.8741500000    -1.7017600000    -2.6653500000
  218      O      -3.6537300000    -3.4023500000    -5.9186400000
  219      H      -2.9230700000    -3.7071600000    -6.4293000000
  220      H      -3.6939200000    -3.9551000000    -5.1363700000
  221      O      -6.8994400000    -0.3336200000    -7.5391500000
  222      H      -7.5192800000    -0.9604100000    -7.8714100000
  223      H      -6.0557100000    -0.7207000000    -7.7274000000
  224      O       3.2543300000    -3.8224400000    -1.6759500000
  225      H       2.5108500000    -4.4234900000    -1.8707500000
  226      H       3.6059700000    -3.5199200000    -2.4850500000
  227      O      -6.2584900000    -0.9019400000    -0.3492200000
  228      H      -6.5967800000    -0.1531000000     0.1273600000
  229      H      -6.4660600000    -1.6612200000     0.2097800000
  230      O      -1.3335200000    -4.4831800000    -7.1791700000
  231      H      -0.5320200000    -4.2028700000    -6.6562100000
  232      H      -1.3389400000    -3.9275100000    -7.9731800000
  233      O      -9.9140800000     2.6878300000    -7.8651900000
  234      H      -8.9443500000     2.5987900000    -8.1403600000
  235      H     -10.3951600000     3.4418200000    -8.3051200000
  236      O      -0.4550000000    -4.1432000000     0.0632800000
  237      H      -1.2180000000    -4.6431500000    -0.2977000000
  238      H       0.3373600000    -4.4612600000    -0.3915200000
  239      O       1.1910500000     4.4385200000    -2.3299900000
  240      H       1.2752500000     5.3544100000    -2.0128500000
  241      H       0.3853400000     4.3692500000    -2.8276000000
  242      O      -6.5033300000    -3.7197500000    -6.5855700000
  243      H      -6.2383300000    -3.1883800000    -5.8350700000
  244      H      -5.9069700000    -4.4352500000    -6.6251700000
  245      O      -1.6005200000     2.5069000000     3.0876200000
  246      H      -1.8457600000     3.4538600000     3.2374600000
  247      H      -2.2902900000     1.8587900000     3.3661200000
  248      O      -5.3832500000     8.6782200000    -1.2373600000
  249      H      -6.1897600000     8.8155300000    -1.6898500000
  250      H      -4.8672600000     9.4644400000    -1.5052100000
  251      O      -9.1355200000     6.9424100000    -7.3458000000
  252      H      -9.5907500000     6.2819200000    -6.8233100000
  253      H      -8.1996900000     6.8580200000    -7.0692300000
  254      O      -4.6198600000    -2.1948600000    -8.4027700000
  255      H      -4.4941400000    -2.7366600000    -7.6513700000
  256      H      -3.7248000000    -1.7538100000    -8.6787800000
  257      O       4.0665900000     0.3921300000    -8.6034800000
  258      H       4.7135400000     0.1459800000    -9.3604000000
  259      H       4.5782300000     0.3773400000    -7.8705900000
  260      O       0.7904300000    -3.7850100000    -5.6342300000
  261      H       1.7095300000    -4.0631400000    -5.6414700000
  262      H       0.6152800000    -2.9464300000    -5.2331400000
  263      O       1.8353900000    -8.2971000000    -1.0860500000
  264      H       2.0114400000    -8.9066500000    -0.3725200000
  265      H       2.3106500000    -8.6142100000    -1.8692200000
  266      O      -0.9746800000     7.2134700000    -1.2374600000
  267      H      -0.1009400000     7.0946500000    -0.7715400000
  268      H      -1.5687600000     6.5859000000    -0.8635000000
  269      O      -5.3726800000     3.0625000000   -10.4437100000
  270      H      -4.9928800000     3.7380800000   -10.9897100000
  271      H      -4.8679500000     2.2846600000   -10.7573200000
  272      O      -5.4278100000     6.7734500000     0.7415700000
  273      H      -4.7934100000     7.0218200000     1.4144200000
  274      H      -5.4655000000     7.5406700000     0.1324800000
  275      O      -4.6676700000    -2.5067600000    -2.4332900000
  276      H      -4.6800000000    -1.8721600000    -1.6987900000
  277      H      -5.4983300000    -2.3748700000    -2.9264300000
  278      O      -2.9294000000     5.3885500000    -0.5627100000
  279      H      -3.4154500000     5.5121800000     0.2721800000
  280      H      -2.7603200000     4.4856500000    -0.6915100000
  281      O       1.7301700000     2.1589300000    -0.6115900000
  282      H       1.5351600000     2.3720100000     0.3246800000
  283      H       1.6831400000     3.0622200000    -1.1031000000
  284      O      -7.2045400000     2.3165900000    -8.5170600000
  285      H      -6.4180200000     2.4556400000    -8.9866200000
  286      H      -7.0110600000     1.4277600000    -8.1139300000
  287      O      -1.2954800000     5.3796800000   -11.6933600000
  288      H      -0.9735000000     4.5689000000   -11.1420200000
  289      H      -0.6071400000     5.8945700000   -12.1068200000
  290      O      -9.4098900000     5.3820000000    -3.2012500000
  291      H      -8.4601800000     5.2151500000    -3.4278000000
  292      H      -9.4857700000     5.2073600000    -2.2884400000
  293      O       1.6511600000    -7.6711000000    -5.3707200000
  294      H       2.2852600000    -8.0438900000    -5.8999000000
  295      H       1.8312400000    -7.9176000000    -4.4674200000
  296      O      -5.1967900000    -0.5425500000   -13.4229800000
  297      H      -5.5194400000     0.3117500000   -13.7823100000
  298      H      -4.5633100000    -0.4212200000   -12.6907200000
  299      O       3.7008700000    -2.6010300000    -4.2601500000
  300      H       3.9019500000    -1.7510300000    -3.8749900000
  301      H       4.1259800000    -2.6586400000    -5.1008300000
  302      O      -5.5015000000     3.8819500000     0.9767500000
  303      H      -5.5085500000     4.7761700000     0.5911700000
  304      H      -4.6689500000     3.4574700000     0.7924900000
  305      O      -3.5062400000    -5.1159700000    -3.4842400000
  306      H      -3.8872600000    -4.5634600000    -2.7819100000
  307      H      -4.0272100000    -5.9000900000    -3.5207900000
  308      O      -0.1871400000     0.6806800000    -8.3306500000
  309      H       0.4563500000     1.1984200000    -8.8938500000
  310      H       0.4382300000     0.4226900000    -7.5687500000
  311      O      -1.6397600000     3.5392400000   -13.9885400000
  312      H      -1.7890300000     4.4412400000   -13.7354600000
  313      H      -0.6586700000     3.4490100000   -14.2032600000
  314      O      -9.0262300000    -4.1107400000    -6.4826700000
  315      H      -9.1411000000    -3.3813300000    -5.8682900000
  316      H      -8.0546700000    -4.1561000000    -6.6450900000
  317      O      -2.0081500000    -1.2434500000    -9.2881000000
  318      H      -1.5461900000    -2.0564400000    -9.1399800000
  319      H      -1.4834800000    -0.5261700000    -8.9735100000
  320      O      -8.9762100000     1.0912200000    -1.4969500000
  321      H      -9.2918300000     0.2086800000    -1.7896200000
  322      H      -8.5222900000     1.3762100000    -2.3351000000
  323      O     -11.6695700000     1.8598000000    -0.9644100000
  324      H     -11.8861600000     1.6623800000    -0.0607000000
  325      H     -10.7661400000     1.5742800000    -1.1271700000
  326      O      -8.2337300000    -0.1082800000   -11.0638800000
  327      H      -8.3112000000    -0.9727300000   -11.3861300000
  328      H      -8.6523100000    -0.1224600000   -10.1810300000
  329      O      -0.6305900000    -8.4221800000    -6.6283400000
  330      H      -1.3398500000    -8.1381300000    -6.0724700000
  331      H       0.1569800000    -7.9474500000    -6.3211400000
  332      O      -3.3076100000     0.1569800000    -0.1163000000
  333      H      -4.1806000000    -0.0279600000    -0.3993200000
  334      H      -3.2139900000    -0.4899400000     0.5714500000
  335      O      -7.9238600000     2.4516300000   -11.9350900000
  336      H      -7.4158900000     2.4980000000   -11.1080300000
  337      H      -7.8948600000     1.5197100000   -12.1564700000
  338      O      -1.0513000000    -8.2918000000    -0.4272000000
  339      H      -0.9619100000    -9.0969800000     0.0901700000
  340      H      -0.1666400000    -8.0998800000    -0.7680100000
  341      O       2.5899600000    -1.8538000000    -7.9466200000
  342      H       3.3040400000    -2.4647300000    -7.7028400000
  343      H       3.1000600000    -1.0706200000    -8.2476000000
 ----------------------------------------------------------------
 Nuclear Repulsion Energy =       42791.58598232 hartrees
 There are      570 alpha and      570 beta electrons
 Requested basis set is 6-31+G(d)
 There are 1034 shells and 2658 basis functions

 Total QAlloc Memory Limit  16000 MB
 Mega-Array Size      7821 MB
 MEM_STATIC part      8000 MB

 A cutoff of  1.0D-14 yielded 169771 shell pairs
 There are   1182654 function pairs
 Smallest overlap matrix eigenvalue = 1.21E-06

 Scale SEOQF with 1.000000e-02/1.000000e-02/1.000000e-02

 Standard Electronic Orientation quadrupole field applied
 Nucleus-field energy     =    -0.0000001986 hartrees
 Attempting to make child job directory: /global/cscratch1/sd/ymao90/water_frame0000_almo_B3LYP_631+gd20220721024040//Frg1/
 Attempting to make child job directory: /global/cscratch1/sd/ymao90/water_frame0000_almo_B3LYP_631+gd20220721024040//Frg2/
 Creating input file /global/cscratch1/sd/ymao90/water_frame0000_almo_B3LYP_631+gd20220721024040/Frg1.input
 using default PutDataFrgm: nothing
 calling putenv with: QCSCRATCH=/global/cscratch1/sd/ymao90/water_frame0000_almo_B3LYP_631+gd20220721024040/ 
 Spawning Job For Fragment 0
 Done Job For Fragment 0
 calling putenv with: QCSCRATCH=/global/cscratch1/sd/ymao90 
 calling putenv with: QCTHREADS=16 
 Creating input file /global/cscratch1/sd/ymao90/water_frame0000_almo_B3LYP_631+gd20220721024040/Frg2.input
 using default PutDataFrgm: nothing
 calling putenv with: QCSCRATCH=/global/cscratch1/sd/ymao90/water_frame0000_almo_B3LYP_631+gd20220721024040/ 
 Spawning Job For Fragment 1
 Done Job For Fragment 1
 calling putenv with: QCSCRATCH=/global/cscratch1/sd/ymao90 
 calling putenv with: QCTHREADS=16 
 Time for running child jobs:  CPU 0.47 s  wall 5385.81 s

 -----------------------------------------------------------------------
  General SCF calculation program by
  Eric Jon Sundstrom, Paul Horn, Yuezhi Mao, Dmitri Zuev, Alec White,
  David Stuck, Shaama M.S., Shane Yost, Joonho Lee, David Small,
  Daniel Levine, Susi Lehtola, Hugh Burton, Evgeny Epifanovsky,
  Bang C. Huynh
 -----------------------------------------------------------------------
Performing Restricted Closed Shell SCFMI
Doing General SCFMI
 Exchange:     0.2000 Hartree-Fock + 0.0800 Slater + 0.7200 B88
 Correlation:  0.1900 VWN1RPA + 0.8100 LYP
 Using Euler-Maclaurin-Lebedev (75,302) quadrature formula
performing fock build before subrot guess so that all methods have access
 using 16 threads for integral computing
 -------------------------------------------------------
 OpenMP Integral computing Module                
 Release: version 1.0, May 2013, Q-Chem Inc. Pittsburgh 
 -------------------------------------------------------
Printing subrot_rss_gen Method Specification:
Occupied Subspace Method is 0
Virtual Subspace Method is 0
Energy prior to optimization (guess energy) = -8582.778673296853
Begin Timing: Total SCF Calculation
begin iterations for algorithm: DIIS         
the SCF tolerance is set to 1.00e-08
    1   -8582.7786732969      4.96e-05     00000 
    2   -8582.7912308528      4.97e-05     00000 
    3   -8582.7959097622      3.12e-05     00000 
    4   -8582.7982332275      6.18e-06     00000 
    5   -8582.7983355528      2.93e-06     00000 
    6   -8582.7983590892      8.84e-07     00000 
    7   -8582.7983613737      3.42e-07     00000 
    8   -8582.7983617413      1.28e-07     00000 
    9   -8582.7983617893      5.86e-08     00000 
   10   -8582.7983618003      1.85e-08     00000 
   11   -8582.7983618012      8.79e-09     00000 Convergence criterion met
write pseudocanon occs and virts to disk
write pseudocanon orbital energies to disk
Timing for Total SCF: 5574.00s (wall), 85260.02s (cpu)
SCFMI Energy   -8582.7983618012
<S^2>            0.00000
 Total energy in the final basis set =    -8582.7983618012
    ==================================================
        The end of Object-Oriented SCFman: SCFMI      
    ==================================================

 --------------------------------------------------------------

                    Orbital Energies (a.u.)
 --------------------------------------------------------------

 Alpha MOs
 -- Occupied --
-19.2740 -19.2576 -19.2552 -19.2357 -19.2331 -19.2330 -19.2231 -19.2157
-19.2116 -19.2094 -19.2090 -19.2048 -19.2048 -19.2029 -19.1987 -19.1971
-19.1958 -19.1946 -19.1944 -19.1936 -19.1919 -19.1904 -19.1884 -19.1882
-19.1857 -19.1854 -19.1850 -19.1835 -19.1822 -19.1802 -19.1772 -19.1750
-19.1750 -19.1711 -19.1702 -19.1700 -19.1697 -19.1689 -19.1658 -19.1648
-19.1648 -19.1626 -19.1613 -19.1611 -19.1609 -19.1589 -19.1588 -19.1572
-19.1540 -19.1534 -19.1526 -19.1512 -19.1476 -19.1464 -19.1454 -19.1440
-19.1439 -19.1430 -19.1425 -19.1424 -19.1424 -19.1413 -19.1408 -19.1408
-19.1407 -19.1381 -19.1376 -19.1352 -19.1351 -19.1319 -19.1319 -19.1308
-19.1280 -19.1279 -19.1277 -19.1267 -19.1266 -19.1261 -19.1259 -19.1259
-19.1242 -19.1242 -19.1238 -19.1199 -19.1194 -19.1161 -19.1161 -19.1141
-19.1115 -19.1090 -19.1082 -19.1078 -19.1040 -19.1035 -19.1016 -19.0945
-19.0937 -19.0917 -19.0895 -19.0880 -19.0853 -19.0812 -19.0798 -19.0768
-19.0715 -19.0678 -19.0580 -19.0493 -14.3640 -10.3051 -10.2229 -10.1758
-10.1717 -10.1652 -10.1651 -10.1564  -1.1319  -1.1164  -1.1160  -1.1131
 -1.0998  -1.0929  -1.0927  -1.0775  -1.0761  -1.0753  -1.0687  -1.0653
 -1.0646  -1.0625  -1.0588  -1.0572  -1.0559  -1.0557  -1.0546  -1.0531
 -1.0517  -1.0507  -1.0497  -1.0492  -1.0488  -1.0487  -1.0480  -1.0466
 -1.0460  -1.0459  -1.0448  -1.0421  -1.0415  -1.0384  -1.0344  -1.0344
 -1.0329  -1.0310  -1.0302  -1.0292  -1.0272  -1.0270  -1.0259  -1.0248
 -1.0234  -1.0228  -1.0225  -1.0217  -1.0194  -1.0184  -1.0156  -1.0150
 -1.0148  -1.0137  -1.0136  -1.0111  -1.0094  -1.0093  -1.0077  -1.0073
 -1.0046  -1.0028  -1.0025  -1.0010  -1.0004  -0.9977  -0.9972  -0.9951
 -0.9939  -0.9928  -0.9919  -0.9912  -0.9907  -0.9872  -0.9872  -0.9867
 -0.9860  -0.9838  -0.9815  -0.9814  -0.9811  -0.9791  -0.9788  -0.9776
 -0.9770  -0.9760  -0.9748  -0.9734  -0.9728  -0.9709  -0.9698  -0.9636
 -0.9600  -0.9584  -0.9567  -0.9556  -0.9523  -0.9515  -0.9501  -0.9483
 -0.9394  -0.9365  -0.9274  -0.9252  -0.9227  -0.9175  -0.9164  -0.9142
 -0.9077  -0.8017  -0.7218  -0.7169  -0.6558  -0.6411  -0.6335  -0.6305
 -0.6267  -0.6185  -0.6097  -0.6078  -0.6059  -0.5982  -0.5968  -0.5922
 -0.5902  -0.5880  -0.5879  -0.5864  -0.5862  -0.5859  -0.5833  -0.5832
 -0.5812  -0.5808  -0.5799  -0.5796  -0.5786  -0.5783  -0.5780  -0.5774
 -0.5767  -0.5762  -0.5733  -0.5729  -0.5717  -0.5710  -0.5667  -0.5665
 -0.5651  -0.5651  -0.5577  -0.5573  -0.5565  -0.5553  -0.5542  -0.5539
 -0.5531  -0.5530  -0.5504  -0.5500  -0.5487  -0.5485  -0.5477  -0.5471
 -0.5466  -0.5446  -0.5436  -0.5430  -0.5425  -0.5389  -0.5356  -0.5348
 -0.5338  -0.5332  -0.5325  -0.5322  -0.5313  -0.5286  -0.5280  -0.5262
 -0.5257  -0.5253  -0.5250  -0.5240  -0.5230  -0.5225  -0.5210  -0.5195
 -0.5182  -0.5176  -0.5128  -0.5115  -0.5113  -0.5110  -0.5106  -0.5101
 -0.5079  -0.5069  -0.5063  -0.5058  -0.5052  -0.5043  -0.5032  -0.5032
 -0.5007  -0.5006  -0.4996  -0.4992  -0.4973  -0.4968  -0.4966  -0.4946
 -0.4946  -0.4823  -0.4816  -0.4808  -0.4803  -0.4795  -0.4792  -0.4779
 -0.4764  -0.4762  -0.4707  -0.4704  -0.4690  -0.4661  -0.4629  -0.4616
 -0.4608  -0.4597  -0.4596  -0.4560  -0.4531  -0.4510  -0.4490  -0.4452
 -0.4450  -0.4416  -0.4411  -0.4405  -0.4395  -0.4388  -0.4385  -0.4376
 -0.4374  -0.4352  -0.4347  -0.4342  -0.4329  -0.4305  -0.4303  -0.4293
 -0.4288  -0.4286  -0.4266  -0.4257  -0.4244  -0.4240  -0.4234  -0.4194
 -0.4173  -0.4169  -0.4160  -0.4154  -0.4131  -0.4129  -0.4129  -0.4112
 -0.4110  -0.4103  -0.4100  -0.4098  -0.4086  -0.4071  -0.4059  -0.4051
 -0.4041  -0.4033  -0.4031  -0.4023  -0.4009  -0.4002  -0.3996  -0.3984
 -0.3979  -0.3960  -0.3957  -0.3939  -0.3939  -0.3929  -0.3914  -0.3897
 -0.3891  -0.3878  -0.3868  -0.3865  -0.3854  -0.3848  -0.3841  -0.3832
 -0.3824  -0.3809  -0.3802  -0.3787  -0.3779  -0.3765  -0.3756  -0.3739
 -0.3729  -0.3723  -0.3715  -0.3709  -0.3706  -0.3695  -0.3684  -0.3657
 -0.3648  -0.3642  -0.3635  -0.3626  -0.3618  -0.3610  -0.3601  -0.3598
 -0.3593  -0.3588  -0.3577  -0.3572  -0.3570  -0.3558  -0.3554  -0.3544
 -0.3531  -0.3528  -0.3523  -0.3521  -0.3515  -0.3507  -0.3500  -0.3490
 -0.3488  -0.3477  -0.3466  -0.3461  -0.3458  -0.3433  -0.3426  -0.3423
 -0.3417  -0.3409  -0.3399  -0.3395  -0.3390  -0.3386  -0.3380  -0.3372
 -0.3361  -0.3361  -0.3357  -0.3356  -0.3341  -0.3337  -0.3315  -0.3307
 -0.3303  -0.3289  -0.3286  -0.3282  -0.3272  -0.3266  -0.3256  -0.3244
 -0.3242  -0.3240  -0.3222  -0.3220  -0.3216  -0.3213  -0.3202  -0.3193
 -0.3191  -0.3184  -0.3180  -0.3160  -0.3156  -0.3151  -0.3130  -0.3124
 -0.3095  -0.3089  -0.3079  -0.3069  -0.3064  -0.3057  -0.3056  -0.3034
 -0.3031  -0.3018  -0.3016  -0.3011  -0.3010  -0.3003  -0.2997  -0.2989
 -0.2987  -0.2972  -0.2968  -0.2962  -0.2939  -0.2931  -0.2915  -0.2906
 -0.2900  -0.2899  -0.2892  -0.2882  -0.2879  -0.2875  -0.2861  -0.2854
 -0.2852  -0.2851  -0.2849  -0.2838  -0.2832  -0.2823  -0.2803  -0.2799
 -0.2786  -0.2765  -0.2758  -0.2753  -0.2737  -0.2736  -0.2702  -0.2682
 -0.2658  -0.2635  -0.2625  -0.2597  -0.2547  -0.2530  -0.2526  -0.2490
 -0.2482  -0.2464  -0.2449  -0.2432  -0.2316  -0.2298  -0.2274  -0.2249
 -0.2140  -0.2116
 -- Virtual --
 -0.0866  -0.0683  -0.0528  -0.0467  -0.0451  -0.0400  -0.0359  -0.0255
 -0.0243  -0.0192  -0.0128  -0.0117  -0.0081  -0.0065  -0.0045  -0.0030
 -0.0018   0.0025   0.0064   0.0099   0.0105   0.0119   0.0166   0.0179
  0.0180   0.0196   0.0237   0.0245   0.0282   0.0311   0.0328   0.0336
  0.0355   0.0369   0.0398   0.0407   0.0430   0.0449   0.0464   0.0475
  0.0495   0.0497   0.0518   0.0533   0.0542   0.0582   0.0582   0.0602
  0.0631   0.0648   0.0657   0.0667   0.0683   0.0711   0.0714   0.0722
  0.0739   0.0759   0.0764   0.0775   0.0781   0.0802   0.0810   0.0815
  0.0821   0.0832   0.0855   0.0865   0.0876   0.0880   0.0889   0.0910
  0.0915   0.0930   0.0935   0.0951   0.0962   0.0968   0.0980   0.0989
  0.0997   0.1014   0.1018   0.1034   0.1043   0.1061   0.1066   0.1081
  0.1085   0.1096   0.1107   0.1109   0.1114   0.1120   0.1135   0.1138
  0.1142   0.1170   0.1181   0.1186   0.1190   0.1198   0.1206   0.1222
  0.1225   0.1236   0.1238   0.1249   0.1256   0.1269   0.1276   0.1289
  0.1298   0.1303   0.1311   0.1316   0.1334   0.1343   0.1350   0.1353
  0.1367   0.1369   0.1378   0.1386   0.1388   0.1405   0.1412   0.1413
  0.1422   0.1426   0.1434   0.1452   0.1469   0.1477   0.1479   0.1484
  0.1494   0.1499   0.1511   0.1515   0.1527   0.1531   0.1542   0.1547
  0.1551   0.1558   0.1567   0.1573   0.1584   0.1591   0.1596   0.1606
  0.1619   0.1626   0.1627   0.1635   0.1641   0.1645   0.1654   0.1665
  0.1672   0.1682   0.1687   0.1692   0.1705   0.1710   0.1714   0.1720
  0.1730   0.1736   0.1745   0.1757   0.1764   0.1768   0.1772   0.1773
  0.1790   0.1797   0.1801   0.1807   0.1813   0.1817   0.1824   0.1831
  0.1833   0.1842   0.1848   0.1854   0.1860   0.1866   0.1868   0.1874
  0.1889   0.1899   0.1905   0.1910   0.1917   0.1922   0.1927   0.1935
  0.1943   0.1948   0.1952   0.1961   0.1970   0.1979   0.1979   0.1985
  0.1993   0.1996   0.2000   0.2006   0.2010   0.2015   0.2026   0.2037
  0.2043   0.2047   0.2051   0.2059   0.2073   0.2077   0.2086   0.2094
  0.2099   0.2109   0.2112   0.2117   0.2120   0.2127   0.2135   0.2137
  0.2144   0.2155   0.2158   0.2166   0.2177   0.2180   0.2190   0.2196
  0.2205   0.2207   0.2217   0.2226   0.2232   0.2232   0.2242   0.2246
  0.2250   0.2257   0.2260   0.2267   0.2274   0.2284   0.2285   0.2288
  0.2301   0.2305   0.2311   0.2321   0.2326   0.2331   0.2336   0.2340
  0.2344   0.2351   0.2355   0.2366   0.2370   0.2376   0.2380   0.2388
  0.2402   0.2409   0.2412   0.2415   0.2427   0.2430   0.2439   0.2444
  0.2450   0.2452   0.2455   0.2463   0.2470   0.2475   0.2476   0.2483
  0.2490   0.2497   0.2500   0.2504   0.2509   0.2517   0.2521   0.2529
  0.2537   0.2548   0.2551   0.2556   0.2565   0.2567   0.2573   0.2585
  0.2588   0.2594   0.2597   0.2600   0.2611   0.2618   0.2623   0.2624
  0.2634   0.2642   0.2643   0.2656   0.2659   0.2661   0.2668   0.2671
  0.2676   0.2682   0.2686   0.2696   0.2698   0.2708   0.2711   0.2714
  0.2719   0.2723   0.2728   0.2736   0.2741   0.2748   0.2755   0.2760
  0.2766   0.2772   0.2782   0.2789   0.2798   0.2799   0.2803   0.2807
  0.2812   0.2819   0.2830   0.2835   0.2842   0.2851   0.2861   0.2867
  0.2872   0.2874   0.2889   0.2895   0.2900   0.2903   0.2909   0.2916
  0.2919   0.2922   0.2928   0.2936   0.2940   0.2945   0.2947   0.2952
  0.2956   0.2967   0.2975   0.2983   0.2986   0.2995   0.2999   0.3005
  0.3016   0.3023   0.3028   0.3031   0.3036   0.3043   0.3052   0.3060
  0.3066   0.3068   0.3079   0.3082   0.3095   0.3104   0.3106   0.3112
  0.3121   0.3122   0.3129   0.3135   0.3146   0.3150   0.3154   0.3156
  0.3165   0.3176   0.3182   0.3189   0.3192   0.3200   0.3208   0.3211
  0.3222   0.3224   0.3234   0.3240   0.3250   0.3259   0.3265   0.3272
  0.3281   0.3282   0.3294   0.3304   0.3307   0.3313   0.3323   0.3329
  0.3335   0.3345   0.3355   0.3359   0.3366   0.3372   0.3377   0.3387
  0.3393   0.3399   0.3401   0.3414   0.3419   0.3427   0.3435   0.3438
  0.3441   0.3451   0.3466   0.3475   0.3476   0.3484   0.3499   0.3506
  0.3511   0.3522   0.3528   0.3535   0.3543   0.3551   0.3559   0.3566
  0.3573   0.3585   0.3591   0.3592   0.3606   0.3611   0.3613   0.3616
  0.3624   0.3633   0.3643   0.3648   0.3666   0.3675   0.3679   0.3682
  0.3693   0.3702   0.3707   0.3715   0.3720   0.3729   0.3735   0.3751
  0.3753   0.3757   0.3778   0.3783   0.3794   0.3799   0.3814   0.3824
  0.3833   0.3839   0.3850   0.3857   0.3863   0.3872   0.3879   0.3897
  0.3904   0.3914   0.3930   0.3937   0.3948   0.3950   0.3954   0.3967
  0.3980   0.3986   0.3994   0.4001   0.4009   0.4018   0.4030   0.4037
  0.4043   0.4049   0.4064   0.4069   0.4076   0.4082   0.4097   0.4103
  0.4108   0.4126   0.4138   0.4147   0.4149   0.4166   0.4174   0.4183
  0.4188   0.4194   0.4205   0.4212   0.4217   0.4235   0.4245   0.4265
  0.4274   0.4288   0.4298   0.4304   0.4321   0.4326   0.4328   0.4348
  0.4352   0.4374   0.4384   0.4392   0.4396   0.4411   0.4415   0.4435
  0.4447   0.4451   0.4453   0.4480   0.4492   0.4506   0.4509   0.4524
  0.4536   0.4552   0.4563   0.4568   0.4584   0.4605   0.4612   0.4623
  0.4639   0.4645   0.4667   0.4680   0.4695   0.4701   0.4709   0.4719
  0.4731   0.4748   0.4767   0.4773   0.4797   0.4797   0.4804   0.4822
  0.4837   0.4853   0.4856   0.4874   0.4885   0.4903   0.4913   0.4916
  0.4935   0.4948   0.4978   0.4992   0.4993   0.5006   0.5012   0.5027
  0.5049   0.5072   0.5077   0.5088   0.5107   0.5113   0.5117   0.5135
  0.5151   0.5155   0.5168   0.5176   0.5194   0.5206   0.5214   0.5235
  0.5244   0.5258   0.5282   0.5294   0.5311   0.5327   0.5346   0.5359
  0.5364   0.5370   0.5381   0.5387   0.5403   0.5423   0.5439   0.5443
  0.5468   0.5484   0.5490   0.5517   0.5517   0.5539   0.5580   0.5595
  0.5606   0.5615   0.5621   0.5641   0.5665   0.5689   0.5708   0.5718
  0.5728   0.5737   0.5770   0.5784   0.5793   0.5802   0.5819   0.5848
  0.5887   0.5897   0.5901   0.5924   0.5928   0.5966   0.5977   0.6011
  0.6022   0.6061   0.6077   0.6102   0.6122   0.6136   0.6154   0.6182
  0.6201   0.6237   0.6250   0.6284   0.6297   0.6330   0.6356   0.6365
  0.6401   0.6404   0.6432   0.6487   0.6498   0.6544   0.6557   0.6571
  0.6595   0.6634   0.6664   0.6715   0.6783   0.6797   0.6873   0.6885
  0.6963   0.7023   0.7145   0.7182   0.7297   0.8027   0.8293   0.8534
  0.8687   0.8808   0.8859   0.8948   0.8982   0.9065   0.9182   0.9284
  0.9327   0.9341   0.9378   0.9422   0.9443   0.9471   0.9506   0.9519
  0.9531   0.9568   0.9594   0.9641   0.9662   0.9672   0.9722   0.9739
  0.9773   0.9796   0.9843   0.9867   0.9890   0.9900   0.9919   0.9935
  0.9944   0.9953   1.0004   1.0028   1.0035   1.0051   1.0063   1.0085
  1.0097   1.0108   1.0139   1.0150   1.0158   1.0177   1.0188   1.0191
  1.0216   1.0227   1.0274   1.0277   1.0307   1.0318   1.0323   1.0354
  1.0377   1.0382   1.0385   1.0419   1.0430   1.0450   1.0454   1.0460
  1.0473   1.0504   1.0509   1.0513   1.0527   1.0536   1.0541   1.0544
  1.0564   1.0579   1.0585   1.0588   1.0609   1.0614   1.0631   1.0640
  1.0646   1.0667   1.0672   1.0680   1.0691   1.0702   1.0719   1.0723
  1.0730   1.0737   1.0751   1.0758   1.0768   1.0772   1.0778   1.0796
  1.0801   1.0811   1.0816   1.0824   1.0846   1.0847   1.0858   1.0871
  1.0885   1.0895   1.0908   1.0914   1.0934   1.0936   1.0946   1.0958
  1.0964   1.0974   1.0975   1.0985   1.0994   1.1003   1.1014   1.1023
  1.1030   1.1043   1.1045   1.1056   1.1071   1.1076   1.1087   1.1088
  1.1094   1.1100   1.1115   1.1127   1.1137   1.1147   1.1153   1.1162
  1.1169   1.1184   1.1193   1.1205   1.1208   1.1217   1.1231   1.1240
  1.1242   1.1248   1.1253   1.1271   1.1277   1.1286   1.1289   1.1290
  1.1297   1.1307   1.1315   1.1324   1.1329   1.1346   1.1355   1.1360
  1.1372   1.1376   1.1388   1.1405   1.1408   1.1423   1.1428   1.1438
  1.1443   1.1455   1.1457   1.1463   1.1472   1.1476   1.1486   1.1492
  1.1502   1.1507   1.1517   1.1520   1.1523   1.1535   1.1545   1.1555
  1.1558   1.1566   1.1582   1.1593   1.1605   1.1607   1.1620   1.1623
  1.1630   1.1641   1.1653   1.1660   1.1667   1.1679   1.1685   1.1689
  1.1703   1.1705   1.1714   1.1720   1.1728   1.1743   1.1747   1.1753
  1.1759   1.1769   1.1783   1.1785   1.1796   1.1805   1.1811   1.1819
  1.1826   1.1834   1.1838   1.1844   1.1857   1.1868   1.1871   1.1872
  1.1898   1.1899   1.1907   1.1917   1.1920   1.1932   1.1938   1.1941
  1.1955   1.1956   1.1969   1.1977   1.1984   1.1990   1.1995   1.2017
  1.2032   1.2037   1.2047   1.2049   1.2058   1.2059   1.2067   1.2071
  1.2082   1.2095   1.2103   1.2107   1.2111   1.2122   1.2124   1.2137
  1.2139   1.2152   1.2156   1.2163   1.2171   1.2176   1.2188   1.2190
  1.2201   1.2208   1.2212   1.2223   1.2232   1.2248   1.2252   1.2259
  1.2267   1.2275   1.2290   1.2293   1.2298   1.2303   1.2307   1.2316
  1.2320   1.2327   1.2340   1.2347   1.2356   1.2363   1.2376   1.2384
  1.2391   1.2392   1.2403   1.2407   1.2413   1.2423   1.2426   1.2432
  1.2446   1.2451   1.2466   1.2474   1.2476   1.2483   1.2491   1.2496
  1.2504   1.2510   1.2524   1.2529   1.2542   1.2546   1.2558   1.2569
  1.2577   1.2585   1.2588   1.2594   1.2601   1.2613   1.2628   1.2640
  1.2647   1.2649   1.2665   1.2667   1.2674   1.2682   1.2687   1.2703
  1.2712   1.2714   1.2722   1.2729   1.2747   1.2754   1.2763   1.2769
  1.2774   1.2777   1.2783   1.2795   1.2804   1.2819   1.2826   1.2828
  1.2843   1.2849   1.2851   1.2855   1.2863   1.2877   1.2886   1.2888
  1.2894   1.2910   1.2918   1.2934   1.2936   1.2943   1.2952   1.2958
  1.2970   1.2977   1.2983   1.2996   1.3000   1.3006   1.3016   1.3022
  1.3039   1.3043   1.3058   1.3069   1.3075   1.3084   1.3095   1.3113
  1.3123   1.3127   1.3141   1.3147   1.3148   1.3153   1.3158   1.3172
  1.3183   1.3191   1.3197   1.3213   1.3224   1.3228   1.3240   1.3246
  1.3254   1.3265   1.3276   1.3288   1.3293   1.3308   1.3318   1.3326
  1.3334   1.3343   1.3354   1.3363   1.3378   1.3387   1.3390   1.3402
  1.3409   1.3414   1.3423   1.3433   1.3442   1.3453   1.3458   1.3459
  1.3471   1.3480   1.3488   1.3498   1.3502   1.3520   1.3525   1.3536
  1.3544   1.3562   1.3564   1.3573   1.3591   1.3596   1.3600   1.3602
  1.3628   1.3639   1.3644   1.3657   1.3661   1.3673   1.3680   1.3687
  1.3708   1.3713   1.3724   1.3729   1.3742   1.3750   1.3759   1.3781
  1.3788   1.3794   1.3809   1.3818   1.3829   1.3840   1.3849   1.3865
  1.3870   1.3874   1.3891   1.3904   1.3918   1.3924   1.3939   1.3949
  1.3964   1.3988   1.3991   1.3997   1.4008   1.4018   1.4028   1.4031
  1.4050   1.4053   1.4067   1.4083   1.4096   1.4099   1.4120   1.4124
  1.4137   1.4156   1.4164   1.4177   1.4192   1.4202   1.4209   1.4214
  1.4223   1.4231   1.4242   1.4263   1.4269   1.4287   1.4293   1.4304
  1.4315   1.4328   1.4341   1.4349   1.4356   1.4361   1.4392   1.4393
  1.4420   1.4426   1.4439   1.4444   1.4456   1.4469   1.4492   1.4510
  1.4516   1.4545   1.4554   1.4562   1.4569   1.4593   1.4609   1.4629
  1.4643   1.4653   1.4666   1.4682   1.4699   1.4712   1.4721   1.4736
  1.4742   1.4753   1.4766   1.4789   1.4800   1.4806   1.4815   1.4837
  1.4860   1.4877   1.4888   1.4904   1.4929   1.4942   1.4956   1.4966
  1.4984   1.5002   1.5012   1.5034   1.5038   1.5050   1.5092   1.5100
  1.5127   1.5138   1.5154   1.5178   1.5190   1.5194   1.5207   1.5225
  1.5236   1.5245   1.5286   1.5293   1.5303   1.5339   1.5354   1.5367
  1.5400   1.5415   1.5447   1.5457   1.5476   1.5494   1.5509   1.5535
  1.5551   1.5572   1.5603   1.5619   1.5637   1.5652   1.5676   1.5683
  1.5711   1.5732   1.5752   1.5770   1.5788   1.5804   1.5830   1.5864
  1.5884   1.5895   1.5923   1.5937   1.5950   1.5961   1.5982   1.6006
  1.6023   1.6045   1.6065   1.6074   1.6099   1.6116   1.6144   1.6156
  1.6178   1.6199   1.6218   1.6234   1.6242   1.6259   1.6281   1.6302
  1.6319   1.6331   1.6342   1.6343   1.6367   1.6400   1.6410   1.6434
  1.6451   1.6463   1.6480   1.6495   1.6506   1.6517   1.6543   1.6543
  1.6553   1.6558   1.6587   1.6597   1.6606   1.6635   1.6654   1.6679
  1.6692   1.6697   1.6704   1.6716   1.6736   1.6750   1.6776   1.6792
  1.6799   1.6810   1.6835   1.6846   1.6870   1.6883   1.6910   1.6914
  1.6926   1.6956   1.6971   1.6978   1.6983   1.6997   1.7005   1.7014
  1.7020   1.7031   1.7035   1.7046   1.7065   1.7080   1.7093   1.7105
  1.7116   1.7121   1.7132   1.7137   1.7155   1.7170   1.7180   1.7196
  1.7198   1.7207   1.7214   1.7227   1.7230   1.7231   1.7242   1.7256
  1.7269   1.7277   1.7280   1.7286   1.7308   1.7309   1.7325   1.7334
  1.7346   1.7349   1.7362   1.7365   1.7373   1.7381   1.7388   1.7392
  1.7424   1.7431   1.7432   1.7440   1.7444   1.7460   1.7466   1.7475
  1.7475   1.7484   1.7487   1.7502   1.7515   1.7518   1.7527   1.7532
  1.7539   1.7554   1.7563   1.7570   1.7578   1.7587   1.7591   1.7597
  1.7609   1.7611   1.7613   1.7626   1.7638   1.7647   1.7651   1.7667
  1.7670   1.7679   1.7683   1.7696   1.7701   1.7715   1.7717   1.7725
  1.7740   1.7751   1.7773   1.7774   1.7780   1.7791   1.7802   1.7810
  1.7816   1.7824   1.7829   1.7830   1.7834   1.7844   1.7852   1.7872
  1.7876   1.7879   1.7900   1.7903   1.7909   1.7916   1.7921   1.7938
  1.7948   1.7955   1.7964   1.7966   1.7984   1.7986   1.7995   1.8004
  1.8021   1.8032   1.8033   1.8039   1.8050   1.8056   1.8061   1.8067
  1.8085   1.8087   1.8093   1.8101   1.8108   1.8111   1.8126   1.8128
  1.8136   1.8142   1.8156   1.8161   1.8165   1.8175   1.8181   1.8188
  1.8195   1.8205   1.8216   1.8225   1.8227   1.8234   1.8239   1.8246
  1.8248   1.8255   1.8263   1.8276   1.8289   1.8303   1.8307   1.8319
  1.8328   1.8339   1.8341   1.8353   1.8364   1.8371   1.8387   1.8393
  1.8400   1.8404   1.8407   1.8416   1.8427   1.8444   1.8452   1.8461
  1.8465   1.8481   1.8496   1.8500   1.8508   1.8519   1.8527   1.8538
  1.8551   1.8559   1.8567   1.8577   1.8591   1.8597   1.8614   1.8619
  1.8623   1.8631   1.8636   1.8646   1.8669   1.8672   1.8683   1.8693
  1.8709   1.8712   1.8715   1.8721   1.8730   1.8740   1.8747   1.8754
  1.8760   1.8784   1.8798   1.8817   1.8821   1.8838   1.8844   1.8851
  1.8860   1.8865   1.8879   1.8884   1.8895   1.8907   1.8924   1.8928
  1.8945   1.8948   1.8958   1.8983   1.8992   1.9004   1.9009   1.9019
  1.9026   1.9035   1.9049   1.9070   1.9080   1.9083   1.9090   1.9103
  1.9113   1.9128   1.9133   1.9145   1.9170   1.9183   1.9192   1.9204
  1.9219   1.9231   1.9243   1.9253   1.9260   1.9276   1.9279   1.9284
  1.9301   1.9310   1.9332   1.9352   1.9364   1.9374   1.9388   1.9393
  1.9407   1.9415   1.9428   1.9454   1.9465   1.9477   1.9490   1.9515
  1.9523   1.9536   1.9559   1.9573   1.9584   1.9604   1.9626   1.9637
  1.9647   1.9662   1.9688   1.9713   1.9718   1.9722   1.9743   1.9754
  1.9759   1.9774   1.9798   1.9828   1.9835   1.9857   1.9879   1.9890
  1.9915   1.9931   1.9948   1.9957   1.9973   1.9997   2.0019   2.0041
  2.0050   2.0069   2.0079   2.0085   2.0099   2.0118   2.0141   2.0168
  2.0174   2.0211   2.0223   2.0230   2.0251   2.0259   2.0289   2.0320
  2.0327   2.0355   2.0375   2.0387   2.0405   2.0419   2.0435   2.0456
  2.0476   2.0485   2.0513   2.0523   2.0548   2.0552   2.0577   2.0610
  2.0647   2.0653   2.0687   2.0699   2.0718   2.0743   2.0765   2.0797
  2.0803   2.0843   2.0861   2.0889   2.0910   2.0926   2.0935   2.0959
  2.1000   2.1024   2.1043   2.1081   2.1122   2.1131   2.1176   2.1196
  2.1233   2.1277   2.1342   2.1401   2.1440   2.1511   2.1528   2.1552
  2.1663   2.1768   2.1791   2.1840   2.1872   2.1892   2.2069   2.2112
  2.2442   2.2483   2.2535   2.2564   2.2617   2.2732   2.2745   2.2750
  2.2818   2.2907   2.2974   2.3010   2.3038   2.3161   2.3188   2.3260
  2.3275   2.3299   2.3373   2.3416   2.3436   2.3455   2.3470   2.3492
  2.3504   2.3539   2.3568   2.3593   2.3660   2.3668   2.3686   2.3706
  2.3720   2.3723   2.3765   2.3782   2.3803   2.3830   2.3848   2.3890
  2.3910   2.3915   2.3935   2.3958   2.3979   2.3994   2.4034   2.4047
  2.4095   2.4106   2.4115   2.4128   2.4142   2.4159   2.4173   2.4206
  2.4215   2.4239   2.4266   2.4279   2.4282   2.4305   2.4325   2.4344
  2.4364   2.4372   2.4384   2.4418   2.4431   2.4487   2.4503   2.4511
  2.4536   2.4545   2.4569   2.4604   2.4609   2.4652   2.4679   2.4687
  2.4709   2.4726   2.4742   2.4747   2.4779   2.4786   2.4800   2.4816
  2.4843   2.4858   2.4903   2.4929   2.4937   2.4959   2.4961   2.4978
  2.4991   2.5065   2.5094   2.5151   2.5165   2.5193   2.5212   2.5264
  2.5303   2.5325   2.5378   2.5408   2.5441   2.5509   2.5555   2.5596
  2.5610   2.5646   2.5687   2.5703   2.5771   2.5814   2.5954   2.6017
  2.6067   2.6152   2.6181   2.6195   2.6224   2.6228   2.6368   2.6373
  2.6381   2.6399   2.6432   2.6488   2.6534   2.6603   2.6620   2.6639
  2.6661   2.6683   2.6726   2.6746   2.6760   2.6770   2.6790   2.6805
  2.6816   2.6821   2.6914   2.6916   2.6936   2.6951   2.6962   2.6984
  2.7000   2.7064   2.7082   2.7101   2.7151   2.7180   2.7199   2.7206
  2.7223   2.7235   2.7248   2.7264   2.7272   2.7276   2.7303   2.7309
  2.7329   2.7340   2.7386   2.7390   2.7416   2.7434   2.7441   2.7444
  2.7471   2.7489   2.7502   2.7508   2.7536   2.7542   2.7559   2.7576
  2.7584   2.7597   2.7627   2.7644   2.7649   2.7679   2.7690   2.7719
  2.7737   2.7771   2.7789   2.7798   2.7821   2.7834   2.7848   2.7872
  2.7889   2.7904   2.7941   2.7963   2.7974   2.7981   2.8016   2.8049
  2.8073   2.8101   2.8116   2.8137   2.8169   2.8181   2.8230   2.8292
  2.8318   2.8338   2.8345   2.8386   2.8398   2.8431   2.8503   2.8516
  2.8583   2.8641   2.8664   2.8709   2.8819   2.8859   2.8903   2.8928
  2.9142   2.9454   3.0792   3.2431   3.8145   3.8163   3.8494   3.8723
  3.8819   3.9386   3.9398   3.9564   3.9672   3.9698   3.9820   3.9881
  3.9917   4.0071   4.0107   4.0144   4.0219   4.0263   4.0309   4.0365
  4.0386   4.0449   4.0473   4.0537   4.0581   4.0718   4.0730   4.0805
  4.0855   4.0956   4.0999   4.1073   4.1104   4.1112   4.1181   4.1214
  4.1277   4.1309   4.1314   4.1407   4.1412   4.1529   4.1532   4.1597
  4.1626   4.1722   4.1731   4.1770   4.1831   4.1869   4.1931   4.1982
  4.2004   4.2060   4.2105   4.2140   4.2213   4.2220   4.2293   4.2306
  4.2361   4.2401   4.2441   4.2504   4.2550   4.2601   4.2637   4.2700
  4.2730   4.2818   4.2855   4.2879   4.2935   4.2984   4.3062   4.3099
  4.3123   4.3177   4.3237   4.3336   4.3405   4.3455   4.3460   4.3566
  4.3628   4.3696   4.3758   4.3876   4.3950   4.4003   4.4066   4.4125
  4.4191   4.4320   4.4364   4.4452   4.4561   4.4673   4.4724   4.4823
  4.4960   4.4995   4.5127   4.5193   4.5456   4.5494   4.5709   4.5895
  4.5963   4.6357   4.6534   4.6768   4.7585   4.7926   4.7961   4.8982
 --------------------------------------------------------------

          Ground-State Mulliken Net Atomic Charges

     Atom                 Charge (a.u.)
  ----------------------------------------
      1 C                     0.391232
      2 H                     0.164431
      3 O                    -0.738332
      4 N                    -0.375965
      5 H                     0.493409
      6 C                    -0.281047
      7 C                    -0.212282
      8 C                    -0.438477
      9 H                     0.214489
     10 C                    -0.382082
     11 H                     0.224938
     12 H                     0.200697
     13 C                    -0.492991
     14 H                     0.229477
     15 H                     0.196523
     16 C                    -0.434994
     17 H                     0.209089
     18 H                     0.195889
     19 H                     0.224268
     20 H                     0.211409
     21 H                     0.190480
     22 H                     0.209838
     23 O                    -1.142252
     24 H                     0.620238
     25 H                     0.528556
     26 O                    -1.141862
     27 H                     0.631008
     28 H                     0.599762
     29 O                    -1.187063
     30 H                     0.653761
     31 H                     0.515341
     32 O                    -1.074400
     33 H                     0.550837
     34 H                     0.505830
     35 O                    -1.149271
     36 H                     0.626702
     37 H                     0.569373
     38 O                    -1.029114
     39 H                     0.598383
     40 H                     0.487658
     41 O                    -1.250995
     42 H                     0.586606
     43 H                     0.610233
     44 O                    -1.245612
     45 H                     0.642160
     46 H                     0.572134
     47 O                    -1.113938
     48 H                     0.602546
     49 H                     0.544749
     50 O                    -1.070262
     51 H                     0.569920
     52 H                     0.499932
     53 O                    -1.110663
     54 H                     0.564858
     55 H                     0.569028
     56 O                    -1.184681
     57 H                     0.581725
     58 H                     0.553572
     59 O                    -1.259527
     60 H                     0.583253
     61 H                     0.634921
     62 O                    -1.119204
     63 H                     0.500342
     64 H                     0.604766
     65 O                    -1.030951
     66 H                     0.507126
     67 H                     0.513342
     68 O                    -1.219505
     69 H                     0.618798
     70 H                     0.581915
     71 O                    -1.026762
     72 H                     0.492244
     73 H                     0.567128
     74 O                    -1.259850
     75 H                     0.607436
     76 H                     0.661745
     77 O                    -1.141799
     78 H                     0.581029
     79 H                     0.609407
     80 O                    -1.012162
     81 H                     0.498165
     82 H                     0.498356
     83 O                    -1.009559
     84 H                     0.472342
     85 H                     0.590225
     86 O                    -1.178014
     87 H                     0.612405
     88 H                     0.566764
     89 O                    -1.100677
     90 H                     0.602543
     91 H                     0.484832
     92 O                    -1.080434
     93 H                     0.594995
     94 H                     0.512865
     95 O                    -1.280349
     96 H                     0.606052
     97 H                     0.607540
     98 O                    -1.141019
     99 H                     0.552731
    100 H                     0.572837
    101 O                    -1.062181
    102 H                     0.478602
    103 H                     0.579856
    104 O                    -1.185189
    105 H                     0.619728
    106 H                     0.540580
    107 O                    -0.961219
    108 H                     0.467841
    109 H                     0.559675
    110 O                    -1.006559
    111 H                     0.515054
    112 H                     0.588881
    113 O                    -1.201677
    114 H                     0.517865
    115 H                     0.603006
    116 O                    -1.226363
    117 H                     0.649647
    118 H                     0.580419
    119 O                    -1.095660
    120 H                     0.500795
    121 H                     0.606024
    122 O                    -1.042810
    123 H                     0.467607
    124 H                     0.553763
    125 O                    -1.059405
    126 H                     0.511705
    127 H                     0.561671
    128 O                    -1.287252
    129 H                     0.670245
    130 H                     0.605231
    131 O                    -1.067418
    132 H                     0.563195
    133 H                     0.540095
    134 O                    -1.219202
    135 H                     0.588967
    136 H                     0.624662
    137 O                    -1.127524
    138 H                     0.580695
    139 H                     0.584970
    140 O                    -1.222455
    141 H                     0.610645
    142 H                     0.596336
    143 O                    -1.037225
    144 H                     0.518412
    145 H                     0.590445
    146 O                    -1.186696
    147 H                     0.624465
    148 H                     0.556008
    149 O                    -1.144527
    150 H                     0.558901
    151 H                     0.601921
    152 O                    -1.150473
    153 H                     0.538020
    154 H                     0.560341
    155 O                    -1.056741
    156 H                     0.521435
    157 H                     0.604920
    158 O                    -1.118432
    159 H                     0.548483
    160 H                     0.548786
    161 O                    -1.177936
    162 H                     0.566369
    163 H                     0.600779
    164 O                    -1.091899
    165 H                     0.572730
    166 H                     0.492643
    167 O                    -1.058029
    168 H                     0.594348
    169 H                     0.462564
    170 O                    -1.095692
    171 H                     0.545277
    172 H                     0.571338
    173 O                    -1.138444
    174 H                     0.538568
    175 H                     0.644965
    176 O                    -1.089743
    177 H                     0.597465
    178 H                     0.495514
    179 O                    -0.988645
    180 H                     0.474997
    181 H                     0.517974
    182 O                    -1.136280
    183 H                     0.513942
    184 H                     0.587929
    185 O                    -1.147248
    186 H                     0.537180
    187 H                     0.585272
    188 O                    -1.238285
    189 H                     0.544536
    190 H                     0.621363
    191 O                    -0.936469
    192 H                     0.416925
    193 H                     0.505280
    194 O                    -1.172020
    195 H                     0.603203
    196 H                     0.545053
    197 O                    -1.066492
    198 H                     0.533144
    199 H                     0.534285
    200 O                    -1.090823
    201 H                     0.498702
    202 H                     0.584797
    203 O                    -0.996127
    204 H                     0.474284
    205 H                     0.512100
    206 O                    -1.235997
    207 H                     0.638332
    208 H                     0.576293
    209 O                    -1.089215
    210 H                     0.503812
    211 H                     0.562328
    212 O                    -1.022546
    213 H                     0.518127
    214 H                     0.536580
    215 O                    -1.116111
    216 H                     0.598332
    217 H                     0.517823
    218 O                    -1.175001
    219 H                     0.604447
    220 H                     0.589308
    221 O                    -1.263696
    222 H                     0.642741
    223 H                     0.604813
    224 O                    -1.140540
    225 H                     0.592221
    226 H                     0.580154
[...]
          307         308         309         310         311         312
    1  -1.9363636   0.1178595   2.0182257   1.4330029   0.0545558  -0.2231115
    2  -3.6138821   0.0199152   0.9811960  -0.3945554   0.5492727   3.3153002
    3   0.0873777  -0.9692685  -2.3428978   0.4112022  -2.7442486  -2.0385999
          313         314         315         316         317         318
    1   2.8112997  -2.3789305  -2.3144452  -0.3036249  -0.1510956   1.1005741
    2   0.5054579  -2.0450884   0.2117592  -2.1759021  -0.5744634  -2.8133344
    3  -3.0789915  -0.9227165   0.8396616  -1.2273509  -1.6016883  -1.3259612
          319         320         321         322         323         324
    1   1.2333769  -1.6114484  -2.4297756  -0.2936785  -2.6966373  -2.8472124
    2   1.3742044   0.1183516  -2.0426981   0.6126044   0.3287413  -0.3867797
    3  -0.4991267   1.4390675   0.5457847  -0.7388690   1.0242552   3.7275909
          325         326         327         328         329         330
    1  -0.5275172  -1.5204037  -1.7818205  -2.9233609   0.6215544  -1.0433610
    2  -0.4919950  -0.1695997  -3.0178747  -0.1935207  -2.8146630  -1.9558092
    3   0.9852551  -2.1544072  -3.1189817   0.1545338  -1.2701194   0.4558603
          331         332         333         334         335         336
    1   2.4182755  -0.0936945  -2.6300909  -0.2331450  -1.6660546  -0.4139687
    2  -1.3389706   0.2819953  -0.2908929  -1.4064771   0.9979616   0.9190932
    3  -0.4538235   0.8867701   0.2227237   2.9156338  -2.3623151  -0.2260103
          337         338         339         340         341         342
    1  -1.3686374   0.0914608   0.4090721   2.4725454   1.3844112   3.4034160
    2  -1.7431294  -2.3456116  -4.3781564  -1.8923709  -1.0861036  -2.6912369
    3  -3.0163310   1.3291917   2.6460020   0.3477028  -1.5749786  -1.0124098
          343
    1   2.7431278
    2   0.7677978
    3  -2.3632736
 EField
            1           2           3           4           5           6
    1  -0.0296505  -0.0223497  -0.0360960  -0.0241845  -0.0319554  -0.0125917
    2  -0.0050178   0.0001640  -0.0085825  -0.0090108  -0.0227834  -0.0021970
    3   0.0054833   0.0074390   0.0046586   0.0017274   0.0076626   0.0000906
            7           8           9          10          11          12
    1  -0.0084569  -0.0042353  -0.0111299  -0.0021146  -0.0043475  -0.0143455
    2  -0.0028971  -0.0034719   0.0098091  -0.0018224  -0.0095301   0.0016827
    3   0.0001833  -0.0013936   0.0011170   0.0018437   0.0042206  -0.0040871
           13          14          15          16          17          18
    1  -0.0034461  -0.0021705  -0.0019886  -0.0036542  -0.0004121  -0.0016236
    2   0.0005524  -0.0063041  -0.0031423  -0.0009162  -0.0036501  -0.0015964
    3  -0.0003199  -0.0017269  -0.0031916   0.0030588   0.0020675   0.0023704
           19          20          21          22          23          24
    1  -0.0034694  -0.0014392  -0.0045976  -0.0028134  -0.0485283  -0.0079491
    2   0.0049146   0.0005246  -0.0016552  -0.0015037  -0.0798450   0.0261295
    3  -0.0022179  -0.0009283   0.0070146   0.0011280   0.0189279  -0.0534508
           25          26          27          28          29          30
    1   0.0289874   0.0136925   0.0001595   0.0042654   0.0577961  -0.0846449
    2   0.0031502   0.0015956   0.0415217  -0.0178150   0.0886063   0.0019133
    3   0.0208051   0.0908236  -0.0571473  -0.0308023  -0.0161407  -0.0050166
           31          32          33          34          35          36
    1   0.0177365  -0.1001437   0.0235447   0.0736117  -0.0263630  -0.0083506
    2  -0.0774059   0.0217233  -0.0590310   0.0561361   0.0844078  -0.0021137
    3   0.0041168   0.0514506  -0.0147916  -0.0227882   0.0440497  -0.0499906
           37          38          39          40          41          42
    1   0.0199504  -0.0773411   0.0274344   0.0238109  -0.0586425   0.0636062
    2  -0.0126783  -0.0061323   0.0477767  -0.0440710   0.0642861   0.0098207
    3   0.0005187  -0.0711957   0.0150881   0.0189141   0.0022535  -0.0070390
           43          44          45          46          47          48
    1  -0.0137321   0.0240766   0.0256802  -0.0243897  -0.0905870   0.0102734
    2  -0.0586342   0.0942161  -0.0609418  -0.0099660  -0.0292008   0.0352724
    3  -0.0036528  -0.0428049  -0.0273689   0.0551224   0.0312053  -0.0396915
           49          50          51          52          53          54
    1   0.0101682  -0.0549466   0.0739816  -0.0262661   0.0038269   0.0253136
    2  -0.0097200   0.0184381   0.0050713  -0.0079918  -0.0721018   0.0382175
    3   0.0104230  -0.0890503  -0.0003834   0.0415761   0.0593434  -0.0010728
           55          56          57          58          59          60
    1  -0.0117119   0.0197291  -0.0021608  -0.0240317   0.0278916  -0.0043839
    2  -0.0014391   0.0840814  -0.0083226  -0.0585860   0.0254642  -0.0429521
    3  -0.0260568  -0.0512850   0.0116362  -0.0153734   0.0830342  -0.0251889
           61          62          63          64          65          66
    1  -0.0204675  -0.0478141  -0.0260372   0.0589122   0.0357222   0.0287362
    2   0.0406591  -0.0845212   0.0616366   0.0123370  -0.0127919  -0.0168120
    3  -0.0435460   0.0273787  -0.0213612  -0.0031874  -0.0985535   0.0371949
           67          68          69          70          71          72
    1  -0.0437755   0.0671635   0.0020016  -0.0242871   0.0066201  -0.0565357
    2   0.0324752  -0.0486382   0.0388874  -0.0158114   0.0630452  -0.0171815
    3   0.0147013   0.0019055   0.0169047  -0.0154755  -0.0901633   0.0255687
           73          74          75          76          77          78
    1   0.0602137   0.0663096  -0.0100351  -0.0088600   0.0623952  -0.1097753
    2  -0.0223455  -0.0496100  -0.0073896   0.0993595  -0.0695719   0.0167883
    3   0.0209214  -0.0340994   0.0093743   0.0188275   0.0415453   0.0101754
           79          80          81          82          83          84
    1   0.0232445  -0.0295130  -0.0225282   0.0406473   0.0147261   0.0203207
    2   0.0613057   0.0734987  -0.0320945   0.0004458  -0.0745811   0.0061038
    3  -0.0660775  -0.0673293   0.0081776   0.0453577   0.0789310  -0.0471211
           85          86          87          88          89          90
    1  -0.0301451   0.0059856  -0.0667935   0.0590077   0.0035917  -0.0569460
    2   0.0591944  -0.0928309   0.0287271   0.0544524  -0.0218889  -0.0106105
    3   0.0023504  -0.0314830   0.0183252  -0.0044916  -0.0957540   0.0157303
           91          92          93          94          95          96
    1   0.0390263  -0.0612137   0.0048521   0.0732607   0.0293429  -0.0692257
    2   0.0020997   0.0835419  -0.0448192  -0.0451091   0.0887472  -0.0034074
    3   0.0149614  -0.0250135  -0.0332027   0.1049047   0.0499268  -0.0813737
           97          98          99         100         101         102
    1   0.0357840  -0.1059518   0.0523350   0.0411510   0.0234168   0.0275149
    2  -0.0861582   0.0205563   0.0520391  -0.0848712  -0.0959658   0.0239806
    3   0.0271291  -0.0215290  -0.0057678   0.0450527  -0.0299626  -0.0033712
          103         104         105         106         107         108
    1  -0.1009642   0.0032396  -0.0471573   0.0173757  -0.0257443   0.0492726
    2   0.0366414  -0.0298945   0.0176393   0.0140383   0.0694851  -0.0482873
    3   0.0246489  -0.0841361   0.0479161   0.0155717   0.0792112  -0.0128305
          109         110         111         112         113         114
    1  -0.0100657   0.0674233  -0.0960644   0.0246908   0.0290312  -0.0225807
    2  -0.0042424  -0.0729341   0.0505355   0.0126696   0.0990421  -0.0221530
    3  -0.0099337   0.0589532   0.0255026  -0.0564279  -0.0095594   0.0457440
          115         116         117         118         119         120
    1   0.0096705  -0.0555257   0.0421132  -0.0055866  -0.0354185  -0.0174824
    2  -0.0372395  -0.0423656  -0.0085719   0.0070461   0.0697928   0.0015592
    3  -0.0551685   0.0533328  -0.0663921   0.0009133  -0.0771420   0.0359459
          121         122         123         124         125         126
    1   0.0588486   0.0135228  -0.0020804  -0.0063984  -0.0066439  -0.0207681
    2  -0.0723693   0.0177194  -0.0468990   0.0511903  -0.0050744  -0.0543446
    3  -0.0145599  -0.1076255   0.0189899   0.0193747  -0.1031280   0.0609491
          127         128         129         130         131         132
    1  -0.0001661   0.0878870  -0.0533722  -0.0133661  -0.0264071   0.0181224
    2   0.0129304  -0.0252388  -0.0548156   0.0631532   0.0629413  -0.0390452
    3   0.0195203  -0.0409965   0.0382292  -0.0144977  -0.0710271  -0.0073706
          133         134         135         136         137         138
    1   0.0076015   0.0357538   0.0137978  -0.0627710   0.0476775  -0.0439898
    2   0.0035649  -0.0835559   0.0468666   0.0290459   0.0902033  -0.0117733
    3   0.0564216  -0.0156799  -0.0043202   0.0245168  -0.0425576   0.0854836
          139         140         141         142         143         144
    1  -0.0078452  -0.0209435   0.0229449  -0.0114568  -0.0062104   0.0013233
    2  -0.0570063   0.0722527  -0.0418889  -0.0086523   0.0310150  -0.0197961
    3  -0.0243713   0.0521647   0.0046310  -0.0398387   0.0891193  -0.0013369
          145         146         147         148         149         150
    1  -0.0128320   0.0363594   0.0212628  -0.0430953   0.0351413  -0.1136113
    2   0.0356568   0.0417157   0.0287238  -0.0634307  -0.0606145   0.0107549
    3  -0.0440287  -0.0831876   0.0572306   0.0094625   0.0731052  -0.0642757
          151         152         153         154         155         156
    1   0.0148949   0.0097345  -0.0566831   0.0479797  -0.0442938   0.0149467
    2   0.0372073   0.0996564  -0.0429573  -0.0502026  -0.0016726  -0.0286778
    3  -0.0031821   0.0216879   0.0159517  -0.0188247  -0.1003014   0.0147057
          157         158         159         160         161         162
    1   0.0118192   0.0512625  -0.0089833  -0.0205338  -0.0372550   0.0076416
    2   0.0776817   0.0044535   0.0527071   0.0097348   0.0727518  -0.0023271
    3   0.0791287   0.0955253  -0.0427473   0.0033085  -0.0140456   0.0132537
          163         164         165         166         167         168
    1  -0.0020243   0.0487585  -0.0064998  -0.0307034  -0.0963027   0.0356363
    2  -0.0368902  -0.0100489  -0.0156563   0.0184578  -0.0226964  -0.0156819
    3  -0.0106717   0.0854581  -0.0032208  -0.0088842   0.0371332   0.0245829
          169         170         171         172         173         174
    1   0.0072513  -0.0035082  -0.0083706   0.0106590  -0.0012308  -0.0249585
    2   0.0400807   0.0165113  -0.0220834   0.0246485  -0.0446948   0.0479950
    3  -0.0458548   0.0917114  -0.0240877  -0.0378332  -0.0956112   0.0223624
          175         176         177         178         179         180
    1   0.0267806   0.0125985   0.0154018  -0.0290386  -0.0501124   0.0470967
    2  -0.0453539   0.0350748   0.0322612  -0.0728539   0.0905500  -0.0088924
    3   0.0886591  -0.0953991   0.0301020   0.0344851  -0.0439485   0.0055881
          181         182         183         184         185         186
    1  -0.0366265  -0.0737475   0.0206683   0.0035286  -0.0150865   0.0331448
    2  -0.0669203  -0.0559692  -0.0077279   0.0571599  -0.0439251   0.0474452
    3   0.0172316  -0.0244263   0.0015024   0.0156958  -0.0861091   0.0102648
          187         188         189         190         191         192
    1  -0.0141586   0.0198160  -0.0345857   0.0169574   0.0767289   0.0120301
    2  -0.0373895   0.0905328  -0.0429628  -0.0255277  -0.0837314  -0.0110137
    3   0.0668411   0.0024222  -0.0514538   0.0239507   0.0198945   0.0069820
          193         194         195         196         197         198
    1  -0.0531634  -0.0190365  -0.0271125   0.0214306   0.0150326  -0.0435075
    2   0.0178450  -0.0049640   0.0111202  -0.0114778   0.0647961  -0.0913047
    3  -0.0784369   0.0876905  -0.0132262  -0.0077801  -0.1001872   0.0086811
          199         200         201         202         203         204
    1   0.0063753  -0.1023323   0.0305725   0.0382240  -0.0465828   0.0111348
    2   0.0294655  -0.0136071  -0.0336213   0.0338728  -0.0345806  -0.0244819
    3   0.0434172   0.0086955  -0.0395726   0.0327628   0.0892784  -0.0392017
          205         206         207         208         209         210
    1   0.0099712  -0.0910322   0.0233847   0.0225649   0.0098139  -0.0548481
    2   0.0354748   0.0128292   0.0337017  -0.0304494   0.0837203  -0.0440006
    3  -0.0033909   0.0134163  -0.0025778  -0.0254541  -0.0598097   0.0011226
          211         212         213         214         215         216
    1   0.0330528   0.0535480  -0.0027560  -0.0683475   0.0921075  -0.0288107
    2  -0.0042890   0.0491670  -0.0646718   0.0188822   0.0356835   0.0057074
    3   0.0248182   0.0749127  -0.0273611  -0.0383351   0.0081648   0.0194340
          217         218         219         220         221         222
    1  -0.0082033  -0.0652050   0.0650547  -0.0036255  -0.0181447  -0.0580699
    2  -0.0262999   0.0814438  -0.0337296  -0.0322597   0.0848210  -0.0595395
    3   0.0002092  -0.0148946  -0.0338371   0.0538845   0.0438198  -0.0364000
          223         224         225         226         227         228
    1   0.0696628   0.0283280  -0.0270669   0.0346220   0.0456248  -0.0282704
    2  -0.0367875   0.0185680  -0.0277528   0.0293925   0.0017268   0.0712819
    3  -0.0144421   0.1032460   0.0046538  -0.0770045  -0.0966533   0.0342863
          229         230         231         232         233         234
    1  -0.0001160  -0.0571887   0.0246759   0.0102189  -0.0314968   0.0192305
    2  -0.0416551  -0.0717775   0.0006863   0.0202493  -0.0572382   0.0102487
    3   0.0234115   0.0284213   0.0100982  -0.0414868   0.0571638  -0.0148618
          235         236         237         238         239         240
    1  -0.0008340  -0.0062175  -0.0329972   0.0435697   0.0611720  -0.0015008
    2   0.0176417   0.0632320  -0.0207566  -0.0204514  -0.0710917   0.0421376
    3  -0.0145870   0.0608673  -0.0174508  -0.0190024   0.0140432   0.0070002
          241         242         243         244         245         246
    1  -0.0668585  -0.0751830   0.0131532   0.0608090   0.0743419  -0.0146044
    2  -0.0044312   0.0270692   0.0389578  -0.0703088  -0.0305665   0.0252310
    3  -0.0488679  -0.0605163   0.0544517   0.0015301  -0.0318830   0.0065596
          247         248         249         250         251         252
    1  -0.0353147   0.0266984  -0.0960835   0.0264082  -0.0380540  -0.0375581
    2  -0.0311541  -0.0752355   0.0076936   0.0306522   0.0649734  -0.0479956
    3   0.0166812   0.0602070  -0.0385964  -0.0019918  -0.0709943   0.0317939
          253         254         255         256         257         258
    1   0.0374575  -0.0744317   0.0121376   0.0026504  -0.0994356  -0.0019350
    2  -0.0049712   0.0251761  -0.0422726   0.0035811   0.0261896   0.0029843
    3   0.0052849  -0.0503214   0.0836372   0.0014419  -0.0275570  -0.0062385
          259         260         261         262         263         264
    1   0.0870749  -0.0618227   0.0656627   0.0021089  -0.0564829   0.0180379
    2   0.0110894  -0.0668139  -0.0220113   0.0457478   0.0870238  -0.0388271
    3   0.1309583  -0.0411109  -0.0005421   0.0262591   0.0047523   0.0494937
          265         266         267         268         269         270
    1   0.0255907  -0.0213117   0.0144838  -0.0573773  -0.0752561   0.0216160
    2  -0.0173799   0.0719961   0.0038677  -0.0620427   0.0048610   0.0668428
    3  -0.0353524  -0.0725708   0.0111603   0.0326141   0.0676343  -0.0395809
          271         272         273         274         275         276
    1   0.0102533  -0.0545066   0.0343992  -0.0016895   0.0794900  -0.0004980
    2  -0.0437002  -0.0813179   0.0150960   0.0357375  -0.0512051   0.0326367
    3  -0.0065154  -0.0150855   0.0456482  -0.0348627  -0.0369292   0.0261903
          277         278         279         280         281         282
    1  -0.0354076   0.0235826  -0.0201664   0.0150733   0.0244926  -0.0111251
    2   0.0180250   0.0750468  -0.0033029  -0.1022769  -0.0807657  -0.0013509
    3  -0.0419377  -0.0551778   0.0341855   0.0022634  -0.0393716   0.0423811
          283         284         285         286         287         288
    1  -0.0058311  -0.0850740   0.0739142  -0.0070965  -0.0904154   0.0152865
    2  -0.0037853   0.0491359   0.0303344  -0.0357823   0.0084837  -0.0081627
    3  -0.0062945   0.0151321  -0.0612388   0.0169588   0.0071015   0.0110445
          289         290         291         292         293         294
    1   0.0500040  -0.0683983   0.0292291  -0.0094358  -0.0940345   0.0847181
    2   0.0284451   0.0286451  -0.0003629  -0.0285413   0.0658869  -0.0664579
    3  -0.0170119  -0.0698939  -0.0119685   0.0885067  -0.0260816  -0.0734036
          295         296         297         298         299         300
    1   0.0061266  -0.0296468  -0.0090773   0.0216723  -0.0524349   0.0221224
    2  -0.0135762  -0.0948081   0.0310432   0.0212837  -0.0721922   0.0538003
    3   0.0584807  -0.0325567  -0.0050764   0.0344289   0.0473490   0.0365357
          301         302         303         304         305         306
    1   0.0417725  -0.0733495  -0.0032738   0.0658537   0.0776453  -0.0247274
    2  -0.0009349  -0.0395033   0.0380927  -0.0321447   0.0357922   0.0496775
    3  -0.0681116   0.0529667  -0.0176484  -0.0082102  -0.0580607   0.0264672
          307         308         309         310         311         312
    1  -0.0503715  -0.0894135   0.0152055   0.0009293  -0.0685823  -0.0122605
    2  -0.0617642  -0.0135032   0.0227263   0.0014789  -0.0789052   0.0652869
    3  -0.0020197  -0.0077657  -0.0113036   0.0159679  -0.0129228   0.0272234
          313         314         315         316         317         318
    1   0.0116699  -0.0645750  -0.0157448   0.0360956  -0.0888016   0.0454194
    2  -0.0009623  -0.0579593   0.0487222   0.0058926   0.0105238  -0.0534952
    3  -0.0040980  -0.0448093   0.0229372  -0.0052149  -0.0455497   0.0011876
          319         320         321         322         323         324
    1   0.0504901  -0.0079673  -0.0131141   0.0142386  -0.0635933  -0.0161586
    2   0.0625265   0.0469823  -0.0402291   0.0272091   0.0497830  -0.0117003
    3   0.0304410   0.0775275  -0.0136701  -0.0263083  -0.0823026   0.0612880
          325         326         327         328         329         330
    1   0.0585667   0.0456047  -0.0043387  -0.0133246  -0.0034167  -0.0603860
    2  -0.0074115   0.0917770  -0.0916822  -0.0020468  -0.0690777   0.0269962
    3  -0.0187833  -0.0412394  -0.0300500   0.0365707  -0.0759510   0.0401291
          331         332         333         334         335         336
    1   0.0304611   0.0721918  -0.0867227   0.0223214  -0.0494665   0.0227183
    2   0.0187663   0.0618314  -0.0127022  -0.0565130   0.0808300   0.0073110
    3   0.0175686  -0.0355547  -0.0338088   0.0564416  -0.0505982   0.0373862
          337         338         339         340         341         342
    1  -0.0076394  -0.0809769   0.0016100   0.0510074  -0.0930930   0.0345167
    2  -0.0601190   0.0568433  -0.0446842   0.0119321  -0.0116727  -0.0380234
    3  -0.0035614  -0.0149705   0.0332917  -0.0205851  -0.0043832   0.0147341
          343
    1   0.0199790
    2   0.0388919
    3  -0.0251533
  --- DONE ESP SUMMARY ---
 Total job time:  19.94s(wall), 66.71s(cpu) 
 Thu Jul 21 06:04:38 2022

        *************************************************************
        *                                                           *
        *  Thank you very much for using Q-Chem.  Have a nice day.  *
        *                                                           *
        *************************************************************


