                  Welcome to Q-Chem
     A Quantum Leap Into The Future Of Chemistry


 Q-Chem 5.2 (devel), Q-Chem, Inc., Pleasanton, CA (2019)

 Yihan Shao,  Zhengting Gan,  E. Epifanovsky,  A. T. B. Gilbert,  M. Wormit,  
 J. Kussmann,  A. W. Lange,  A. Behn,  Jia Deng,  Xintian Feng,  D. Ghosh,  
 M. Goldey,  P. R. Horn,  L. D. Jacobson,  I. Kaliman,  T. Kus,  A. Landau,  
 Jie Liu,  E. I. Proynov,  R. M. Richard,  R. P. Steele,  E. J. Sundstrom,  
 H. L. Woodcock III,  P. M. Zimmerman,  D. Zuev,  B. Alam,  B. Albrecht,  
 E. Alguire,  S. A. Baeppler,  D. Barton,  Z. Benda,  Y. A. Bernard,  
 E. J. Berquist,  K. B. Bravaya,  H. Burton,  K. Carter-Fenk,  D. Casanova,  
 Chun-Min Chang,  Yunqing Chen,  A. Chien,  K. D. Closser,  M. P. Coons,  
 S. Coriani,  S. Dasgupta,  A. L. Dempwolff,  M. Diedenhofen,  Hainam Do,  
 R. G. Edgar,  Po-Tung Fang,  S. Faraji,  S. Fatehi,  Qingguo Feng,  
 J. Fosso-Tande,  J. Gayvert,  Qinghui Ge,  A. Ghysels,  G. Gidofalvi,  
 J. Gomes,  J. Gonthier,  A. Gunina,  D. Hait,  M. W. D. Hanson-Heine,  
 P. H. P. Harbach,  A. W. Hauser,  M. F. Herbst,  J. E. Herr,  
 E. G. Hohenstein,  Z. C. Holden,  Kerwin Hui,  B. C. Huynh,  T.-C. Jagau,  
 Hyunjun Ji,  B. Kaduk,  K. Khistyaev,  Jaehoon Kim,  P. Klunzinger,  K. Koh,  
 D. Kosenkov,  L. Koulias,  T. Kowalczyk,  C. M. Krauter,  A. Kunitsa,  
 Ka Un Lao,  A. Laurent,  K. V. Lawler,  Joonho Lee,  D. Lefrancois,  
 S. Lehtola,  D. S. Levine,  Yi-Pei Li,  You-Sheng Lin,  Fenglai Liu,  
 Kuan-Yu Liu,  E. Livshits,  M. Loipersberger,  A. Luenser,  P. Manohar,  
 E. Mansoor,  S. F. Manzer,  Shan-Ping Mao,  Yuezhi Mao,  N. Mardirossian,  
 A. V. Marenich,  T. Markovich,  L. A. Martinez-Martinez,  S. A. Maurer,  
 N. J. Mayhall,  S. C. McKenzie,  J.-M. Mewes,  P. Morgante,  A. F. Morrison,  
 J. W. Mullinax,  K. Nanda,  T. S. Nguyen-Beck,  R. Olivares-Amaya,  
 J. A. Parkhill,  S. K. Paul,  F. Pavosevic,  Zheng Pei,  T. M. Perrine,  
 F. Plasser,  P. Pokhilko,  S. Prager,  A. Prociuk,  E. Ramos,  B. Rana,  
 D. R. Rehn,  F. Rob,  M. Scheurer,  M. Schneider,  N. Sergueev,  
 S. M. Sharada,  S. Sharma,  D. W. Small,  T. Stauch,  C. J. Stein,  
 T. Stein,  Yu-Chuan Su,  S. P. Veccham,  Zhen Tao,  A. J. W. Thom,  
 A. Tkatchenko,  T. Tsuchimochi,  N. M. Tubman,  L. Vogt,  M. L. Vidal,  
 O. Vydrov,  M. A. Watson,  J. Wenzel,  M. de Wergifosse,  T. A. Wesolowski,  
 A. White,  J. Witte,  A. Yamada,  Jun Yang,  K. Yao,  S. Yeganeh,  
 S. R. Yost,  Zhi-Qiang You,  A. Zech,  Igor Ying Zhang,  Xing Zhang,  
 Yan Zhao,  Ying Zhu,  B. R. Brooks,  G. K. L. Chan,  C. J. Cramer,  
 M. S. Gordon,  W. J. Hehre,  A. Klamt,  M. W. Schmidt,  C. D. Sherrill,  
 D. G. Truhlar,  A. Aspuru-Guzik,  R. Baer,  A. T. Bell,  N. A. Besley,  
 Jeng-Da Chai,  A. E. DePrince, III,  R. A. DiStasio Jr.,  A. Dreuw,  
 B. D. Dunietz,  T. R. Furlani,  Chao-Ping Hsu,  Yousung Jung,  Jing Kong,  
 D. S. Lambrecht,  WanZhen Liang,  C. Ochsenfeld,  V. A. Rassolov,  
 L. V. Slipchenko,  J. E. Subotnik,  T. Van Voorhis,  J. M. Herbert,  
 A. I. Krylov,  P. M. W. Gill,  M. Head-Gordon

 Contributors to earlier versions of Q-Chem not listed above: 
 R. D. Adamson,  B. Austin,  J. Baker,  G. J. O. Beran,  K. Brandhorst,  
 S. T. Brown,  E. F. C. Byrd,  A. K. Chakraborty,  C.-L. Cheng,  
 Siu Hung Chien,  D. M. Chipman,  D. L. Crittenden,  H. Dachsel,  
 R. J. Doerksen,  A. D. Dutoi,  L. Fusti-Molnar,  W. A. Goddard III,  
 A. Golubeva-Zadorozhnaya,  S. R. Gwaltney,  G. Hawkins,  A. Heyden,  
 S. Hirata,  G. Kedziora,  F. J. Keil,  C. Kelley,  Jihan Kim,  R. A. King,  
 R. Z. Khaliullin,  P. P. Korambath,  W. Kurlancheek,  A. M. Lee,  M. S. Lee,  
 S. V. Levchenko,  Ching Yeh Lin,  D. Liotard,  R. C. Lochan,  I. Lotan,  
 P. E. Maslen,  N. Nair,  D. P. O'Neill,  D. Neuhauser,  E. Neuscamman,  
 C. M. Oana,  R. Olson,  B. Peters,  R. Peverati,  P. A. Pieniazek,  
 Y. M. Rhee,  J. Ritchie,  M. A. Rohrdanz,  E. Rosta,  N. J. Russ,  
 H. F. Schaefer III,  N. E. Schultz,  N. Shenvi,  A. C. Simmonett,  A. Sodt,  
 D. Stuck,  K. S. Thanthiriwatte,  V. Vanovschi,  Tao Wang,  A. Warshel,  
 C. F. Williams,  Q. Wu,  X. Xu,  W. Zhang

 Please cite Q-Chem as follows:
 Y. Shao et al., Mol. Phys. 113, 184-215 (2015)
 DOI: 10.1080/00268976.2014.952696

 Q-Chem 5.2.2 for Intel X86 EM64T Linux

 Parts of Q-Chem use Armadillo 9.800.1 (Horizon Scraper).
 http://arma.sourceforge.net/

 Q-Chem begins on Sun Mar  7 02:56:13 2021  

Host: node023
0

     Scratch files written to /home/ymao90/scratch/CCX_CO_+2020210307025611//

Checking the input file for inconsistencies... 	...done.

--------------------------------------------------------------
User input:
--------------------------------------------------------------
$molecule
0 1
C      1.9839655798    2.8343873569   -0.6530035790
C      2.0889665948    1.3399289492   -0.2973932582
C      3.4017166944    0.7321441035   -0.8222227424
C      4.6254659785    1.5200300416   -0.3255741318
C      4.5210827926    3.0122209378   -0.6783481608
C      3.2094896156    3.6188525050   -0.1554554411
H      3.4653882129   -0.3186255299   -0.5134835234
H      2.0538505535    1.2303619181    0.7916336585
H      1.9041773336    2.9373830819   -1.7471760654
H      1.0604862058    3.2447823031   -0.2264495779
H      4.7056113531    1.4098609561    0.7662015896
H      5.5416784391    1.0893334561   -0.7496610014
H      5.3807748665    3.5587419877   -0.2692766409
H      4.5659637339    3.1311627355   -1.7719372538
H      3.2192612515    3.6121018079    0.9447339030
H      3.1260878858    4.6703627905   -0.4590864625
H      3.3863457527    0.7409636912   -1.9242196110
N      0.9315723625    0.5939302253   -0.7942938700
H      0.8024957372    0.5217251348   -1.7968919912
C      0.0000000000    0.0000000000    0.0000000000
H     -0.7899738588   -0.5065817117   -0.5873052394
O     -0.0000000000    0.0000000000    1.2238135054
$end

$rem
JOBTYPE  OPT
METHOD  B3LYP
BASIS  6-31+G(D)
SYMMETRY  FALSE
SYM_IGNORE  TRUE
MEM_TOTAL  8000
MEM_STATIC  2000
MAX_SUB_FILE_NUM  16000
BASIS_LIN_DEP_THRESH  6
THRESH  14
SCF_CONVERGENCE  9
GEN_SCFMAN  TRUE
SCF_GUESS  SAD
FD_MAT_VEC_PROD  FALSE
XC_GRID  000099000590
NL_GRID  1
MAX_SCF_CYCLES  200
GEOM_OPT_TOL_GRADIENT  100
GEOM_OPT_TOL_DISPLACEMENT  100
GEOM_OPT_TOL_ENERGY  10
$end

$multipole_field
Z   -0.003890
$end


--------------------------------------------------------------
 ----------------------------------------------------------------
             Standard Nuclear Orientation (Angstroms)
    I     Atom           X                Y                Z
 ----------------------------------------------------------------
    1      C       1.9839655798     2.8343873569    -0.6530035790
    2      C       2.0889665948     1.3399289492    -0.2973932582
    3      C       3.4017166944     0.7321441035    -0.8222227424
    4      C       4.6254659785     1.5200300416    -0.3255741318
    5      C       4.5210827926     3.0122209378    -0.6783481608
    6      C       3.2094896156     3.6188525050    -0.1554554411
    7      H       3.4653882129    -0.3186255299    -0.5134835234
    8      H       2.0538505535     1.2303619181     0.7916336585
    9      H       1.9041773336     2.9373830819    -1.7471760654
   10      H       1.0604862058     3.2447823031    -0.2264495779
   11      H       4.7056113531     1.4098609561     0.7662015896
   12      H       5.5416784391     1.0893334561    -0.7496610014
   13      H       5.3807748665     3.5587419877    -0.2692766409
   14      H       4.5659637339     3.1311627355    -1.7719372538
   15      H       3.2192612515     3.6121018079     0.9447339030
   16      H       3.1260878858     4.6703627905    -0.4590864625
   17      H       3.3863457527     0.7409636912    -1.9242196110
   18      N       0.9315723625     0.5939302253    -0.7942938700
   19      H       0.8024957372     0.5217251348    -1.7968919912
   20      C       0.0000000000     0.0000000000     0.0000000000
   21      H      -0.7899738588    -0.5065817117    -0.5873052394
   22      O       0.0000000000     0.0000000000     1.2238135054
 ----------------------------------------------------------------
 Nuclear Repulsion Energy =         466.63298041 hartrees
 There are       35 alpha and       35 beta electrons
 Requested basis set is 6-31+G(d)
 There are 71 shells and 197 basis functions

 Total QAlloc Memory Limit   8000 MB
 Mega-Array Size      1956 MB
 MEM_STATIC part      2000 MB
 Applying Cartesian multipole field
    Component          Value
    ---------          -----
     (0,0,1)       -3.89000E-03
 Nucleus-field energy     =     0.1536693442 hartrees
 A cutoff of  1.0D-14 yielded   2413 shell pairs
 There are     18998 function pairs
 Smallest overlap matrix eigenvalue = 2.48E-05
 Guess from superposition of atomic densities
 Warning:  Energy on first SCF cycle will be non-variational
 SAD guess density has 70.000000 electrons

 -----------------------------------------------------------------------
  General SCF calculation program by
  Eric Jon Sundstrom, Paul Horn, Yuezhi Mao, Dmitri Zuev, Alec White,
  David Stuck, Shaama M.S., Shane Yost, Joonho Lee, David Small,
  Daniel Levine, Susi Lehtola, Hugh Burton, Evgeny Epifanovsky,
  Bang C. Huynh
 -----------------------------------------------------------------------
 Exchange:     0.2000 Hartree-Fock + 0.0800 Slater + 0.7200 B88
 Correlation:  0.1900 VWN1RPA + 0.8100 LYP
 Using Euler-Maclaurin-Lebedev (99,590) quadrature formula
 using 16 threads for integral computing
 -------------------------------------------------------
 OpenMP Integral computing Module                
 Release: version 2.0, May 2017, Q-Chem Inc. Pleasanton 
 -------------------------------------------------------
 A restricted SCF calculation will be
 performed using DIIS
 SCF converges when DIIS error is below 1.0e-09
 ---------------------------------------
  Cycle       Energy         DIIS error
 ---------------------------------------
    1    -406.2319506898      5.08e-02  
    2    -404.3834998807      6.47e-03  
    3    -404.0280503191      1.14e-02  
    4    -404.5515441650      2.69e-03  
    5    -404.5802780218      6.54e-04  
    6    -404.5819247156      1.99e-04  
    7    -404.5820768140      7.41e-05  
    8    -404.5821003479      1.25e-05  
    9    -404.5821009757      4.46e-06  
   10    -404.5821010593      7.60e-07  
   11    -404.5821010617      2.88e-07  
   12    -404.5821010621      5.86e-08  
   13    -404.5821010621      1.29e-08  
   14    -404.5821010621      4.82e-09  
   15    -404.5821010621      1.18e-09  
   16    -404.5821010621      2.99e-10  Convergence criterion met
 ---------------------------------------
 SCF time:   CPU 751.06s  wall 48.00s 
 SCF   energy in the final basis set =     -404.5821010621
 Total energy in the final basis set =     -404.5821010621
 
 --------------------------------------------------------------
 
                    Orbital Energies (a.u.)
 --------------------------------------------------------------
 
 Alpha MOs
 -- Occupied --
-19.1261 -14.3772 -10.2923 -10.2350 -10.1998 -10.1977 -10.1952 -10.1949
-10.1937  -1.0374  -0.9377  -0.8380  -0.7563  -0.7544  -0.6471  -0.6261
 -0.6028  -0.5764  -0.5350  -0.4915  -0.4699  -0.4562  -0.4501  -0.4245
 -0.4171  -0.4060  -0.3932  -0.3799  -0.3610  -0.3588  -0.3371  -0.3272
 -0.3221  -0.2624  -0.2606
 -- Virtual --
 -0.0193  -0.0013   0.0093   0.0121   0.0194   0.0250   0.0371   0.0421
  0.0516   0.0572   0.0580   0.0765   0.0798   0.0819   0.0919   0.0936
  0.1008   0.1098   0.1138   0.1255   0.1299   0.1424   0.1447   0.1556
  0.1648   0.1713   0.1757   0.1771   0.1892   0.1911   0.1985   0.2032
  0.2133   0.2148   0.2266   0.2362   0.2428   0.2472   0.2510   0.2576
  0.2735   0.2764   0.2792   0.2831   0.2889   0.3018   0.3110   0.3194
  0.3227   0.3305   0.3539   0.3589   0.3743   0.3818   0.4030   0.4088
  0.4313   0.4514   0.4938   0.5972   0.6267   0.6433   0.6531   0.6563
  0.6732   0.6882   0.7169   0.7230   0.7390   0.7429   0.7671   0.7758
  0.7908   0.7972   0.8113   0.8377   0.8459   0.8971   0.9433   0.9604
  0.9636   0.9789   1.0076   1.0155   1.0252   1.0406   1.0753   1.0797
  1.1020   1.1070   1.1120   1.1447   1.1495   1.1550   1.1651   1.1796
  1.2295   1.2617   1.2946   1.3348   1.3450   1.3678   1.3787   1.4061
  1.4716   1.4822   1.4870   1.5569   1.5666   1.6101   1.6965   1.7176
  1.7217   1.7487   1.7665   1.8016   1.8517   1.8662   1.8903   1.8946
  1.9002   1.9356   1.9711   2.0004   2.0040   2.0340   2.0440   2.0788
  2.0816   2.1212   2.1893   2.2118   2.2710   2.3011   2.3056   2.3371
  2.3900   2.3996   2.4047   2.4106   2.4419   2.5564   2.5768   2.6204
  2.6600   2.6764   2.6943   2.7487   2.7671   2.8222   2.8614   3.0147
  3.1895   4.0812   4.1879   4.2384   4.2801   4.3226   4.4172   4.5888
  4.5937   4.6618
 --------------------------------------------------------------
 
          Ground-State Mulliken Net Atomic Charges

     Atom                 Charge (a.u.)
  ----------------------------------------
      1 C                    -0.236449
      2 C                    -0.567183
      3 C                    -0.263075
      4 C                    -0.413431
      5 C                    -0.401384
      6 C                    -0.414353
      7 H                     0.215440
      8 H                     0.253845
      9 H                     0.182068
     10 H                     0.217475
     11 H                     0.218227
     12 H                     0.193261
     13 H                     0.201527
     14 H                     0.182096
     15 H                     0.218719
     16 H                     0.195232
     17 H                     0.180858
     18 N                    -0.358978
     19 H                     0.382269
     20 C                     0.338679
     21 H                     0.135582
     22 O                    -0.460422
  ----------------------------------------
  Sum of atomic charges =     0.000000

 -----------------------------------------------------------------
                    Cartesian Multipole Moments
 -----------------------------------------------------------------
    Charge (ESU x 10^10)
                 0.0000
    Dipole Moment (Debye)
         X       1.6623      Y       1.0945      Z      -2.7945
       Tot       3.4308
    Quadrupole Moments (Debye-Ang)
        XX     -51.7754     XY       3.3681     YY     -54.7928
        XZ       1.9288     YZ       1.2372     ZZ     -58.4455
    Octopole Moments (Debye-Ang^2)
       XXX    -394.1077    XXY     -81.2174    XYY    -130.3893
       YYY    -263.9231    XXZ      26.0571    XYZ       3.8261
       YYZ      22.7629    XZZ    -135.3324    YZZ     -88.9625
       ZZZ      46.0944
    Hexadecapole Moments (Debye-Ang^3)
      XXXX   -2989.1648   XXXY    -849.2985   XXYY    -745.2823
      XYYY    -860.5622   YYYY   -1516.4001   XXXZ     245.0195
      XXYZ      63.1778   XYYZ      84.7057   YYYZ     140.2905
      XXZZ    -556.2622   XYZZ    -292.4011   YYZZ    -304.8365
      XZZZ     213.7125   YZZZ     129.3819   ZZZZ    -262.9844
 -----------------------------------------------------------------
 Calculating analytic gradient of the SCF energy
 Gradient of SCF Energy
            1           2           3           4           5           6
    1  -0.0000921   0.0002569  -0.0001132   0.0000245  -0.0000527   0.0000432
    2   0.0000645   0.0000606   0.0000385  -0.0000421   0.0000165  -0.0000091
    3  -0.0008877  -0.0000101  -0.0009147  -0.0005123  -0.0007350  -0.0005094
            7           8           9          10          11          12
    1   0.0000174  -0.0000181   0.0000217  -0.0001598  -0.0000434  -0.0002259
    2  -0.0000887  -0.0000163   0.0001057   0.0000742  -0.0000249   0.0001101
    3  -0.0001537   0.0001157   0.0007954  -0.0001212   0.0006200  -0.0001265
           13          14          15          16          17          18
    1   0.0001571   0.0000518  -0.0000021  -0.0000120   0.0001733  -0.0016490
    2   0.0001223  -0.0000271  -0.0001229  -0.0001358  -0.0001265  -0.0009646
    3  -0.0001351   0.0008226   0.0006255  -0.0001976   0.0008089   0.0018067
           19          20          21          22
    1  -0.0000563   0.0013005   0.0004699  -0.0000916
    2  -0.0000750   0.0008541   0.0002720  -0.0000858
    3  -0.0002829  -0.0064379   0.0003772   0.0050523
 Max gradient component =       6.438E-03
 RMS gradient           =       1.120E-03
 Gradient time:  CPU 119.64 s  wall 7.58 s
 Geometry Optimization Parameters
   NAtoms,    NIC,     NZ,  NCons,   NDum,   NFix, NCnnct, MaxDiis
       22     172       0       0       0       0       0       0


** GEOMETRY OPTIMIZATION IN DELOCALIZED INTERNAL COORDINATES **
   Searching for a Minimum

   Optimization Cycle:   1

                       Coordinates (Angstroms)
     ATOM                X               Y               Z
      1  C         1.9839655798    2.8343873569   -0.6530035790
      2  C         2.0889665948    1.3399289492   -0.2973932582
      3  C         3.4017166944    0.7321441035   -0.8222227424
      4  C         4.6254659785    1.5200300416   -0.3255741318
      5  C         4.5210827926    3.0122209378   -0.6783481608
      6  C         3.2094896156    3.6188525050   -0.1554554411
      7  H         3.4653882129   -0.3186255299   -0.5134835234
      8  H         2.0538505535    1.2303619181    0.7916336585
      9  H         1.9041773336    2.9373830819   -1.7471760654
     10  H         1.0604862058    3.2447823031   -0.2264495779
     11  H         4.7056113531    1.4098609561    0.7662015896
     12  H         5.5416784391    1.0893334561   -0.7496610014
     13  H         5.3807748665    3.5587419877   -0.2692766409
     14  H         4.5659637339    3.1311627355   -1.7719372538
     15  H         3.2192612515    3.6121018079    0.9447339030
     16  H         3.1260878858    4.6703627905   -0.4590864625
     17  H         3.3863457527    0.7409636912   -1.9242196110
     18  N         0.9315723625    0.5939302253   -0.7942938700
     19  H         0.8024957372    0.5217251348   -1.7968919912
     20  C         0.0000000000    0.0000000000    0.0000000000
     21  H        -0.7899738588   -0.5065817117   -0.5873052394
     22  O         0.0000000000    0.0000000000    1.2238135054
   Point Group: c1    Number of degrees of freedom:    60


   Energy is   -404.582101062


 Attempting to generate delocalized internal coordinates
 Initial Hessian constructed with Jon Baker's OPTIMIZE code

 60 Hessian modes will be used to form the next step
  Hessian Eigenvalues:
     0.005967    0.006024    0.006964    0.007193    0.012605    0.019501
     0.019786    0.020845    0.020845    0.037215    0.038526    0.039417
     0.041724    0.048166    0.048450    0.048891    0.055292    0.055631
     0.055746    0.059934    0.066958    0.081508    0.081536    0.081616
     0.082032    0.082133    0.084029    0.087513    0.120967    0.121178
     0.142989    0.159989    0.160000    0.160554    0.174868    0.210947
     0.220000    0.220003    0.272263    0.272658    0.275535    0.286789
     0.287121    0.287175    0.329119    0.334466    0.334727    0.335769
     0.336541    0.336553    0.339301    0.339441    0.339454    0.340119
     0.340274    0.342312    0.364811    0.454000    0.528079    0.937134

 Minimum search - taking simple RFO step
 Searching for Lamda that Minimizes Along All modes
 Value Taken    Lamda =  -0.00006236
 Step Taken.  Stepsize is  0.039641

                             Maximum     Tolerance    Cnvgd?
         Gradient           0.002954      0.000100      NO
         Displacement       0.014639      0.000100      NO
         Energy change     *********      0.000000      NO


 New Cartesian Coordinates Obtained by Inverse Iteration

 Displacement from previous Coordinates is:  0.073800
 ----------------------------------------------------------------
             Standard Nuclear Orientation (Angstroms)
    I     Atom           X                Y                Z
 ----------------------------------------------------------------
    1      C       1.9840332506     2.8336913280    -0.6459803617
    2      C       2.0891604115     1.3387670684    -0.2926042907
    3      C       3.4028214547     0.7311902930    -0.8155493483
    4      C       4.6276446978     1.5220200406    -0.3259291027
    5      C       4.5202841236     3.0125090688    -0.6841500536
    6      C       3.2114750318     3.6195597987    -0.1552921809
    7      H       3.4679907264    -0.3178446237    -0.5014917888
    8      H       2.0512304921     1.2271883447     0.7959594566
    9      H       1.8983466662     2.9359110753    -1.7410235113
   10      H       1.0631063651     3.2436522442    -0.2139787141
   11      H       4.7116421212     1.4164922762     0.7650049890
   12      H       5.5435834568     1.0901220460    -0.7501638407
   13      H       5.3813659027     3.5606633810    -0.2808543997
   14      H       4.5585641680     3.1274452465    -1.7797694716
   15      H       3.2271494800     3.6143891071     0.9438173891
   16      H       3.1262120669     4.6712075729    -0.4583977845
   17      H       3.3841201340     0.7353622214    -1.9188081007
   18      N       0.9336836672     0.5941888828    -0.7963467470
   19      H       0.8086744903     0.5253954951    -1.7993176534
   20      C      -0.0039908695    -0.0012549334    -0.0064891589
   21      H      -0.7935878166    -0.5051190244    -0.5985202819
   22      O      -0.0091029359    -0.0024701684     1.2144890624
 ----------------------------------------------------------------
 Nuclear Repulsion Energy =         466.59349916 hartrees
 There are       35 alpha and       35 beta electrons
 Applying Cartesian multipole field
    Component          Value
    ---------          -----
     (0,0,1)       -3.89000E-03
 Nucleus-field energy     =     0.1540190644 hartrees
 Requested basis set is 6-31+G(d)
 There are 71 shells and 197 basis functions
 A cutoff of  1.0D-14 yielded   2412 shell pairs
 There are     18992 function pairs
 Smallest overlap matrix eigenvalue = 2.47E-05
 Guess MOs from SCF MO coefficient file

 -----------------------------------------------------------------------
  General SCF calculation program by
  Eric Jon Sundstrom, Paul Horn, Yuezhi Mao, Dmitri Zuev, Alec White,
  David Stuck, Shaama M.S., Shane Yost, Joonho Lee, David Small,
  Daniel Levine, Susi Lehtola, Hugh Burton, Evgeny Epifanovsky,
  Bang C. Huynh
 -----------------------------------------------------------------------
 Exchange:     0.2000 Hartree-Fock + 0.0800 Slater + 0.7200 B88
 Correlation:  0.1900 VWN1RPA + 0.8100 LYP
 Using Euler-Maclaurin-Lebedev (99,590) quadrature formula
 using 16 threads for integral computing
 -------------------------------------------------------
 OpenMP Integral computing Module                
 Release: version 2.0, May 2017, Q-Chem Inc. Pleasanton 
 -------------------------------------------------------
 A restricted SCF calculation will be
 performed using DIIS
 SCF converges when DIIS error is below 1.0e-09
 ---------------------------------------
  Cycle       Energy         DIIS error
 ---------------------------------------
    1    -404.5820549400      9.83e-05  
    2    -404.5821358632      2.00e-05  
    3    -404.5821335112      3.31e-05  
    4    -404.5821374997      7.79e-06  
    5    -404.5821377388      1.63e-06  
    6    -404.5821377502      2.13e-07  
    7    -404.5821377504      1.41e-07  
    8    -404.5821377504      2.43e-08  
    9    -404.5821377505      7.53e-09  
   10    -404.5821377505      2.11e-09  
   11    -404.5821377505      5.61e-10  Convergence criterion met
 ---------------------------------------
 SCF time:   CPU 521.83s  wall 33.00s 
 SCF   energy in the final basis set =     -404.5821377505
 Total energy in the final basis set =     -404.5821377505
 
 --------------------------------------------------------------
 
                    Orbital Energies (a.u.)
 --------------------------------------------------------------
 
 Alpha MOs
 -- Occupied --
-19.1265 -14.3768 -10.2924 -10.2349 -10.1997 -10.1977 -10.1951 -10.1949
-10.1936  -1.0389  -0.9374  -0.8377  -0.7561  -0.7542  -0.6466  -0.6260
 -0.6025  -0.5763  -0.5348  -0.4914  -0.4701  -0.4558  -0.4501  -0.4246
 -0.4174  -0.4063  -0.3930  -0.3804  -0.3609  -0.3587  -0.3371  -0.3269
 -0.3221  -0.2625  -0.2610
 -- Virtual --
 -0.0191  -0.0012   0.0094   0.0123   0.0194   0.0250   0.0372   0.0421
  0.0515   0.0573   0.0580   0.0765   0.0798   0.0820   0.0920   0.0937
  0.1008   0.1097   0.1138   0.1255   0.1300   0.1425   0.1447   0.1554
  0.1647   0.1715   0.1758   0.1769   0.1892   0.1911   0.1987   0.2033
  0.2137   0.2146   0.2266   0.2359   0.2430   0.2472   0.2514   0.2579
  0.2735   0.2763   0.2791   0.2831   0.2891   0.3020   0.3113   0.3189
  0.3223   0.3300   0.3542   0.3588   0.3741   0.3813   0.4033   0.4089
  0.4315   0.4511   0.4949   0.5973   0.6270   0.6430   0.6530   0.6563
  0.6731   0.6882   0.7169   0.7231   0.7388   0.7428   0.7670   0.7760
  0.7908   0.7977   0.8117   0.8376   0.8459   0.8968   0.9429   0.9604
  0.9633   0.9788   1.0076   1.0161   1.0255   1.0415   1.0754   1.0802
  1.1017   1.1070   1.1122   1.1443   1.1499   1.1551   1.1645   1.1794
  1.2295   1.2616   1.2942   1.3342   1.3438   1.3671   1.3789   1.4055
  1.4720   1.4826   1.4873   1.5583   1.5666   1.6101   1.6948   1.7173
  1.7221   1.7493   1.7663   1.8016   1.8516   1.8668   1.8891   1.8951
  1.9001   1.9353   1.9703   2.0005   2.0037   2.0338   2.0440   2.0796
  2.0824   2.1211   2.1888   2.2116   2.2704   2.3004   2.3060   2.3376
  2.3896   2.4001   2.4051   2.4116   2.4418   2.5560   2.5769   2.6213
  2.6597   2.6767   2.6953   2.7485   2.7665   2.8222   2.8616   3.0169
  3.1900   4.0808   4.1874   4.2389   4.2803   4.3228   4.4175   4.5882
  4.5934   4.6617
 --------------------------------------------------------------
 
          Ground-State Mulliken Net Atomic Charges

     Atom                 Charge (a.u.)
  ----------------------------------------
      1 C                    -0.235512
      2 C                    -0.564045
      3 C                    -0.262058
      4 C                    -0.414397
      5 C                    -0.401412
      6 C                    -0.415731
      7 H                     0.215449
      8 H                     0.253593
      9 H                     0.181712
     10 H                     0.217508
     11 H                     0.218252
     12 H                     0.193280
     13 H                     0.201350
     14 H                     0.181800
     15 H                     0.218756
     16 H                     0.195301
     17 H                     0.180391
     18 N                    -0.361911
     19 H                     0.382183
     20 C                     0.338624
     21 H                     0.135257
     22 O                    -0.458390
  ----------------------------------------
  Sum of atomic charges =     0.000000

 -----------------------------------------------------------------
                    Cartesian Multipole Moments
 -----------------------------------------------------------------
    Charge (ESU x 10^10)
                 0.0000
    Dipole Moment (Debye)
         X       1.6653      Y       1.0936      Z      -2.7543
       Tot       3.3993
    Quadrupole Moments (Debye-Ang)
        XX     -51.8058     XY       3.3525     YY     -54.8108
        XZ       1.9917     YZ       1.2643     ZZ     -58.3973
    Octopole Moments (Debye-Ang^2)
       XXX    -394.1525    XXY     -81.2750    XYY    -130.4152
       YYY    -263.9373    XXZ      26.2625    XYZ       3.8921
       YYZ      22.9184    XZZ    -135.3191    YZZ     -88.9606
       ZZZ      46.3620
    Hexadecapole Moments (Debye-Ang^3)
      XXXX   -2991.1689   XXXY    -850.0094   XXYY    -745.8377
      XYYY    -861.0199   YYYY   -1516.7060   XXXZ     245.7889
      XXYZ      63.4666   XYYZ      85.0277   YYYZ     140.5515
      XXZZ    -556.6004   XYZZ    -292.6445   YYZZ    -304.7952
      XZZZ     213.8088   YZZZ     129.2769   ZZZZ    -261.6838
 -----------------------------------------------------------------
 Calculating analytic gradient of the SCF energy
 Gradient of SCF Energy
            1           2           3           4           5           6
    1  -0.0000744   0.0001147  -0.0001555   0.0001110  -0.0001007   0.0000915
    2  -0.0001140   0.0000252  -0.0000022   0.0000278  -0.0000535   0.0000706
    3  -0.0001030   0.0000338  -0.0000853   0.0000756  -0.0001314   0.0000866
            7           8           9          10          11          12
    1   0.0000270   0.0000713  -0.0000067   0.0000083  -0.0000066   0.0000013
    2  -0.0000177   0.0000541  -0.0000019   0.0000267  -0.0000016   0.0000391
    3   0.0000153   0.0000233   0.0000262   0.0000193  -0.0000440  -0.0000375
           13          14          15          16          17          18
    1  -0.0000108   0.0000096  -0.0000047   0.0000366  -0.0000019  -0.0005770
    2  -0.0000032   0.0000038   0.0000000  -0.0000088  -0.0000058  -0.0001962
    3  -0.0000207  -0.0000288  -0.0000412  -0.0000418   0.0000337   0.0006105
           19          20          21          22
    1  -0.0000225   0.0005954  -0.0000658  -0.0000402
    2  -0.0000345   0.0000748   0.0000453   0.0000720
    3   0.0000322  -0.0019087   0.0003359   0.0011500
 Max gradient component =       1.909E-03
 RMS gradient           =       3.106E-04
 Gradient time:  CPU 119.16 s  wall 7.54 s
 Geometry Optimization Parameters
   NAtoms,    NIC,     NZ,  NCons,   NDum,   NFix, NCnnct, MaxDiis
       22     172       0       0       0       0       0       0

 Cartesian Hessian Update
 Hessian updated using BFGS update


** GEOMETRY OPTIMIZATION IN DELOCALIZED INTERNAL COORDINATES **
   Searching for a Minimum

   Optimization Cycle:   2

                       Coordinates (Angstroms)
     ATOM                X               Y               Z
      1  C         1.9840332506    2.8336913280   -0.6459803617
      2  C         2.0891604115    1.3387670684   -0.2926042907
      3  C         3.4028214547    0.7311902930   -0.8155493483
      4  C         4.6276446978    1.5220200406   -0.3259291027
      5  C         4.5202841236    3.0125090688   -0.6841500536
      6  C         3.2114750318    3.6195597987   -0.1552921809
      7  H         3.4679907264   -0.3178446237   -0.5014917888
      8  H         2.0512304921    1.2271883447    0.7959594566
      9  H         1.8983466662    2.9359110753   -1.7410235113
     10  H         1.0631063651    3.2436522442   -0.2139787141
     11  H         4.7116421212    1.4164922762    0.7650049890
     12  H         5.5435834568    1.0901220460   -0.7501638407
     13  H         5.3813659027    3.5606633810   -0.2808543997
     14  H         4.5585641680    3.1274452465   -1.7797694716
     15  H         3.2271494800    3.6143891071    0.9438173891
     16  H         3.1262120669    4.6712075729   -0.4583977845
     17  H         3.3841201340    0.7353622214   -1.9188081007
     18  N         0.9336836672    0.5941888828   -0.7963467470
     19  H         0.8086744903    0.5253954951   -1.7993176534
     20  C        -0.0039908695   -0.0012549334   -0.0064891589
     21  H        -0.7935878166   -0.5051190244   -0.5985202819
     22  O        -0.0091029359   -0.0024701684    1.2144890624
   Point Group: c1    Number of degrees of freedom:    60


   Energy is   -404.582137750

 Hessian updated using BFGS update

 60 Hessian modes will be used to form the next step
  Hessian Eigenvalues:
     0.005759    0.005975    0.006920    0.007192    0.012554    0.019499
     0.019537    0.020845    0.021348    0.037168    0.038510    0.039420
     0.041737    0.048194    0.048450    0.048882    0.055295    0.055715
     0.055974    0.059995    0.066957    0.081228    0.081534    0.081607
     0.082038    0.082131    0.084175    0.087512    0.120966    0.121319
     0.142994    0.159497    0.160026    0.161221    0.174864    0.211215
     0.220000    0.222738    0.272233    0.272633    0.275536    0.286836
     0.287144    0.287188    0.327106    0.334514    0.334880    0.336000
     0.336547    0.339239    0.339406    0.339441    0.340052    0.340257
     0.342263    0.345100    0.366357    0.454134    0.482261    0.846067

 Minimum search - taking simple RFO step
 Searching for Lamda that Minimizes Along All modes
 Value Taken    Lamda =  -0.00000734
 Step Taken.  Stepsize is  0.016626

                             Maximum     Tolerance    Cnvgd?
         Gradient           0.000795      0.000100      NO
         Displacement       0.006961      0.000100      NO
         Energy change     -0.000037      0.000000      NO


 New Cartesian Coordinates Obtained by Inverse Iteration

 Displacement from previous Coordinates is:  0.025760
 ----------------------------------------------------------------
             Standard Nuclear Orientation (Angstroms)
    I     Atom           X                Y                Z
 ----------------------------------------------------------------
    1      C       1.9840671758     2.8337913524    -0.6436201096
    2      C       2.0891463526     1.3386048281    -0.2909866713
    3      C       3.4031213294     0.7308761883    -0.8132882682
    4      C       4.6281736540     1.5225287869    -0.3260726348
    5      C       4.5202448586     3.0126156214    -0.6859164072
    6      C       3.2121517414     3.6198435947    -0.1553501243
    7      H       3.4684379513    -0.3176722189    -0.4977933460
    8      H       2.0496160598     1.2259385464     0.7973876999
    9      H       1.8965829299     2.9358998539    -1.7386801442
   10      H       1.0637296053     3.2435709659    -0.2102709652
   11      H       4.7136933398     1.4185251286     0.7648480260
   12      H       5.5435962832     1.0898260300    -0.7507118279
   13      H       5.3821492859     3.5614521483    -0.2853582274
   14      H       4.5558940040     3.1258880997    -1.7819156733
   15      H       3.2298633417     3.6153984868     0.9436856698
   16      H       3.1259398759     4.6713758484    -0.4586820869
   17      H       3.3835576401     0.7333959496    -1.9167061252
   18      N       0.9344113512     0.5946372752    -0.7967545014
   19      H       0.8107413229     0.5267624365    -1.7999154365
   20      C      -0.0062997315     0.0002219096    -0.0078719447
   21      H      -0.7923821727    -0.5055434608    -0.6035367770
   22      O      -0.0120291135    -0.0048706304     1.2121139817
 ----------------------------------------------------------------
 Nuclear Repulsion Energy =         466.56643584 hartrees
 There are       35 alpha and       35 beta electrons
 Applying Cartesian multipole field
    Component          Value
    ---------          -----
     (0,0,1)       -3.89000E-03
 Nucleus-field energy     =     0.1540531027 hartrees
 Requested basis set is 6-31+G(d)
 There are 71 shells and 197 basis functions
 A cutoff of  1.0D-14 yielded   2412 shell pairs
 There are     18992 function pairs
 Smallest overlap matrix eigenvalue = 2.47E-05
 Guess MOs from SCF MO coefficient file

 -----------------------------------------------------------------------
  General SCF calculation program by
  Eric Jon Sundstrom, Paul Horn, Yuezhi Mao, Dmitri Zuev, Alec White,
  David Stuck, Shaama M.S., Shane Yost, Joonho Lee, David Small,
  Daniel Levine, Susi Lehtola, Hugh Burton, Evgeny Epifanovsky,
  Bang C. Huynh
 -----------------------------------------------------------------------
 Exchange:     0.2000 Hartree-Fock + 0.0800 Slater + 0.7200 B88
 Correlation:  0.1900 VWN1RPA + 0.8100 LYP
 Using Euler-Maclaurin-Lebedev (99,590) quadrature formula
 using 16 threads for integral computing
 -------------------------------------------------------
 OpenMP Integral computing Module                
 Release: version 2.0, May 2017, Q-Chem Inc. Pleasanton 
 -------------------------------------------------------
 A restricted SCF calculation will be
 performed using DIIS
 SCF converges when DIIS error is below 1.0e-09
 ---------------------------------------
  Cycle       Energy         DIIS error
 ---------------------------------------
    1    -404.5821225959      4.49e-05  
    2    -404.5821387144      1.08e-05  
    3    -404.5821377503      1.96e-05  
    4    -404.5821391582      2.98e-06  
    5    -404.5821391947      5.74e-07  
    6    -404.5821391961      1.23e-07  
    7    -404.5821391962      3.56e-08  
    8    -404.5821391962      1.51e-08  
    9    -404.5821391962      3.36e-09  
   10    -404.5821391962      8.92e-10  Convergence criterion met
 ---------------------------------------
 SCF time:   CPU 479.22s  wall 30.00s 
 SCF   energy in the final basis set =     -404.5821391962
 Total energy in the final basis set =     -404.5821391962
 
 --------------------------------------------------------------
 
                    Orbital Energies (a.u.)
 --------------------------------------------------------------
 
 Alpha MOs
 -- Occupied --
-19.1268 -14.3766 -10.2925 -10.2349 -10.1997 -10.1976 -10.1951 -10.1949
-10.1935  -1.0394  -0.9374  -0.8376  -0.7561  -0.7541  -0.6466  -0.6260
 -0.6024  -0.5763  -0.5346  -0.4913  -0.4701  -0.4557  -0.4500  -0.4246
 -0.4176  -0.4064  -0.3930  -0.3806  -0.3609  -0.3587  -0.3371  -0.3269
 -0.3221  -0.2625  -0.2613
 -- Virtual --
 -0.0190  -0.0012   0.0095   0.0123   0.0194   0.0251   0.0373   0.0421
  0.0514   0.0572   0.0580   0.0765   0.0798   0.0820   0.0920   0.0937
  0.1008   0.1097   0.1138   0.1255   0.1301   0.1425   0.1448   0.1553
  0.1647   0.1716   0.1758   0.1769   0.1892   0.1911   0.1988   0.2033
  0.2138   0.2146   0.2266   0.2359   0.2431   0.2471   0.2515   0.2580
  0.2735   0.2763   0.2792   0.2831   0.2891   0.3020   0.3113   0.3187
  0.3221   0.3298   0.3542   0.3587   0.3740   0.3809   0.4034   0.4089
  0.4315   0.4509   0.4953   0.5974   0.6271   0.6429   0.6530   0.6563
  0.6732   0.6882   0.7169   0.7231   0.7389   0.7426   0.7669   0.7760
  0.7908   0.7979   0.8119   0.8375   0.8460   0.8968   0.9429   0.9605
  0.9633   0.9787   1.0076   1.0162   1.0254   1.0418   1.0756   1.0803
  1.1016   1.1070   1.1122   1.1442   1.1500   1.1551   1.1642   1.1793
  1.2295   1.2615   1.2939   1.3340   1.3433   1.3668   1.3791   1.4053
  1.4717   1.4825   1.4879   1.5586   1.5667   1.6104   1.6944   1.7172
  1.7222   1.7495   1.7662   1.8016   1.8517   1.8665   1.8888   1.8951
  1.9003   1.9353   1.9700   2.0006   2.0036   2.0336   2.0441   2.0796
  2.0826   2.1207   2.1887   2.2115   2.2700   2.2999   2.3060   2.3379
  2.3895   2.4005   2.4051   2.4117   2.4417   2.5561   2.5767   2.6217
  2.6597   2.6769   2.6955   2.7483   2.7661   2.8222   2.8618   3.0175
  3.1902   4.0807   4.1872   4.2390   4.2805   4.3228   4.4179   4.5880
  4.5932   4.6617
 --------------------------------------------------------------
 
          Ground-State Mulliken Net Atomic Charges

     Atom                 Charge (a.u.)
  ----------------------------------------
      1 C                    -0.235242
      2 C                    -0.562877
      3 C                    -0.262097
      4 C                    -0.414717
      5 C                    -0.401270
      6 C                    -0.416248
      7 H                     0.215498
      8 H                     0.253385
      9 H                     0.181666
     10 H                     0.217462
     11 H                     0.218215
     12 H                     0.193270
     13 H                     0.201301
     14 H                     0.181732
     15 H                     0.218707
     16 H                     0.195292
     17 H                     0.180298
     18 N                    -0.362843
     19 H                     0.382154
     20 C                     0.338971
     21 H                     0.134910
     22 O                    -0.457569
  ----------------------------------------
  Sum of atomic charges =     0.000000

 -----------------------------------------------------------------
                    Cartesian Multipole Moments
 -----------------------------------------------------------------
    Charge (ESU x 10^10)
                 0.0000
    Dipole Moment (Debye)
         X       1.6653      Y       1.0963      Z      -2.7423
       Tot       3.3905
    Quadrupole Moments (Debye-Ang)
        XX     -51.8225     XY       3.3411     YY     -54.8207
        XZ       2.0017     YZ       1.2733     ZZ     -58.3799
    Octopole Moments (Debye-Ang^2)
       XXX    -394.1514    XXY     -81.3043    XYY    -130.4315
       YYY    -263.9795    XXZ      26.2838    XYZ       3.8972
       YYZ      22.9385    XZZ    -135.3046    YZZ     -88.9662
       ZZZ      46.4167
    Hexadecapole Moments (Debye-Ang^3)
      XXXX   -2991.7707   XXXY    -850.2072   XXYY    -746.0151
      XYYY    -861.2367   YYYY   -1517.0301   XXXZ     245.8518
      XXYZ      63.5084   XYYZ      85.0633   YYYZ     140.5835
      XXZZ    -556.6855   XYZZ    -292.7353   YYZZ    -304.8020
      XZZZ     213.8116   YZZZ     129.2775   ZZZZ    -261.2866
 -----------------------------------------------------------------
 Calculating analytic gradient of the SCF energy
 Gradient of SCF Energy
            1           2           3           4           5           6
    1  -0.0000897   0.0000880  -0.0000331   0.0000250  -0.0000015   0.0000332
    2  -0.0000356  -0.0000171  -0.0000513   0.0000226  -0.0000037   0.0000072
    3   0.0000415   0.0000466   0.0000501   0.0000264   0.0000248   0.0000225
            7           8           9          10          11          12
    1   0.0000050  -0.0000029  -0.0000116   0.0000182   0.0000131   0.0000073
    2   0.0000050   0.0000168  -0.0000118   0.0000004   0.0000103  -0.0000089
    3   0.0000189  -0.0000115  -0.0000576   0.0000184  -0.0000822  -0.0000291
           13          14          15          16          17          18
    1   0.0000032  -0.0000241   0.0000118  -0.0000025  -0.0000254  -0.0000187
    2   0.0000006  -0.0000114   0.0000165   0.0000042  -0.0000001  -0.0000925
    3  -0.0000415  -0.0000910  -0.0000835  -0.0000230  -0.0000595   0.0000103
           19          20          21          22
    1   0.0000547  -0.0003204   0.0001193   0.0001510
    2  -0.0000437   0.0006969  -0.0002344  -0.0002701
    3   0.0000433   0.0000901   0.0001126  -0.0000266
 Max gradient component =       6.969E-04
 RMS gradient           =       1.140E-04
 Gradient time:  CPU 121.52 s  wall 7.73 s
 Geometry Optimization Parameters
   NAtoms,    NIC,     NZ,  NCons,   NDum,   NFix, NCnnct, MaxDiis
       22     172       0       0       0       0       0       0

 Cartesian Hessian Update
 Hessian updated using BFGS update


** GEOMETRY OPTIMIZATION IN DELOCALIZED INTERNAL COORDINATES **
   Searching for a Minimum

   Optimization Cycle:   3

                       Coordinates (Angstroms)
     ATOM                X               Y               Z
      1  C         1.9840671758    2.8337913524   -0.6436201096
      2  C         2.0891463526    1.3386048281   -0.2909866713
      3  C         3.4031213294    0.7308761883   -0.8132882682
      4  C         4.6281736540    1.5225287869   -0.3260726348
      5  C         4.5202448586    3.0126156214   -0.6859164072
      6  C         3.2121517414    3.6198435947   -0.1553501243
      7  H         3.4684379513   -0.3176722189   -0.4977933460
      8  H         2.0496160598    1.2259385464    0.7973876999
      9  H         1.8965829299    2.9358998539   -1.7386801442
     10  H         1.0637296053    3.2435709659   -0.2102709652
     11  H         4.7136933398    1.4185251286    0.7648480260
     12  H         5.5435962832    1.0898260300   -0.7507118279
     13  H         5.3821492859    3.5614521483   -0.2853582274
     14  H         4.5558940040    3.1258880997   -1.7819156733
     15  H         3.2298633417    3.6153984868    0.9436856698
     16  H         3.1259398759    4.6713758484   -0.4586820869
     17  H         3.3835576401    0.7333959496   -1.9167061252
     18  N         0.9344113512    0.5946372752   -0.7967545014
     19  H         0.8107413229    0.5267624365   -1.7999154365
     20  C        -0.0062997315    0.0002219096   -0.0078719447
     21  H        -0.7923821727   -0.5055434608   -0.6035367770
     22  O        -0.0120291135   -0.0048706304    1.2121139817
   Point Group: c1    Number of degrees of freedom:    60


   Energy is   -404.582139196

 Hessian updated using BFGS update

 60 Hessian modes will be used to form the next step
  Hessian Eigenvalues:
     0.005267    0.005974    0.006874    0.007166    0.012078    0.019501
     0.019608    0.020843    0.035632    0.038439    0.039418    0.040744
     0.047845    0.048449    0.048622    0.052777    0.055309    0.055752
     0.056305    0.060095    0.066949    0.080936    0.081534    0.081610
     0.082108    0.082146    0.084067    0.087536    0.120489    0.120968
     0.142633    0.145483    0.160468    0.160949    0.175039    0.211070
     0.219931    0.223450    0.272319    0.272575    0.275535    0.284651
     0.286837    0.287234    0.325196    0.334546    0.334972    0.335944
     0.336547    0.339254    0.339399    0.339441    0.340073    0.340254
     0.342265    0.347119    0.364639    0.444821    0.454556    0.821103

 Minimum search - taking simple RFO step
 Searching for Lamda that Minimizes Along All modes
 Value Taken    Lamda =  -0.00000632
 Step Taken.  Stepsize is  0.013797

                             Maximum     Tolerance    Cnvgd?
         Gradient           0.000439      0.000100      NO
         Displacement       0.008493      0.000100      NO
         Energy change     -0.000001      0.000000      NO


 New Cartesian Coordinates Obtained by Inverse Iteration

 Displacement from previous Coordinates is:  0.023201
 ----------------------------------------------------------------
             Standard Nuclear Orientation (Angstroms)
    I     Atom           X                Y                Z
 ----------------------------------------------------------------
    1      C       1.9839544334     2.8326647574    -0.6421668834
    2      C       2.0899407542     1.3372790542    -0.2903054678
    3      C       3.4044136849     0.7305118440    -0.8126683155
    4      C       4.6290721294     1.5231694717    -0.3265262890
    5      C       4.5199376729     3.0131093678    -0.6867289129
    6      C       3.2118556197     3.6194172222    -0.1549806827
    7      H       3.4704649781    -0.3178838590    -0.4969008602
    8      H       2.0499556935     1.2237622249     0.7979820238
    9      H       1.8954311067     2.9349986491    -1.7371041782
   10      H       1.0636077351     3.2416378355    -0.2080816986
   11      H       4.7155644203     1.4196751521     0.7644420458
   12      H       5.5443967357     1.0907367004    -0.7516597773
   13      H       5.3820000007     3.5627473113    -0.2876209433
   14      H       4.5540270814     3.1258643966    -1.7827921798
   15      H       3.2307450357     3.6150197861     0.9441113511
   16      H       3.1244163407     4.6708952787    -0.4581805166
   17      H       3.3843456411     0.7325096680    -1.9160693734
   18      N       0.9360250338     0.5928075173    -0.7968560063
   19      H       0.8124969092     0.5256664977    -1.8000869621
   20      C      -0.0065674086    -0.0004038879    -0.0082896350
   21      H      -0.7946034208    -0.5008919352    -0.6061220881
   22      O      -0.0170730919    -0.0002263124     1.2112094559
 ----------------------------------------------------------------
 Nuclear Repulsion Energy =         466.55194556 hartrees
 There are       35 alpha and       35 beta electrons
 Applying Cartesian multipole field
    Component          Value
    ---------          -----
     (0,0,1)       -3.89000E-03
 Nucleus-field energy     =     0.1540511976 hartrees
 Requested basis set is 6-31+G(d)
 There are 71 shells and 197 basis functions
 A cutoff of  1.0D-14 yielded   2412 shell pairs
 There are     18992 function pairs
 Smallest overlap matrix eigenvalue = 2.47E-05
 Guess MOs from SCF MO coefficient file

 -----------------------------------------------------------------------
  General SCF calculation program by
  Eric Jon Sundstrom, Paul Horn, Yuezhi Mao, Dmitri Zuev, Alec White,
  David Stuck, Shaama M.S., Shane Yost, Joonho Lee, David Small,
  Daniel Levine, Susi Lehtola, Hugh Burton, Evgeny Epifanovsky,
  Bang C. Huynh
 -----------------------------------------------------------------------
 Exchange:     0.2000 Hartree-Fock + 0.0800 Slater + 0.7200 B88
 Correlation:  0.1900 VWN1RPA + 0.8100 LYP
 Using Euler-Maclaurin-Lebedev (99,590) quadrature formula
 using 16 threads for integral computing
 -------------------------------------------------------
 OpenMP Integral computing Module                
 Release: version 2.0, May 2017, Q-Chem Inc. Pleasanton 
 -------------------------------------------------------
 A restricted SCF calculation will be
 performed using DIIS
 SCF converges when DIIS error is below 1.0e-09
 ---------------------------------------
  Cycle       Energy         DIIS error
 ---------------------------------------
    1    -404.5821113864      5.67e-05  
    2    -404.5821389868      9.49e-06  
    3    -404.5821388986      1.24e-05  
    4    -404.5821393848      4.93e-06  
    5    -404.5821394803      4.10e-07  
    6    -404.5821394810      1.83e-07  
    7    -404.5821394811      3.83e-08  
    8    -404.5821394812      9.97e-09  
    9    -404.5821394812      5.34e-09  
   10    -404.5821394812      1.12e-09  
   11    -404.5821394812      4.21e-10  Convergence criterion met
 ---------------------------------------
 SCF time:   CPU 536.35s  wall 34.00s 
 SCF   energy in the final basis set =     -404.5821394812
 Total energy in the final basis set =     -404.5821394812
 
 --------------------------------------------------------------
 
                    Orbital Energies (a.u.)
 --------------------------------------------------------------
 
 Alpha MOs
 -- Occupied --
-19.1270 -14.3765 -10.2926 -10.2348 -10.1997 -10.1976 -10.1951 -10.1949
-10.1935  -1.0397  -0.9373  -0.8376  -0.7561  -0.7540  -0.6466  -0.6260
 -0.6023  -0.5762  -0.5345  -0.4913  -0.4701  -0.4557  -0.4500  -0.4246
 -0.4177  -0.4065  -0.3930  -0.3806  -0.3608  -0.3586  -0.3371  -0.3268
 -0.3221  -0.2626  -0.2613
 -- Virtual --
 -0.0190  -0.0011   0.0095   0.0123   0.0194   0.0251   0.0373   0.0421
  0.0514   0.0573   0.0580   0.0765   0.0798   0.0820   0.0920   0.0938
  0.1008   0.1097   0.1138   0.1255   0.1301   0.1425   0.1449   0.1553
  0.1646   0.1716   0.1758   0.1769   0.1891   0.1911   0.1989   0.2034
  0.2138   0.2146   0.2265   0.2359   0.2431   0.2471   0.2515   0.2580
  0.2734   0.2764   0.2792   0.2831   0.2891   0.3020   0.3113   0.3185
  0.3220   0.3297   0.3543   0.3587   0.3740   0.3808   0.4034   0.4090
  0.4314   0.4509   0.4954   0.5973   0.6272   0.6429   0.6530   0.6563
  0.6732   0.6881   0.7169   0.7231   0.7385   0.7429   0.7669   0.7759
  0.7908   0.7980   0.8118   0.8376   0.8459   0.8969   0.9429   0.9605
  0.9632   0.9787   1.0075   1.0163   1.0254   1.0419   1.0757   1.0804
  1.1016   1.1070   1.1122   1.1442   1.1500   1.1551   1.1641   1.1792
  1.2296   1.2613   1.2937   1.3339   1.3433   1.3667   1.3792   1.4053
  1.4718   1.4826   1.4875   1.5590   1.5666   1.6106   1.6943   1.7170
  1.7222   1.7496   1.7661   1.8017   1.8515   1.8666   1.8886   1.8952
  1.9004   1.9352   1.9699   2.0006   2.0036   2.0335   2.0442   2.0796
  2.0827   2.1204   2.1887   2.2113   2.2701   2.2998   2.3057   2.3380
  2.3895   2.4008   2.4052   2.4118   2.4416   2.5562   2.5767   2.6219
  2.6597   2.6769   2.6957   2.7483   2.7658   2.8223   2.8619   3.0179
  3.1903   4.0806   4.1871   4.2392   4.2806   4.3228   4.4181   4.5879
  4.5932   4.6617
 --------------------------------------------------------------
 
          Ground-State Mulliken Net Atomic Charges

     Atom                 Charge (a.u.)
  ----------------------------------------
      1 C                    -0.235256
      2 C                    -0.562002
      3 C                    -0.262219
      4 C                    -0.414771
      5 C                    -0.401181
      6 C                    -0.416606
      7 H                     0.215452
      8 H                     0.253220
      9 H                     0.181666
     10 H                     0.217519
     11 H                     0.218161
     12 H                     0.193250
     13 H                     0.201278
     14 H                     0.181713
     15 H                     0.218685
     16 H                     0.195294
     17 H                     0.180276
     18 N                    -0.363331
     19 H                     0.382124
     20 C                     0.339121
     21 H                     0.134718
     22 O                    -0.457111
  ----------------------------------------
  Sum of atomic charges =     0.000000

 -----------------------------------------------------------------
                    Cartesian Multipole Moments
 -----------------------------------------------------------------
    Charge (ESU x 10^10)
                 0.0000
    Dipole Moment (Debye)
         X       1.6700      Y       1.0889      Z      -2.7369
       Tot       3.3861
    Quadrupole Moments (Debye-Ang)
        XX     -51.8353     XY       3.3360     YY     -54.8236
        XZ       2.0186     YZ       1.2551     ZZ     -58.3718
    Octopole Moments (Debye-Ang^2)
       XXX    -394.1788    XXY     -81.3141    XYY    -130.4331
       YYY    -263.9836    XXZ      26.2844    XYZ       3.8954
       YYZ      22.9402    XZZ    -135.2867    YZZ     -88.9866
       ZZZ      46.4353
    Hexadecapole Moments (Debye-Ang^3)
      XXXX   -2992.6813   XXXY    -850.1708   XXYY    -746.0802
      XYYY    -861.2064   YYYY   -1516.6004   XXXZ     245.9938
      XXYZ      63.4359   XYYZ      85.1095   YYYZ     140.3567
      XXZZ    -556.8082   XYZZ    -292.7391   YYZZ    -304.7186
      XZZZ     213.9606   YZZZ     129.0622   ZZZZ    -261.1319
 -----------------------------------------------------------------
 Calculating analytic gradient of the SCF energy
 Gradient of SCF Energy
            1           2           3           4           5           6
    1  -0.0000221   0.0000103   0.0000458  -0.0000480   0.0000600  -0.0000223
    2   0.0000439   0.0000249  -0.0000783   0.0000124   0.0000305  -0.0000312
    3   0.0000707   0.0000350   0.0000674  -0.0000556   0.0000598  -0.0000742
            7           8           9          10          11          12
    1  -0.0000125  -0.0000362  -0.0000181   0.0000084   0.0000252  -0.0000087
    2   0.0000182  -0.0000273  -0.0000120  -0.0000125   0.0000149  -0.0000328
    3   0.0000083  -0.0000152  -0.0000394   0.0000057  -0.0000414  -0.0000311
           13          14          15          16          17          18
    1   0.0000174  -0.0000394   0.0000268  -0.0000249  -0.0000294   0.0000888
    2   0.0000088  -0.0000217   0.0000190   0.0000062  -0.0000066   0.0002603
    3  -0.0000659  -0.0000601  -0.0000408  -0.0000227  -0.0000498  -0.0003001
           19          20          21          22
    1   0.0000241   0.0001603  -0.0000881  -0.0001173
    2   0.0000322  -0.0005887   0.0001694   0.0001705
    3   0.0000332   0.0011165  -0.0000576  -0.0005429
 Max gradient component =       1.116E-03
 RMS gradient           =       1.840E-04
 Gradient time:  CPU 121.83 s  wall 7.74 s
 Geometry Optimization Parameters
   NAtoms,    NIC,     NZ,  NCons,   NDum,   NFix, NCnnct, MaxDiis
       22     172       0       0       0       0       0       0

 Cartesian Hessian Update
 Hessian updated using BFGS update


** GEOMETRY OPTIMIZATION IN DELOCALIZED INTERNAL COORDINATES **
   Searching for a Minimum

   Optimization Cycle:   4

                       Coordinates (Angstroms)
     ATOM                X               Y               Z
      1  C         1.9839544334    2.8326647574   -0.6421668834
      2  C         2.0899407542    1.3372790542   -0.2903054678
      3  C         3.4044136849    0.7305118440   -0.8126683155
      4  C         4.6290721294    1.5231694717   -0.3265262890
      5  C         4.5199376729    3.0131093678   -0.6867289129
      6  C         3.2118556197    3.6194172222   -0.1549806827
      7  H         3.4704649781   -0.3178838590   -0.4969008602
      8  H         2.0499556935    1.2237622249    0.7979820238
      9  H         1.8954311067    2.9349986491   -1.7371041782
     10  H         1.0636077351    3.2416378355   -0.2080816986
     11  H         4.7155644203    1.4196751521    0.7644420458
     12  H         5.5443967357    1.0907367004   -0.7516597773
     13  H         5.3820000007    3.5627473113   -0.2876209433
     14  H         4.5540270814    3.1258643966   -1.7827921798
     15  H         3.2307450357    3.6150197861    0.9441113511
     16  H         3.1244163407    4.6708952787   -0.4581805166
     17  H         3.3843456411    0.7325096680   -1.9160693734
     18  N         0.9360250338    0.5928075173   -0.7968560063
     19  H         0.8124969092    0.5256664977   -1.8000869621
     20  C        -0.0065674086   -0.0004038879   -0.0082896350
     21  H        -0.7946034208   -0.5008919352   -0.6061220881
     22  O        -0.0170730919   -0.0002263124    1.2112094559
   Point Group: c1    Number of degrees of freedom:    60


   Energy is   -404.582139481

 Hessian updated using BFGS update

 60 Hessian modes will be used to form the next step
  Hessian Eigenvalues:
     0.005636    0.005974    0.006906    0.007093    0.011948    0.019501
     0.019707    0.020832    0.037125    0.038523    0.039420    0.041723
     0.048125    0.048449    0.048877    0.055277    0.055689    0.055979
     0.059989    0.066881    0.080737    0.081532    0.081590    0.081836
     0.082098    0.083191    0.084066    0.087642    0.120811    0.120969
     0.143004    0.149536    0.160515    0.160559    0.174992    0.211090
     0.219953    0.223967    0.272253    0.272617    0.275534    0.285501
     0.286854    0.287190    0.325900    0.334537    0.334926    0.335956
     0.336547    0.339183    0.339403    0.339441    0.340076    0.340258
     0.342264    0.344788    0.365487    0.453685    0.459099    0.830746

 Minimum search - taking simple RFO step
 Searching for Lamda that Minimizes Along All modes
 Value Taken    Lamda =  -0.00000357
 Step Taken.  Stepsize is  0.009061

                             Maximum     Tolerance    Cnvgd?
         Gradient           0.000403      0.000100      NO
         Displacement       0.003575      0.000100      NO
         Energy change     -0.000000      0.000000      NO


 New Cartesian Coordinates Obtained by Inverse Iteration

 Displacement from previous Coordinates is:  0.015089
 ----------------------------------------------------------------
             Standard Nuclear Orientation (Angstroms)
    I     Atom           X                Y                Z
 ----------------------------------------------------------------
    1      C       1.9840420725     2.8328217910    -0.6435559397
    2      C       2.0897663029     1.3375647502    -0.2912631910
    3      C       3.4040579090     0.7307878239    -0.8138984492
    4      C       4.6286743367     1.5228322482    -0.3263968473
    5      C       4.5200016541     3.0129697004    -0.6857990152
    6      C       3.2116330231     3.6193204747    -0.1549258580
    7      H       3.4699082325    -0.3178835185    -0.4988971134
    8      H       2.0507812532     1.2248476956     0.7971709651
    9      H       1.8965627198     2.9352030706    -1.7384888812
   10      H       1.0634034141     3.2420289031    -0.2102598540
   11      H       4.7142588297     1.4185594571     0.7645948461
   12      H       5.5442948755     1.0907734852    -0.7512201699
   13      H       5.3816358599     3.5621198124    -0.2851129230
   14      H       4.5556112840     3.1266635716    -1.7816617413
   15      H       3.2293976916     3.6144408870     0.9442115657
   16      H       3.1248960623     4.6709011263    -0.4579226129
   17      H       3.3844934694     0.7336470196    -1.9172075695
   18      N       0.9353149701     0.5928620701    -0.7966459002
   19      H       0.8111271569     0.5247510484    -1.7997454091
   20      C      -0.0065011334     0.0004326563    -0.0075690597
   21      H      -0.7942946242    -0.5026292624    -0.6032753126
   22      O      -0.0146582748     0.0000519297     1.2124725764
 ----------------------------------------------------------------
 Nuclear Repulsion Energy =         466.56681256 hartrees
 There are       35 alpha and       35 beta electrons
 Applying Cartesian multipole field
    Component          Value
    ---------          -----
     (0,0,1)       -3.89000E-03
 Nucleus-field energy     =     0.1540409678 hartrees
 Requested basis set is 6-31+G(d)
 There are 71 shells and 197 basis functions
 A cutoff of  1.0D-14 yielded   2412 shell pairs
 There are     18992 function pairs
 Smallest overlap matrix eigenvalue = 2.47E-05
 Guess MOs from SCF MO coefficient file

 -----------------------------------------------------------------------
  General SCF calculation program by
  Eric Jon Sundstrom, Paul Horn, Yuezhi Mao, Dmitri Zuev, Alec White,
  David Stuck, Shaama M.S., Shane Yost, Joonho Lee, David Small,
  Daniel Levine, Susi Lehtola, Hugh Burton, Evgeny Epifanovsky,
  Bang C. Huynh
 -----------------------------------------------------------------------
 Exchange:     0.2000 Hartree-Fock + 0.0800 Slater + 0.7200 B88
 Correlation:  0.1900 VWN1RPA + 0.8100 LYP
 Using Euler-Maclaurin-Lebedev (99,590) quadrature formula
 using 16 threads for integral computing
 -------------------------------------------------------
 OpenMP Integral computing Module                
 Release: version 2.0, May 2017, Q-Chem Inc. Pleasanton 
 -------------------------------------------------------
 A restricted SCF calculation will be
 performed using DIIS
 SCF converges when DIIS error is below 1.0e-09
 ---------------------------------------
  Cycle       Energy         DIIS error
 ---------------------------------------
    1    -404.5821358491      2.56e-05  
    2    -404.5821410911      6.17e-06  
    3    -404.5821407925      1.11e-05  
    4    -404.5821412361      1.82e-06  
    5    -404.5821412495      3.56e-07  
    6    -404.5821412501      7.61e-08  
    7    -404.5821412501      2.60e-08  
    8    -404.5821412501      1.04e-08  
    9    -404.5821412501      2.22e-09  
   10    -404.5821412501      5.93e-10  Convergence criterion met
 ---------------------------------------
 SCF time:   CPU 490.64s  wall 31.00s 
 SCF   energy in the final basis set =     -404.5821412501
 Total energy in the final basis set =     -404.5821412501
 
 --------------------------------------------------------------
 
                    Orbital Energies (a.u.)
 --------------------------------------------------------------
 
 Alpha MOs
 -- Occupied --
-19.1268 -14.3766 -10.2925 -10.2349 -10.1997 -10.1976 -10.1951 -10.1949
-10.1935  -1.0394  -0.9373  -0.8376  -0.7561  -0.7541  -0.6466  -0.6260
 -0.6023  -0.5763  -0.5346  -0.4913  -0.4701  -0.4557  -0.4500  -0.4246
 -0.4176  -0.4065  -0.3930  -0.3805  -0.3608  -0.3587  -0.3371  -0.3269
 -0.3221  -0.2625  -0.2612
 -- Virtual --
 -0.0190  -0.0012   0.0095   0.0123   0.0194   0.0250   0.0373   0.0421
  0.0514   0.0573   0.0580   0.0765   0.0798   0.0820   0.0920   0.0937
  0.1008   0.1097   0.1138   0.1255   0.1301   0.1425   0.1448   0.1554
  0.1647   0.1716   0.1758   0.1769   0.1891   0.1911   0.1988   0.2033
  0.2138   0.2146   0.2266   0.2359   0.2430   0.2471   0.2515   0.2580
  0.2734   0.2764   0.2792   0.2831   0.2891   0.3020   0.3113   0.3187
  0.3221   0.3298   0.3542   0.3588   0.3741   0.3810   0.4034   0.4089
  0.4315   0.4509   0.4952   0.5973   0.6271   0.6429   0.6530   0.6563
  0.6732   0.6881   0.7169   0.7231   0.7386   0.7429   0.7669   0.7760
  0.7908   0.7979   0.8118   0.8376   0.8460   0.8968   0.9429   0.9605
  0.9633   0.9787   1.0076   1.0162   1.0254   1.0418   1.0755   1.0803
  1.1016   1.1070   1.1122   1.1442   1.1499   1.1551   1.1642   1.1793
  1.2296   1.2615   1.2939   1.3341   1.3434   1.3669   1.3792   1.4054
  1.4717   1.4826   1.4876   1.5586   1.5666   1.6104   1.6944   1.7171
  1.7222   1.7495   1.7662   1.8017   1.8516   1.8666   1.8888   1.8951
  1.9003   1.9352   1.9701   2.0006   2.0037   2.0336   2.0441   2.0795
  2.0826   2.1207   2.1887   2.2114   2.2703   2.3000   2.3059   2.3379
  2.3896   2.4006   2.4052   2.4117   2.4417   2.5561   2.5768   2.6217
  2.6597   2.6768   2.6955   2.7483   2.7661   2.8223   2.8618   3.0175
  3.1901   4.0807   4.1873   4.2390   4.2805   4.3228   4.4178   4.5880
  4.5933   4.6617
 --------------------------------------------------------------
 
          Ground-State Mulliken Net Atomic Charges

     Atom                 Charge (a.u.)
  ----------------------------------------
      1 C                    -0.235221
      2 C                    -0.562762
      3 C                    -0.262318
      4 C                    -0.414555
      5 C                    -0.401274
      6 C                    -0.416312
      7 H                     0.215456
      8 H                     0.253352
      9 H                     0.181701
     10 H                     0.217493
     11 H                     0.218188
     12 H                     0.193262
     13 H                     0.201303
     14 H                     0.181754
     15 H                     0.218707
     16 H                     0.195298
     17 H                     0.180324
     18 N                    -0.362806
     19 H                     0.382112
     20 C                     0.338930
     21 H                     0.134938
     22 O                    -0.457569
  ----------------------------------------
  Sum of atomic charges =     0.000000

 -----------------------------------------------------------------
                    Cartesian Multipole Moments
 -----------------------------------------------------------------
    Charge (ESU x 10^10)
                -0.0000
    Dipole Moment (Debye)
         X       1.6682      Y       1.0891      Z      -2.7433
       Tot       3.3904
    Quadrupole Moments (Debye-Ang)
        XX     -51.8238     XY       3.3426     YY     -54.8198
        XZ       2.0104     YZ       1.2562     ZZ     -58.3816
    Octopole Moments (Debye-Ang^2)
       XXX    -394.1479    XXY     -81.3041    XYY    -130.4255
       YYY    -263.9922    XXZ      26.2738    XYZ       3.8941
       YYZ      22.9331    XZZ    -135.2895    YZZ     -88.9928
       ZZZ      46.4092
    Hexadecapole Moments (Debye-Ang^3)
      XXXX   -2992.1949   XXXY    -850.0894   XXYY    -745.9950
      XYYY    -861.1322   YYYY   -1516.5483   XXXZ     245.9309
      XXYZ      63.4267   XYYZ      85.0878   YYYZ     140.3840
      XXZZ    -556.7429   XYZZ    -292.6989   YYZZ    -304.7340
      XZZZ     213.9355   YZZZ     129.0997   ZZZZ    -261.3523
 -----------------------------------------------------------------
 Calculating analytic gradient of the SCF energy
 Gradient of SCF Energy
            1           2           3           4           5           6
    1   0.0000044   0.0000266  -0.0000006   0.0000097  -0.0000112   0.0000107
    2  -0.0000133  -0.0000040   0.0000029   0.0000043  -0.0000066   0.0000060
    3  -0.0000108   0.0000074   0.0000015  -0.0000225  -0.0000462  -0.0000209
            7           8           9          10          11          12
    1  -0.0000005   0.0000205  -0.0000181   0.0000060   0.0000162  -0.0000029
    2   0.0000036   0.0000176  -0.0000114   0.0000014   0.0000083   0.0000015
    3   0.0000084   0.0000187   0.0000059   0.0000090  -0.0000175  -0.0000329
           13          14          15          16          17          18
    1  -0.0000027  -0.0000154   0.0000173   0.0000026  -0.0000212  -0.0000875
    2  -0.0000002  -0.0000098   0.0000122  -0.0000000  -0.0000120   0.0000343
    3  -0.0000509  -0.0000346  -0.0000148  -0.0000323   0.0000066   0.0000572
           19          20          21          22
    1  -0.0000148   0.0000460  -0.0000154   0.0000302
    2  -0.0000226  -0.0000546   0.0000094   0.0000329
    3   0.0000394  -0.0000163   0.0000657   0.0000801
 Max gradient component =       8.750E-05
 RMS gradient           =       2.680E-05
 Gradient time:  CPU 121.73 s  wall 7.73 s
 Geometry Optimization Parameters
   NAtoms,    NIC,     NZ,  NCons,   NDum,   NFix, NCnnct, MaxDiis
       22     172       0       0       0       0       0       0

 Cartesian Hessian Update
 Hessian updated using BFGS update


** GEOMETRY OPTIMIZATION IN DELOCALIZED INTERNAL COORDINATES **
   Searching for a Minimum

   Optimization Cycle:   5

                       Coordinates (Angstroms)
     ATOM                X               Y               Z
      1  C         1.9840420725    2.8328217910   -0.6435559397
      2  C         2.0897663029    1.3375647502   -0.2912631910
      3  C         3.4040579090    0.7307878239   -0.8138984492
      4  C         4.6286743367    1.5228322482   -0.3263968473
      5  C         4.5200016541    3.0129697004   -0.6857990152
      6  C         3.2116330231    3.6193204747   -0.1549258580
      7  H         3.4699082325   -0.3178835185   -0.4988971134
      8  H         2.0507812532    1.2248476956    0.7971709651
      9  H         1.8965627198    2.9352030706   -1.7384888812
     10  H         1.0634034141    3.2420289031   -0.2102598540
     11  H         4.7142588297    1.4185594571    0.7645948461
     12  H         5.5442948755    1.0907734852   -0.7512201699
     13  H         5.3816358599    3.5621198124   -0.2851129230
     14  H         4.5556112840    3.1266635716   -1.7816617413
     15  H         3.2293976916    3.6144408870    0.9442115657
     16  H         3.1248960623    4.6709011263   -0.4579226129
     17  H         3.3844934694    0.7336470196   -1.9172075695
     18  N         0.9353149701    0.5928620701   -0.7966459002
     19  H         0.8111271569    0.5247510484   -1.7997454091
     20  C        -0.0065011334    0.0004326563   -0.0075690597
     21  H        -0.7942946242   -0.5026292624   -0.6032753126
     22  O        -0.0146582748    0.0000519297    1.2124725764
   Point Group: c1    Number of degrees of freedom:    60


   Energy is   -404.582141250

 Hessian updated using BFGS update

 60 Hessian modes will be used to form the next step
  Hessian Eigenvalues:
     0.005713    0.005974    0.006906    0.007001    0.011980    0.019501
     0.019729    0.020818    0.037208    0.038576    0.039420    0.041895
     0.048179    0.048449    0.048908    0.055280    0.055696    0.056011
     0.059989    0.066831    0.077058    0.080832    0.081538    0.081605
     0.082086    0.082184    0.084065    0.087594    0.120966    0.121093
     0.143073    0.149926    0.160435    0.161072    0.175149    0.211046
     0.219952    0.228669    0.272230    0.272676    0.275538    0.286070
     0.286952    0.287292    0.325796    0.334571    0.334995    0.335941
     0.336547    0.339236    0.339413    0.339441    0.340047    0.340248
     0.342277    0.345394    0.368125    0.453957    0.467717    0.835501

 Minimum search - taking simple RFO step
 Searching for Lamda that Minimizes Along All modes
 Value Taken    Lamda =  -0.00000016
 Step Taken.  Stepsize is  0.003923

                             Maximum     Tolerance    Cnvgd?
         Gradient           0.000031      0.000100     YES
         Displacement       0.002112      0.000100      NO
         Energy change     -0.000002      0.000000      NO


 New Cartesian Coordinates Obtained by Inverse Iteration

 Displacement from previous Coordinates is:  0.006875
 ----------------------------------------------------------------
             Standard Nuclear Orientation (Angstroms)
    I     Atom           X                Y                Z
 ----------------------------------------------------------------
    1      C       1.9839640283     2.8324424960    -0.6433462867
    2      C       2.0900522520     1.3371594812    -0.2912209784
    3      C       3.4044052216     0.7306854842    -0.8140487186
    4      C       4.6288976397     1.5229379334    -0.3266090787
    5      C       4.5198967986     3.0131136557    -0.6858054539
    6      C       3.2114326316     3.6191344955    -0.1547552156
    7      H       3.4704953558    -0.3180130207    -0.4991709362
    8      H       2.0511005798     1.2243016663     0.7971942432
    9      H       1.8963715450     2.9349120430    -1.7382722661
   10      H       1.0632671944     3.2414005997    -0.2099284407
   11      H       4.7146325920     1.4185725690     0.7643508832
   12      H       5.5445532936     1.0910844855    -0.7515700348
   13      H       5.3814735831     3.5623933430    -0.2851593598
   14      H       4.5553489630     3.1269288345    -1.7816664464
   15      H       3.2293155149     3.6141245296     0.9443670928
   16      H       3.1244240738     4.6707381483    -0.4575950997
   17      H       3.3847320672     0.7336538034    -1.9173691849
   18      N       0.9358196994     0.5922469482    -0.7966263922
   19      H       0.8118809625     0.5238058893    -1.7997366987
   20      C      -0.0070397498     0.0013704396    -0.0075399768
   21      H      -0.7945921440    -0.5019493165    -0.6033485018
   22      O      -0.0160250174     0.0020222324     1.2124609572
 ----------------------------------------------------------------
 Nuclear Repulsion Energy =         466.56815613 hartrees
 There are       35 alpha and       35 beta electrons
 Applying Cartesian multipole field
    Component          Value
    ---------          -----
     (0,0,1)       -3.89000E-03
 Nucleus-field energy     =     0.1540376674 hartrees
 Requested basis set is 6-31+G(d)
 There are 71 shells and 197 basis functions
 A cutoff of  1.0D-14 yielded   2412 shell pairs
 There are     18992 function pairs
 Smallest overlap matrix eigenvalue = 2.47E-05
 Guess MOs from SCF MO coefficient file

 -----------------------------------------------------------------------
  General SCF calculation program by
  Eric Jon Sundstrom, Paul Horn, Yuezhi Mao, Dmitri Zuev, Alec White,
  David Stuck, Shaama M.S., Shane Yost, Joonho Lee, David Small,
  Daniel Levine, Susi Lehtola, Hugh Burton, Evgeny Epifanovsky,
  Bang C. Huynh
 -----------------------------------------------------------------------
 Exchange:     0.2000 Hartree-Fock + 0.0800 Slater + 0.7200 B88
 Correlation:  0.1900 VWN1RPA + 0.8100 LYP
 Using Euler-Maclaurin-Lebedev (99,590) quadrature formula
 using 16 threads for integral computing
 -------------------------------------------------------
 OpenMP Integral computing Module                
 Release: version 2.0, May 2017, Q-Chem Inc. Pleasanton 
 -------------------------------------------------------
 A restricted SCF calculation will be
 performed using DIIS
 SCF converges when DIIS error is below 1.0e-09
 ---------------------------------------
  Cycle       Energy         DIIS error
 ---------------------------------------
    1    -404.5821394646      1.41e-05  
    2    -404.5821413657      1.84e-06  
    3    -404.5821413883      9.66e-07  
    4    -404.5821413897      8.03e-07  
    5    -404.5821413921      1.57e-07  
    6    -404.5821413922      5.43e-08  
    7    -404.5821413922      7.34e-09  
    8    -404.5821413922      2.55e-09  
    9    -404.5821413922      1.02e-09  
   10    -404.5821413922      2.11e-10  Convergence criterion met
 ---------------------------------------
 SCF time:   CPU 490.14s  wall 31.00s 
 SCF   energy in the final basis set =     -404.5821413922
 Total energy in the final basis set =     -404.5821413922
 
 --------------------------------------------------------------
 
                    Orbital Energies (a.u.)
 --------------------------------------------------------------
 
 Alpha MOs
 -- Occupied --
-19.1268 -14.3766 -10.2925 -10.2349 -10.1997 -10.1976 -10.1951 -10.1949
-10.1935  -1.0394  -0.9373  -0.8376  -0.7561  -0.7541  -0.6466  -0.6260
 -0.6023  -0.5763  -0.5346  -0.4913  -0.4701  -0.4557  -0.4500  -0.4246
 -0.4176  -0.4065  -0.3930  -0.3805  -0.3608  -0.3587  -0.3371  -0.3269
 -0.3221  -0.2625  -0.2612
 -- Virtual --
 -0.0190  -0.0012   0.0095   0.0123   0.0194   0.0250   0.0373   0.0421
  0.0514   0.0572   0.0580   0.0765   0.0798   0.0820   0.0920   0.0937
  0.1008   0.1097   0.1138   0.1255   0.1301   0.1425   0.1449   0.1554
  0.1647   0.1716   0.1758   0.1769   0.1891   0.1911   0.1988   0.2033
  0.2138   0.2146   0.2266   0.2359   0.2430   0.2471   0.2515   0.2580
  0.2734   0.2764   0.2792   0.2831   0.2891   0.3020   0.3113   0.3187
  0.3221   0.3298   0.3542   0.3588   0.3740   0.3810   0.4034   0.4089
  0.4314   0.4509   0.4952   0.5973   0.6272   0.6429   0.6530   0.6563
  0.6732   0.6881   0.7169   0.7231   0.7386   0.7429   0.7669   0.7760
  0.7908   0.7979   0.8117   0.8376   0.8460   0.8968   0.9429   0.9605
  0.9633   0.9787   1.0076   1.0162   1.0254   1.0418   1.0756   1.0803
  1.1016   1.1070   1.1122   1.1442   1.1499   1.1551   1.1642   1.1793
  1.2295   1.2614   1.2939   1.3341   1.3433   1.3668   1.3792   1.4054
  1.4716   1.4826   1.4877   1.5587   1.5666   1.6104   1.6945   1.7171
  1.7222   1.7495   1.7662   1.8017   1.8516   1.8666   1.8888   1.8951
  1.9003   1.9352   1.9701   2.0006   2.0037   2.0336   2.0441   2.0795
  2.0826   2.1206   2.1887   2.2113   2.2704   2.3000   2.3059   2.3379
  2.3896   2.4006   2.4052   2.4117   2.4417   2.5561   2.5767   2.6217
  2.6597   2.6768   2.6956   2.7483   2.7660   2.8223   2.8618   3.0175
  3.1902   4.0807   4.1873   4.2390   4.2805   4.3228   4.4178   4.5880
  4.5933   4.6617
 --------------------------------------------------------------
 
          Ground-State Mulliken Net Atomic Charges

     Atom                 Charge (a.u.)
  ----------------------------------------
      1 C                    -0.235020
      2 C                    -0.562747
      3 C                    -0.262488
      4 C                    -0.414499
      5 C                    -0.401274
      6 C                    -0.416378
      7 H                     0.215456
      8 H                     0.253331
      9 H                     0.181708
     10 H                     0.217496
     11 H                     0.218184
     12 H                     0.193258
     13 H                     0.201302
     14 H                     0.181750
     15 H                     0.218710
     16 H                     0.195300
     17 H                     0.180313
     18 N                    -0.362848
     19 H                     0.382117
     20 C                     0.338934
     21 H                     0.134918
     22 O                    -0.457523
  ----------------------------------------
  Sum of atomic charges =     0.000000

 -----------------------------------------------------------------
                    Cartesian Multipole Moments
 -----------------------------------------------------------------
    Charge (ESU x 10^10)
                -0.0000
    Dipole Moment (Debye)
         X       1.6700      Y       1.0861      Z      -2.7429
       Tot       3.3900
    Quadrupole Moments (Debye-Ang)
        XX     -51.8249     XY       3.3417     YY     -54.8204
        XZ       2.0139     YZ       1.2509     ZZ     -58.3814
    Octopole Moments (Debye-Ang^2)
       XXX    -394.1353    XXY     -81.3138    XYY    -130.4258
       YYY    -264.0160    XXZ      26.2725    XYZ       3.8956
       YYZ      22.9352    XZZ    -135.2776    YZZ     -89.0129
       ZZZ      46.4093
    Hexadecapole Moments (Debye-Ang^3)
      XXXX   -2992.3621   XXXY    -850.0552   XXYY    -746.0050
      XYYY    -861.1048   YYYY   -1516.3838   XXXZ     245.9887
      XXYZ      63.4043   XYYZ      85.1118   YYYZ     140.3097
[...]

 Mode:                40                     41                     42
 Frequency:      1417.38                1507.04                1508.51
 Force Cnst:      1.6898                 1.4525                 1.4674
 Red. Mass:       1.4276                 1.0855                 1.0945
 IR Active:          YES                    YES                    YES
 IR Intens:        4.564                  0.695                  5.417
 Raman Active:       YES                    YES                    YES
               X      Y      Z        X      Y      Z        X      Y      Z
 C          0.037  0.091  0.029   -0.032  0.008 -0.025    0.009 -0.019  0.007
 C         -0.078 -0.088 -0.002   -0.005  0.012  0.001    0.004  0.010  0.006
 C          0.097  0.020 -0.002    0.006  0.026  0.028   -0.015  0.020  0.021
 C         -0.007  0.033  0.003    0.035 -0.010  0.022   -0.004  0.010 -0.007
 C         -0.006 -0.004  0.003    0.004 -0.014  0.001    0.044  0.042 -0.043
 C          0.037 -0.016 -0.009   -0.006 -0.028 -0.027    0.005 -0.006 -0.012
 H         -0.375 -0.063 -0.026   -0.015 -0.071 -0.322    0.012 -0.044 -0.245
 H          0.382  0.532  0.062    0.023 -0.054 -0.011   -0.012 -0.030  0.001
 H         -0.106 -0.279 -0.007    0.311 -0.107 -0.073   -0.105  0.098  0.032
 H         -0.162 -0.300 -0.069    0.140 -0.072  0.324   -0.045  0.040 -0.127
 H          0.001 -0.028 -0.009   -0.346  0.109  0.090    0.078 -0.071 -0.030
 H         -0.104 -0.176 -0.023   -0.147  0.088 -0.334    0.054 -0.008  0.095
 H         -0.024 -0.020  0.055    0.010  0.017 -0.053   -0.101 -0.202  0.579
 H         -0.037 -0.050  0.003    0.012  0.078  0.015   -0.492 -0.359 -0.075
 H         -0.080  0.027  0.004   -0.010  0.351  0.009   -0.050  0.122  0.004
 H         -0.206 -0.047  0.022    0.012  0.065  0.341    0.026  0.033  0.127
 H         -0.239 -0.089  0.013    0.011 -0.318 -0.006    0.081 -0.234 -0.013
 N         -0.015 -0.004 -0.020   -0.007 -0.003  0.001    0.013  0.003 -0.002
 H          0.043  0.026 -0.033    0.037  0.012 -0.000   -0.063 -0.024  0.004
 C          0.012  0.010  0.005    0.005  0.000 -0.002   -0.008 -0.003  0.001
 H          0.022  0.013  0.010    0.003  0.003  0.001   -0.007 -0.007 -0.004
 O         -0.001 -0.004 -0.004   -0.001  0.000  0.001    0.001  0.001  0.000
 TransDip  -0.054 -0.034  0.025    0.016  0.021 -0.005   -0.055 -0.022  0.046

 Mode:                43                     44                     45
 Frequency:      1511.71                1517.58                1520.46
 Force Cnst:      1.5162                 1.4692                 2.1414
 Red. Mass:       1.1261                 1.0828                 1.5721
 IR Active:          YES                    YES                    YES
 IR Intens:       12.685                 13.511                138.050
 Raman Active:       YES                    YES                    YES
               X      Y      Z        X      Y      Z        X      Y      Z
 C          0.032 -0.012  0.018   -0.030  0.014 -0.020   -0.030  0.018 -0.009
 C          0.017 -0.002 -0.007   -0.003 -0.005 -0.004    0.066 -0.019 -0.028
 C          0.003 -0.034 -0.027    0.003 -0.022 -0.022    0.005  0.014  0.005
 C          0.034 -0.016  0.014   -0.039  0.021 -0.020   -0.006 -0.011 -0.001
 C          0.003  0.009 -0.004   -0.001 -0.001 -0.006    0.020  0.011 -0.010
 C          0.004 -0.035 -0.026    0.006 -0.031 -0.028   -0.005  0.025  0.024
 H          0.016  0.069  0.367   -0.004  0.055  0.270   -0.047  0.005  0.009
 H         -0.036 -0.018 -0.008   -0.016 -0.010 -0.009   -0.142 -0.004 -0.024
 H         -0.301  0.113  0.065    0.291 -0.121 -0.072    0.184 -0.131 -0.053
 H         -0.123  0.073 -0.313    0.122 -0.075  0.300    0.091  0.033  0.194
 H         -0.284  0.117  0.075    0.373 -0.156 -0.104    0.014  0.039  0.003
 H         -0.112  0.061 -0.279    0.150 -0.103  0.364    0.011  0.037 -0.002
 H          0.001 -0.040  0.065   -0.018 -0.016  0.040   -0.043 -0.025  0.169
 H         -0.054 -0.051 -0.010   -0.032 -0.022 -0.009   -0.148 -0.106 -0.020
 H         -0.048  0.345  0.014   -0.058  0.376  0.013    0.059 -0.254 -0.007
 H          0.018  0.051  0.329   -0.000  0.064  0.363   -0.025 -0.043 -0.257
 H         -0.060  0.367  0.016   -0.039  0.271  0.007   -0.055 -0.015  0.003
 N         -0.044 -0.014  0.008   -0.005 -0.000  0.003   -0.158 -0.046  0.027
 H          0.199  0.072 -0.008    0.035  0.013  0.001    0.734  0.265 -0.026
 C          0.023  0.009 -0.004    0.004 -0.000 -0.002    0.082  0.028 -0.018
 H          0.022  0.022  0.013    0.002  0.003  0.001    0.076  0.074  0.046
 O         -0.002 -0.003 -0.002   -0.001  0.000  0.001   -0.010 -0.007 -0.002
 TransDip   0.080  0.081 -0.012    0.072  0.001  0.093    0.361  0.039 -0.101

 Mode:                46                     47                     48
 Frequency:      1531.23                1761.18                2185.68
 Force Cnst:      1.5952                15.8571                 6.8451
 Red. Mass:       1.1547                 8.6769                 2.4320
 IR Active:          YES                    YES                    YES
 IR Intens:       26.876                374.693                116.524
 Raman Active:       YES                    YES                    YES
               X      Y      Z        X      Y      Z        X      Y      Z
 C         -0.028  0.016 -0.018   -0.009  0.001 -0.005    0.000 -0.001  0.000
 C         -0.034 -0.004  0.006    0.014  0.022  0.014    0.002  0.002  0.000
 C          0.006 -0.038 -0.028   -0.009 -0.009 -0.010   -0.000 -0.000  0.000
 C          0.033 -0.014  0.012   -0.000  0.005  0.003    0.000  0.000  0.000
 C          0.025  0.023 -0.016   -0.001  0.001 -0.000   -0.000 -0.000 -0.000
 C         -0.007  0.027  0.017    0.005 -0.004 -0.001   -0.000  0.000  0.000
 H          0.029  0.062  0.344    0.022 -0.002 -0.001    0.001 -0.000 -0.000
 H          0.075  0.033  0.008   -0.100 -0.058  0.027    0.008 -0.001  0.001
 H          0.289 -0.120 -0.068    0.034  0.013 -0.006   -0.002  0.001 -0.000
 H          0.116 -0.090  0.308   -0.010 -0.045  0.035    0.003  0.005 -0.003
 H         -0.262  0.104  0.070    0.003 -0.002  0.002   -0.000 -0.001  0.000
 H         -0.101  0.055 -0.259   -0.013 -0.021 -0.008    0.000 -0.000 -0.000
 H         -0.037 -0.093  0.273    0.005 -0.007  0.002   -0.000  0.000  0.000
 H         -0.234 -0.172 -0.036    0.000 -0.001 -0.001    0.000  0.000 -0.000
 H          0.044 -0.240 -0.010   -0.012  0.001  0.002    0.000  0.000  0.000
 H          0.000 -0.030 -0.234   -0.022 -0.007 -0.004    0.000  0.001 -0.000
 H         -0.045  0.350  0.011    0.027 -0.004 -0.015   -0.000  0.000  0.001
 N          0.053  0.017 -0.010    0.049 -0.038 -0.063    0.012  0.007  0.002
 H         -0.236 -0.082  0.005    0.328  0.085 -0.108   -0.073 -0.033  0.001
 C         -0.025 -0.010  0.005   -0.300  0.292  0.503   -0.109 -0.138 -0.101
 H         -0.024 -0.024 -0.015    0.402  0.266  0.093    0.615  0.640  0.405
 O          0.002  0.003  0.002    0.115 -0.228 -0.330   -0.003  0.018  0.023
 TransDip  -0.146 -0.048  0.063   -0.442  0.122  0.418   -0.176 -0.238 -0.179

 Mode:                49                     50                     51
 Frequency:      2987.65                2999.57                3008.87
 Force Cnst:      5.6188                 5.6746                 5.7166
 Red. Mass:       1.0684                 1.0705                 1.0717
 IR Active:          YES                    YES                    YES
 IR Intens:       29.187                 31.721                 43.340
 Raman Active:       YES                    YES                    YES
               X      Y      Z        X      Y      Z        X      Y      Z
 C          0.003 -0.001  0.008    0.005 -0.004  0.015   -0.022  0.014 -0.066
 C         -0.001 -0.001  0.007   -0.000  0.001 -0.002    0.000 -0.003  0.014
 C         -0.003 -0.015 -0.071   -0.001 -0.001 -0.006   -0.000 -0.001 -0.009
 C         -0.003  0.001  0.007   -0.005  0.000  0.012   -0.003  0.001  0.003
 C         -0.002 -0.003  0.009    0.012  0.023 -0.067    0.002  0.004 -0.013
 C         -0.000  0.000 -0.003    0.000 -0.005  0.008    0.002 -0.006  0.015
 H         -0.038  0.243 -0.079   -0.002  0.022 -0.006   -0.003  0.014 -0.004
 H         -0.004  0.014 -0.099    0.001 -0.004  0.030   -0.009  0.026 -0.186
 H         -0.013  0.011 -0.107   -0.022  0.028 -0.204    0.109 -0.117  0.903
 H         -0.020  0.005  0.015   -0.034  0.013  0.026    0.149 -0.052 -0.103
 H         -0.012  0.012 -0.068   -0.019  0.018 -0.110   -0.003  0.003 -0.015
 H          0.047 -0.023 -0.028    0.073 -0.024 -0.040    0.035 -0.013 -0.021
 H          0.023  0.013  0.014   -0.178 -0.115 -0.103   -0.030 -0.018 -0.015
 H         -0.004  0.016 -0.116    0.039 -0.151  0.911    0.005 -0.028  0.171
 H          0.002 -0.002  0.033   -0.007  0.005 -0.094   -0.012  0.011 -0.175
 H          0.000 -0.005  0.000   -0.003  0.049 -0.010   -0.012  0.061 -0.011
 H          0.078 -0.073  0.933    0.009 -0.005  0.083    0.008 -0.007  0.112
 N          0.000 -0.000  0.000    0.000 -0.000 -0.000    0.000  0.000  0.000
 H          0.005  0.003 -0.000   -0.000  0.000 -0.000    0.002  0.002 -0.000
 C          0.000  0.000  0.000   -0.000 -0.000  0.000   -0.000  0.000  0.000
 H          0.000  0.000 -0.000    0.000  0.000 -0.000    0.001  0.000  0.000
 O         -0.000 -0.000 -0.000    0.000  0.000 -0.000    0.000 -0.000 -0.000
 TransDip  -0.016 -0.095 -0.144    0.076  0.070 -0.148   -0.053  0.050 -0.198

 Mode:                52                     53                     54
 Frequency:      3030.97                3032.49                3045.54
 Force Cnst:      5.7518                 5.7603                 5.9185
 Red. Mass:       1.0626                 1.0632                 1.0830
 IR Active:          YES                    YES                    YES
 IR Intens:       21.133                 21.276                 25.752
 Raman Active:       YES                    YES                    YES
               X      Y      Z        X      Y      Z        X      Y      Z
 C          0.001 -0.000  0.002   -0.006  0.003 -0.002   -0.009  0.005 -0.009
 C          0.000 -0.000 -0.001    0.000 -0.001  0.012   -0.003  0.009 -0.066
 C          0.004 -0.021  0.009   -0.000  0.001  0.002    0.006 -0.041  0.013
 C         -0.049  0.024 -0.035   -0.004  0.002 -0.001    0.006 -0.003  0.010
 C          0.010  0.006  0.006    0.014  0.010  0.005   -0.001 -0.000  0.000
 C          0.000  0.003  0.007    0.002 -0.036 -0.057    0.001 -0.010 -0.003
 H         -0.042  0.252 -0.062    0.001 -0.010  0.003   -0.072  0.498 -0.121
 H          0.000 -0.002  0.019   -0.007  0.018 -0.143    0.039 -0.109  0.795
 H         -0.003  0.003 -0.024    0.006 -0.006  0.062    0.016 -0.021  0.145
 H         -0.006  0.002  0.004    0.060 -0.025 -0.037    0.085 -0.030 -0.050
 H          0.097 -0.105  0.714    0.005 -0.007  0.038   -0.019  0.022 -0.140
 H          0.484 -0.184 -0.298    0.049 -0.020 -0.029   -0.046  0.017  0.030
 H         -0.125 -0.079 -0.058   -0.172 -0.118 -0.085    0.012  0.006  0.005
 H          0.003  0.005 -0.019    0.004 -0.000  0.025   -0.001  0.002 -0.008
 H         -0.008  0.008 -0.090    0.060 -0.070  0.800    0.007 -0.006  0.061
 H          0.005 -0.040  0.011   -0.076  0.487 -0.124   -0.020  0.132 -0.030
 H         -0.002 -0.002 -0.046   -0.001  0.002 -0.021   -0.007 -0.005 -0.036
 N         -0.000  0.000  0.000    0.000  0.000  0.000   -0.001 -0.000  0.000
 H          0.001 -0.000  0.001   -0.000 -0.000  0.001    0.003 -0.001 -0.005
 C          0.000 -0.000 -0.000   -0.000  0.000  0.000    0.001 -0.000 -0.001
 H         -0.000 -0.000 -0.000    0.000 -0.000  0.000   -0.001  0.000 -0.000
 O         -0.000  0.000  0.000   -0.000 -0.000 -0.000   -0.000  0.000  0.000
 TransDip  -0.136  0.050 -0.026    0.024 -0.086 -0.118   -0.029 -0.135 -0.085

 Mode:                55                     56                     57
 Frequency:      3059.33                3066.09                3069.93
 Force Cnst:      6.0226                 6.0575                 6.1026
 Red. Mass:       1.0921                 1.0936                 1.0990
 IR Active:          YES                    YES                    YES
 IR Intens:       49.660                 58.661                 38.028
 Raman Active:       YES                    YES                    YES
               X      Y      Z        X      Y      Z        X      Y      Z
 C          0.005 -0.002  0.002   -0.000  0.001  0.001    0.001 -0.001  0.006
 C          0.001 -0.007  0.041    0.001 -0.001  0.005   -0.000  0.002 -0.007
 C          0.011 -0.061  0.032    0.001 -0.003  0.008   -0.002  0.013 -0.012
 C          0.023 -0.009 -0.015   -0.035  0.011  0.044    0.017 -0.003 -0.049
 C         -0.009 -0.005 -0.011   -0.049 -0.031 -0.031   -0.029 -0.018 -0.023
 C         -0.001  0.003 -0.001   -0.000 -0.002 -0.012    0.009 -0.050  0.029
 H         -0.108  0.718 -0.171   -0.006  0.033 -0.007    0.021 -0.149  0.035
 H         -0.022  0.067 -0.483   -0.002  0.008 -0.066    0.002 -0.010  0.079
 H         -0.007  0.011 -0.059    0.000  0.001 -0.002   -0.008  0.007 -0.063
 H         -0.054  0.017  0.030    0.009 -0.005 -0.005    0.003 -0.002 -0.002
 H          0.006 -0.008  0.024   -0.049  0.043 -0.270    0.071 -0.068  0.430
 H         -0.276  0.105  0.159    0.456 -0.177 -0.261   -0.277  0.106  0.155
 H          0.112  0.073  0.051    0.580  0.387  0.271    0.350  0.235  0.163
 H          0.001 -0.013  0.073   -0.005 -0.023  0.108    0.001 -0.025  0.110
 H         -0.001 -0.001  0.009    0.010 -0.011  0.147   -0.017  0.009 -0.226
 H          0.006 -0.035  0.007   -0.006  0.026 -0.007   -0.091  0.589 -0.126
 H         -0.013  0.005 -0.222   -0.007  0.005 -0.085    0.010 -0.004  0.107
 N          0.001  0.001 -0.000   -0.000  0.000 -0.000   -0.000 -0.000  0.000
 H          0.001 -0.002  0.005   -0.000 -0.000  0.001    0.000  0.000 -0.001
 C         -0.001  0.000  0.000    0.000  0.000 -0.000    0.000 -0.000 -0.000
 H          0.001 -0.000  0.000   -0.000 -0.000 -0.000   -0.000 -0.000 -0.000
 O          0.000 -0.000 -0.000   -0.000 -0.000  0.000   -0.000  0.000  0.000
 TransDip   0.104 -0.189  0.066   -0.234 -0.066  0.032   -0.020 -0.162 -0.111

 Mode:                58                     59                     60
 Frequency:      3075.15                3109.18                3597.10
 Force Cnst:      6.1446                 6.2241                 8.2176
 Red. Mass:       1.1028                 1.0928                 1.0779
 IR Active:          YES                    YES                    YES
 IR Intens:       91.903                 13.121                 12.543
 Raman Active:       YES                    YES                    YES
               X      Y      Z        X      Y      Z        X      Y      Z
 C          0.007 -0.004  0.007   -0.065  0.022  0.053    0.000  0.000 -0.000
 C          0.001 -0.002  0.013   -0.000 -0.001  0.008    0.001  0.001  0.000
 C          0.002 -0.009  0.011    0.001 -0.001  0.001    0.000  0.000  0.000
 C         -0.015  0.003  0.043    0.000 -0.000  0.001   -0.000  0.000  0.000
 C          0.019  0.009  0.029    0.001  0.000  0.001   -0.000  0.000 -0.000
 C          0.010 -0.049  0.048    0.000  0.002  0.006    0.000 -0.000  0.000
 H         -0.015  0.106 -0.025   -0.002  0.009 -0.002   -0.001  0.001  0.001
 H         -0.006  0.023 -0.154   -0.003  0.013 -0.081    0.003 -0.001  0.006
 H         -0.017  0.015 -0.120   -0.035  0.030 -0.199   -0.000 -0.001  0.001
 H         -0.062  0.022  0.035    0.810 -0.291 -0.444    0.000 -0.000 -0.000
 H         -0.062  0.062 -0.374   -0.002  0.002 -0.012    0.000  0.000 -0.000
 H          0.242 -0.094 -0.136   -0.002  0.001  0.001   -0.000 -0.000 -0.000
 H         -0.223 -0.150 -0.103   -0.008 -0.005 -0.004   -0.000 -0.000  0.000
 H         -0.004  0.043 -0.237    0.001  0.002 -0.011   -0.000 -0.000 -0.000
 H         -0.030  0.023 -0.453   -0.007  0.004 -0.074    0.000  0.000 -0.000
 H         -0.087  0.566 -0.120    0.003 -0.025  0.005   -0.000  0.000 -0.000
 H         -0.010  0.004 -0.110    0.000 -0.000 -0.011   -0.002  0.001  0.000
 N          0.000  0.000 -0.000    0.000  0.000 -0.000    0.013 -0.047 -0.055
 H         -0.001 -0.001  0.001   -0.000 -0.001  0.001   -0.175  0.642  0.743
 C         -0.000  0.000  0.000   -0.000  0.000  0.001   -0.002 -0.001  0.000
 H          0.000 -0.000  0.000   -0.000 -0.000 -0.000    0.003  0.002  0.000
 O         -0.000 -0.000 -0.000   -0.000 -0.000 -0.000   -0.000  0.001  0.001
 TransDip   0.044 -0.119  0.279   -0.069  0.037  0.085   -0.073  0.046  0.074

 STANDARD THERMODYNAMIC QUANTITIES AT   298.18 K  AND     1.00 ATM

   This Molecule has  0 Imaginary Frequencies
   Zero point vibrational energy:      121.891 kcal/mol

   Atom    1 Element C  Has Mass   12.00000
   Atom    2 Element C  Has Mass   12.00000
   Atom    3 Element C  Has Mass   12.00000
   Atom    4 Element C  Has Mass   12.00000
   Atom    5 Element C  Has Mass   12.00000
   Atom    6 Element C  Has Mass   12.00000
   Atom    7 Element H  Has Mass    1.00783
   Atom    8 Element H  Has Mass    1.00783
   Atom    9 Element H  Has Mass    1.00783
   Atom   10 Element H  Has Mass    1.00783
   Atom   11 Element H  Has Mass    1.00783
   Atom   12 Element H  Has Mass    1.00783
   Atom   13 Element H  Has Mass    1.00783
   Atom   14 Element H  Has Mass    1.00783
   Atom   15 Element H  Has Mass    1.00783
   Atom   16 Element H  Has Mass    1.00783
   Atom   17 Element H  Has Mass    1.00783
   Atom   18 Element N  Has Mass   14.00307
   Atom   19 Element H  Has Mass    1.00783
   Atom   20 Element C  Has Mass   12.00000
   Atom   21 Element H  Has Mass    2.01410
   Atom   22 Element O  Has Mass   15.99491
   Molecular Mass:   128.106042 amu
   Principal axes and moments of inertia in amu*Bohr^2:
                             1           2           3
    Eigenvalues --      537.06331  1897.60576  2241.46102
          X               0.90394    -0.35275     0.24178
          Y               0.40636     0.88465    -0.22860
          Z              -0.13325     0.30489     0.94302
   Rotational Symmetry Number is   1
   The Molecule is an Asymmetric Top
   Translational Enthalpy:        0.889 kcal/mol
   Rotational Enthalpy:           0.889 kcal/mol
   Vibrational Enthalpy:        125.798 kcal/mol
   gas constant (RT):             0.593 kcal/mol
   Translational Entropy:        40.457  cal/mol.K
   Rotational Entropy:           29.214  cal/mol.K
   Vibrational Entropy:          23.731  cal/mol.K

   Total Enthalpy:              128.168 kcal/mol
   Total Entropy:                93.402  cal/mol.K
Archival summary:
1\1\node023\FREQ\ProcedureUnspecified\6-31+G*\11713\ymao90\SunMar704:34:382021SunMar704:34:382021\0\\#,FREQ,ProcedureUnspecified,6-31+G*,\\0,1\N\H,1,1.01253\C,1,1.36169,2,117.287\H,3,1.10868,1,112.462,2,-4.51039,0\O,3,1.22116,1,125.237,2,175.885,0\C,1,1.46879,2,118.357,3,171.396,0\H,6,1.09836,1,107.017,2,-126.721,0\C,6,1.5359,1,109.256,2,-8.75934,0\H,8,1.09868,6,109.858,1,-58.2932,0\H,8,1.10332,6,108.718,1,58.6406,0\C,8,1.53768,6,111.646,1,179.117,0\H,11,1.09804,8,109.616,6,-177.052,0\H,11,1.09909,8,109.103,6,66.7983,0\C,11,1.53725,8,111.783,6,-54.1702,0\H,14,1.0976,11,109.946,8,176.601,0\H,14,1.10211,11,109.26,8,-66.6848,0\C,14,1.53655,11,111.269,8,53.9878,0\H,17,1.09747,14,110.447,11,-177.426,0\H,17,1.09956,14,109.346,11,66.0073,0\C,17,1.53726,14,111.522,11,-54.9934,0\H,20,1.09456,17,110.756,14,177.347,0\H,20,1.1015,17,109.841,14,-64.1853,0\\\@

 Total job time:  5056.43s(wall), 80174.35s(cpu) 
 Sun Mar  7 04:34:38 2021

        *************************************************************
        *                                                           *
        *  Thank you very much for using Q-Chem.  Have a nice day.  *
        *                                                           *
        *************************************************************


