                  Welcome to Q-Chem
     A Quantum Leap Into The Future Of Chemistry


 Q-Chem 5.2 (devel), Q-Chem, Inc., Pleasanton, CA (2019)

 Yihan Shao,  Zhengting Gan,  E. Epifanovsky,  A. T. B. Gilbert,  M. Wormit,  
 J. Kussmann,  A. W. Lange,  A. Behn,  Jia Deng,  Xintian Feng,  D. Ghosh,  
 M. Goldey,  P. R. Horn,  L. D. Jacobson,  I. Kaliman,  T. Kus,  A. Landau,  
 Jie Liu,  E. I. Proynov,  R. M. Richard,  R. P. Steele,  E. J. Sundstrom,  
 H. L. Woodcock III,  P. M. Zimmerman,  D. Zuev,  B. Alam,  B. Albrecht,  
 E. Alguire,  S. A. Baeppler,  D. Barton,  Z. Benda,  Y. A. Bernard,  
 E. J. Berquist,  K. B. Bravaya,  H. Burton,  K. Carter-Fenk,  D. Casanova,  
 Chun-Min Chang,  Yunqing Chen,  A. Chien,  K. D. Closser,  M. P. Coons,  
 S. Coriani,  S. Dasgupta,  A. L. Dempwolff,  M. Diedenhofen,  Hainam Do,  
 R. G. Edgar,  Po-Tung Fang,  S. Faraji,  S. Fatehi,  Qingguo Feng,  
 J. Fosso-Tande,  J. Gayvert,  Qinghui Ge,  A. Ghysels,  G. Gidofalvi,  
 J. Gomes,  J. Gonthier,  A. Gunina,  D. Hait,  M. W. D. Hanson-Heine,  
 P. H. P. Harbach,  A. W. Hauser,  M. F. Herbst,  J. E. Herr,  
 E. G. Hohenstein,  Z. C. Holden,  Kerwin Hui,  B. C. Huynh,  T.-C. Jagau,  
 Hyunjun Ji,  B. Kaduk,  K. Khistyaev,  Jaehoon Kim,  P. Klunzinger,  K. Koh,  
 D. Kosenkov,  L. Koulias,  T. Kowalczyk,  C. M. Krauter,  A. Kunitsa,  
 Ka Un Lao,  A. Laurent,  K. V. Lawler,  Joonho Lee,  D. Lefrancois,  
 S. Lehtola,  D. S. Levine,  Yi-Pei Li,  You-Sheng Lin,  Fenglai Liu,  
 Kuan-Yu Liu,  E. Livshits,  M. Loipersberger,  A. Luenser,  P. Manohar,  
 E. Mansoor,  S. F. Manzer,  Shan-Ping Mao,  Yuezhi Mao,  N. Mardirossian,  
 A. V. Marenich,  T. Markovich,  L. A. Martinez-Martinez,  S. A. Maurer,  
 N. J. Mayhall,  S. C. McKenzie,  J.-M. Mewes,  P. Morgante,  A. F. Morrison,  
 J. W. Mullinax,  K. Nanda,  T. S. Nguyen-Beck,  R. Olivares-Amaya,  
 J. A. Parkhill,  S. K. Paul,  F. Pavosevic,  Zheng Pei,  T. M. Perrine,  
 F. Plasser,  P. Pokhilko,  S. Prager,  A. Prociuk,  E. Ramos,  B. Rana,  
 D. R. Rehn,  F. Rob,  M. Scheurer,  M. Schneider,  N. Sergueev,  
 S. M. Sharada,  S. Sharma,  D. W. Small,  T. Stauch,  C. J. Stein,  
 T. Stein,  Yu-Chuan Su,  S. P. Veccham,  Zhen Tao,  A. J. W. Thom,  
 A. Tkatchenko,  T. Tsuchimochi,  N. M. Tubman,  L. Vogt,  M. L. Vidal,  
 O. Vydrov,  M. A. Watson,  J. Wenzel,  M. de Wergifosse,  T. A. Wesolowski,  
 A. White,  J. Witte,  A. Yamada,  Jun Yang,  K. Yao,  S. Yeganeh,  
 S. R. Yost,  Zhi-Qiang You,  A. Zech,  Igor Ying Zhang,  Xing Zhang,  
 Yan Zhao,  Ying Zhu,  B. R. Brooks,  G. K. L. Chan,  C. J. Cramer,  
 M. S. Gordon,  W. J. Hehre,  A. Klamt,  M. W. Schmidt,  C. D. Sherrill,  
 D. G. Truhlar,  A. Aspuru-Guzik,  R. Baer,  A. T. Bell,  N. A. Besley,  
 Jeng-Da Chai,  A. E. DePrince, III,  R. A. DiStasio Jr.,  A. Dreuw,  
 B. D. Dunietz,  T. R. Furlani,  Chao-Ping Hsu,  Yousung Jung,  Jing Kong,  
 D. S. Lambrecht,  WanZhen Liang,  C. Ochsenfeld,  V. A. Rassolov,  
 L. V. Slipchenko,  J. E. Subotnik,  T. Van Voorhis,  J. M. Herbert,  
 A. I. Krylov,  P. M. W. Gill,  M. Head-Gordon

 Contributors to earlier versions of Q-Chem not listed above: 
 R. D. Adamson,  B. Austin,  J. Baker,  G. J. O. Beran,  K. Brandhorst,  
 S. T. Brown,  E. F. C. Byrd,  A. K. Chakraborty,  C.-L. Cheng,  
 Siu Hung Chien,  D. M. Chipman,  D. L. Crittenden,  H. Dachsel,  
 R. J. Doerksen,  A. D. Dutoi,  L. Fusti-Molnar,  W. A. Goddard III,  
 A. Golubeva-Zadorozhnaya,  S. R. Gwaltney,  G. Hawkins,  A. Heyden,  
 S. Hirata,  G. Kedziora,  F. J. Keil,  C. Kelley,  Jihan Kim,  R. A. King,  
 R. Z. Khaliullin,  P. P. Korambath,  W. Kurlancheek,  A. M. Lee,  M. S. Lee,  
 S. V. Levchenko,  Ching Yeh Lin,  D. Liotard,  R. C. Lochan,  I. Lotan,  
 P. E. Maslen,  N. Nair,  D. P. O'Neill,  D. Neuhauser,  E. Neuscamman,  
 C. M. Oana,  R. Olson,  B. Peters,  R. Peverati,  P. A. Pieniazek,  
 Y. M. Rhee,  J. Ritchie,  M. A. Rohrdanz,  E. Rosta,  N. J. Russ,  
 H. F. Schaefer III,  N. E. Schultz,  N. Shenvi,  A. C. Simmonett,  A. Sodt,  
 D. Stuck,  K. S. Thanthiriwatte,  V. Vanovschi,  Tao Wang,  A. Warshel,  
 C. F. Williams,  Q. Wu,  X. Xu,  W. Zhang

 Please cite Q-Chem as follows:
 Y. Shao et al., Mol. Phys. 113, 184-215 (2015)
 DOI: 10.1080/00268976.2014.952696

 Q-Chem 5.2.2 for Intel X86 EM64T Linux

 Parts of Q-Chem use Armadillo 9.800.1 (Horizon Scraper).
 http://arma.sourceforge.net/

 Q-Chem begins on Sun Mar  7 02:56:11 2021  

Host: node024
0

     Scratch files written to /home/ymao90/scratch/CCX_CO_-14020210307025610//

Checking the input file for inconsistencies... 	...done.

--------------------------------------------------------------
User input:
--------------------------------------------------------------
$molecule
0 1
C      1.9839655798    2.8343873569   -0.6530035790
C      2.0889665948    1.3399289492   -0.2973932582
C      3.4017166944    0.7321441035   -0.8222227424
C      4.6254659785    1.5200300416   -0.3255741318
C      4.5210827926    3.0122209378   -0.6783481608
C      3.2094896156    3.6188525050   -0.1554554411
H      3.4653882129   -0.3186255299   -0.5134835234
H      2.0538505535    1.2303619181    0.7916336585
H      1.9041773336    2.9373830819   -1.7471760654
H      1.0604862058    3.2447823031   -0.2264495779
H      4.7056113531    1.4098609561    0.7662015896
H      5.5416784391    1.0893334561   -0.7496610014
H      5.3807748665    3.5587419877   -0.2692766409
H      4.5659637339    3.1311627355   -1.7719372538
H      3.2192612515    3.6121018079    0.9447339030
H      3.1260878858    4.6703627905   -0.4590864625
H      3.3863457527    0.7409636912   -1.9242196110
N      0.9315723625    0.5939302253   -0.7942938700
H      0.8024957372    0.5217251348   -1.7968919912
C      0.0000000000    0.0000000000    0.0000000000
H     -0.7899738588   -0.5065817117   -0.5873052394
O     -0.0000000000    0.0000000000    1.2238135054
$end

$rem
JOBTYPE  OPT
METHOD  B3LYP
BASIS  6-31+G(D)
SYMMETRY  FALSE
SYM_IGNORE  TRUE
MEM_TOTAL  8000
MEM_STATIC  2000
MAX_SUB_FILE_NUM  16000
BASIS_LIN_DEP_THRESH  6
THRESH  14
SCF_CONVERGENCE  9
GEN_SCFMAN  TRUE
SCF_GUESS  SAD
FD_MAT_VEC_PROD  FALSE
XC_GRID  000099000590
NL_GRID  1
MAX_SCF_CYCLES  200
GEOM_OPT_TOL_GRADIENT  100
GEOM_OPT_TOL_DISPLACEMENT  100
GEOM_OPT_TOL_ENERGY  10
$end

$multipole_field
Z   0.027227
$end


--------------------------------------------------------------
 ----------------------------------------------------------------
             Standard Nuclear Orientation (Angstroms)
    I     Atom           X                Y                Z
 ----------------------------------------------------------------
    1      C       1.9839655798     2.8343873569    -0.6530035790
    2      C       2.0889665948     1.3399289492    -0.2973932582
    3      C       3.4017166944     0.7321441035    -0.8222227424
    4      C       4.6254659785     1.5200300416    -0.3255741318
    5      C       4.5210827926     3.0122209378    -0.6783481608
    6      C       3.2094896156     3.6188525050    -0.1554554411
    7      H       3.4653882129    -0.3186255299    -0.5134835234
    8      H       2.0538505535     1.2303619181     0.7916336585
    9      H       1.9041773336     2.9373830819    -1.7471760654
   10      H       1.0604862058     3.2447823031    -0.2264495779
   11      H       4.7056113531     1.4098609561     0.7662015896
   12      H       5.5416784391     1.0893334561    -0.7496610014
   13      H       5.3807748665     3.5587419877    -0.2692766409
   14      H       4.5659637339     3.1311627355    -1.7719372538
   15      H       3.2192612515     3.6121018079     0.9447339030
   16      H       3.1260878858     4.6703627905    -0.4590864625
   17      H       3.3863457527     0.7409636912    -1.9242196110
   18      N       0.9315723625     0.5939302253    -0.7942938700
   19      H       0.8024957372     0.5217251348    -1.7968919912
   20      C       0.0000000000     0.0000000000     0.0000000000
   21      H      -0.7899738588    -0.5065817117    -0.5873052394
   22      O       0.0000000000     0.0000000000     1.2238135054
 ----------------------------------------------------------------
 Nuclear Repulsion Energy =         466.63298041 hartrees
 There are       35 alpha and       35 beta electrons
 Requested basis set is 6-31+G(d)
 There are 71 shells and 197 basis functions

 Total QAlloc Memory Limit   8000 MB
 Mega-Array Size      1956 MB
 MEM_STATIC part      2000 MB
 Applying Cartesian multipole field
    Component          Value
    ---------          -----
     (0,0,1)        2.72270E-02
 Nucleus-field energy     =    -1.0755668983 hartrees
 A cutoff of  1.0D-14 yielded   2413 shell pairs
 There are     18998 function pairs
 Smallest overlap matrix eigenvalue = 2.48E-05
 Guess from superposition of atomic densities
 Warning:  Energy on first SCF cycle will be non-variational
 SAD guess density has 70.000000 electrons

 -----------------------------------------------------------------------
  General SCF calculation program by
  Eric Jon Sundstrom, Paul Horn, Yuezhi Mao, Dmitri Zuev, Alec White,
  David Stuck, Shaama M.S., Shane Yost, Joonho Lee, David Small,
  Daniel Levine, Susi Lehtola, Hugh Burton, Evgeny Epifanovsky,
  Bang C. Huynh
 -----------------------------------------------------------------------
 Exchange:     0.2000 Hartree-Fock + 0.0800 Slater + 0.7200 B88
 Correlation:  0.1900 VWN1RPA + 0.8100 LYP
 Using Euler-Maclaurin-Lebedev (99,590) quadrature formula
 using 16 threads for integral computing
 -------------------------------------------------------
 OpenMP Integral computing Module                
 Release: version 2.0, May 2017, Q-Chem Inc. Pleasanton 
 -------------------------------------------------------
 A restricted SCF calculation will be
 performed using DIIS
 SCF converges when DIIS error is below 1.0e-09
 ---------------------------------------
  Cycle       Energy         DIIS error
 ---------------------------------------
    1    -406.2319506851      5.08e-02  
    2    -404.4069408116      7.27e-03  
    3    -403.8479290653      1.38e-02  
    4    -404.6269072019      2.67e-03  
    5    -404.6547941405      8.17e-04  
    6    -404.6574018132      2.95e-04  
    7    -404.6577716997      8.46e-05  
    8    -404.6578009598      1.76e-05  
    9    -404.6578022969      5.39e-06  
   10    -404.6578024153      1.26e-06  
   11    -404.6578024224      3.38e-07  
   12    -404.6578024229      9.40e-08  
   13    -404.6578024230      2.17e-08  
   14    -404.6578024230      3.87e-09  
   15    -404.6578024230      9.70e-10  Convergence criterion met
 ---------------------------------------
 SCF time:   CPU 705.98s  wall 45.00s 
 SCF   energy in the final basis set =     -404.6578024230
 Total energy in the final basis set =     -404.6578024230
 
 --------------------------------------------------------------
 
                    Orbital Energies (a.u.)
 --------------------------------------------------------------
 
 Alpha MOs
 -- Occupied --
-19.1389 -14.3586 -10.2897 -10.2196 -10.1829 -10.1780 -10.1703 -10.1662
-10.1655  -1.0476  -0.9211  -0.8161  -0.7341  -0.7330  -0.6256  -0.6042
 -0.5816  -0.5579  -0.5164  -0.4793  -0.4560  -0.4358  -0.4324  -0.4169
 -0.4143  -0.3884  -0.3716  -0.3699  -0.3359  -0.3348  -0.3144  -0.3039
 -0.3024  -0.2731  -0.2518
 -- Virtual --
 -0.0589  -0.0244  -0.0161   0.0121   0.0151   0.0290   0.0351   0.0512
  0.0703   0.0719   0.0811   0.0851   0.1014   0.1055   0.1192   0.1309
  0.1385   0.1439   0.1490   0.1512   0.1531   0.1702   0.1812   0.1863
  0.1886   0.1942   0.1986   0.2027   0.2079   0.2172   0.2216   0.2264
  0.2349   0.2427   0.2470   0.2535   0.2597   0.2629   0.2666   0.2838
  0.2976   0.3003   0.3027   0.3077   0.3153   0.3181   0.3258   0.3434
  0.3444   0.3594   0.3729   0.3915   0.3977   0.4118   0.4323   0.4334
  0.4543   0.4735   0.4970   0.6226   0.6500   0.6700   0.6735   0.6786
  0.6881   0.7022   0.7353   0.7483   0.7561   0.7637   0.7858   0.7877
  0.8093   0.8179   0.8305   0.8581   0.8774   0.9207   0.9623   0.9792
  0.9932   1.0015   1.0242   1.0296   1.0440   1.0724   1.1012   1.1272
  1.1350   1.1390   1.1434   1.1512   1.1626   1.1885   1.1949   1.2024
  1.2390   1.2434   1.2769   1.3176   1.3500   1.3763   1.4011   1.4270
  1.4899   1.4957   1.4995   1.5734   1.5806   1.6148   1.7037   1.7389
  1.7423   1.7563   1.7774   1.8069   1.8561   1.8734   1.9096   1.9155
  1.9197   1.9429   1.9909   2.0202   2.0266   2.0546   2.0639   2.0957
  2.1012   2.1369   2.2110   2.2305   2.2843   2.3200   2.3218   2.3583
  2.4098   2.4198   2.4281   2.4296   2.4568   2.5689   2.5965   2.6277
  2.6811   2.6928   2.7129   2.7697   2.7853   2.8431   2.8752   3.0061
  3.1870   4.1034   4.1956   4.2333   4.3026   4.3430   4.4214   4.6104
  4.6170   4.6828
 --------------------------------------------------------------
 
          Ground-State Mulliken Net Atomic Charges

     Atom                 Charge (a.u.)
  ----------------------------------------
      1 C                    -0.221165
      2 C                    -0.406163
      3 C                    -0.236360
      4 C                    -0.521587
      5 C                    -0.271065
      6 C                    -0.533386
      7 H                     0.194336
      8 H                     0.169280
      9 H                     0.287262
     10 H                     0.182772
     11 H                     0.115340
     12 H                     0.239247
     13 H                     0.168792
     14 H                     0.293237
     15 H                     0.113181
     16 H                     0.226317
     17 H                     0.289011
     18 N                    -0.409375
     19 H                     0.476326
     20 C                     0.284843
     21 H                     0.196419
     22 O                    -0.637262
  ----------------------------------------
  Sum of atomic charges =     0.000000

 -----------------------------------------------------------------
                    Cartesian Multipole Moments
 -----------------------------------------------------------------
    Charge (ESU x 10^10)
                -0.0000
    Dipole Moment (Debye)
         X       2.0246      Y       1.2732      Z      -9.5851
       Tot       9.8790
    Quadrupole Moments (Debye-Ang)
        XX     -50.7763     XY       3.7808     YY     -54.5751
        XZ     -13.9460     YZ      -9.1798     ZZ     -54.9466
    Octopole Moments (Debye-Ang^2)
       XXX    -390.3055    XXY     -80.5816    XYY    -129.8176
       YYY    -263.5814    XXZ     -37.4731    XYZ     -30.6999
       YYZ     -10.7590    XZZ    -120.9412    YZZ     -80.1086
       ZZZ      17.1742
    Hexadecapole Moments (Debye-Ang^3)
      XXXX   -2971.4460   XXXY    -847.8300   XXYY    -744.8490
      XYYY    -860.2469   YYYY   -1517.9022   XXXZ     -23.9824
      XXYZ     -71.4305   XYYZ     -21.6644   YYYZ      29.0956
      XXZZ    -503.7330   XYZZ    -264.5010   YYZZ    -280.8875
      XZZZ     145.9973   YZZZ      85.4572   ZZZZ    -235.9821
 -----------------------------------------------------------------
 Calculating analytic gradient of the SCF energy
 Gradient of SCF Energy
            1           2           3           4           5           6
    1   0.0003403  -0.0014657   0.0002700   0.0002643   0.0003204   0.0000376
    2   0.0001908  -0.0006708   0.0000684  -0.0005775   0.0003235  -0.0001590
    3   0.0035229   0.0026063   0.0035595   0.0066551   0.0019743   0.0069147
            7           8           9          10          11          12
    1  -0.0000744  -0.0001123  -0.0000020   0.0014129   0.0000618   0.0012044
    2   0.0008987   0.0001715  -0.0010319  -0.0006830   0.0004397  -0.0005073
    3   0.0011449  -0.0031084  -0.0025595   0.0006698  -0.0076368   0.0011736
           13          14          15          16          17          18
    1  -0.0013924  -0.0004623  -0.0000961   0.0000741  -0.0012397   0.0108963
    2  -0.0010009  -0.0000762   0.0008387   0.0006732   0.0008922   0.0064123
    3   0.0007937  -0.0024366  -0.0079605   0.0013780  -0.0024297  -0.0147194
           19          20          21          22
    1   0.0008805  -0.0092464  -0.0025524   0.0008810
    2   0.0007416  -0.0059030  -0.0016161   0.0005751
    3   0.0052132   0.0468269  -0.0015385  -0.0400436
 Max gradient component =       4.683E-02
 RMS gradient           =       8.379E-03
 Gradient time:  CPU 120.01 s  wall 7.65 s
 Geometry Optimization Parameters
   NAtoms,    NIC,     NZ,  NCons,   NDum,   NFix, NCnnct, MaxDiis
       22     172       0       0       0       0       0       0


** GEOMETRY OPTIMIZATION IN DELOCALIZED INTERNAL COORDINATES **
   Searching for a Minimum

   Optimization Cycle:   1

                       Coordinates (Angstroms)
     ATOM                X               Y               Z
      1  C         1.9839655798    2.8343873569   -0.6530035790
      2  C         2.0889665948    1.3399289492   -0.2973932582
      3  C         3.4017166944    0.7321441035   -0.8222227424
      4  C         4.6254659785    1.5200300416   -0.3255741318
      5  C         4.5210827926    3.0122209378   -0.6783481608
      6  C         3.2094896156    3.6188525050   -0.1554554411
      7  H         3.4653882129   -0.3186255299   -0.5134835234
      8  H         2.0538505535    1.2303619181    0.7916336585
      9  H         1.9041773336    2.9373830819   -1.7471760654
     10  H         1.0604862058    3.2447823031   -0.2264495779
     11  H         4.7056113531    1.4098609561    0.7662015896
     12  H         5.5416784391    1.0893334561   -0.7496610014
     13  H         5.3807748665    3.5587419877   -0.2692766409
     14  H         4.5659637339    3.1311627355   -1.7719372538
     15  H         3.2192612515    3.6121018079    0.9447339030
     16  H         3.1260878858    4.6703627905   -0.4590864625
     17  H         3.3863457527    0.7409636912   -1.9242196110
     18  N         0.9315723625    0.5939302253   -0.7942938700
     19  H         0.8024957372    0.5217251348   -1.7968919912
     20  C         0.0000000000    0.0000000000    0.0000000000
     21  H        -0.7899738588   -0.5065817117   -0.5873052394
     22  O         0.0000000000    0.0000000000    1.2238135054
   Point Group: c1    Number of degrees of freedom:    60


   Energy is   -404.657802423


 Attempting to generate delocalized internal coordinates
 Initial Hessian constructed with Jon Baker's OPTIMIZE code

 60 Hessian modes will be used to form the next step
  Hessian Eigenvalues:
     0.005967    0.006024    0.006964    0.007193    0.012605    0.019501
     0.019786    0.020845    0.020845    0.037215    0.038526    0.039417
     0.041724    0.048166    0.048450    0.048891    0.055292    0.055631
     0.055746    0.059934    0.066958    0.081508    0.081536    0.081616
     0.082032    0.082133    0.084029    0.087513    0.120967    0.121178
     0.142989    0.159989    0.160000    0.160554    0.174868    0.210947
     0.220000    0.220003    0.272263    0.272658    0.275535    0.286789
     0.287121    0.287175    0.329119    0.334466    0.334727    0.335769
     0.336541    0.336553    0.339301    0.339441    0.339454    0.340119
     0.340274    0.342312    0.364811    0.454000    0.528079    0.937134

 Minimum search - taking simple RFO step
 Searching for Lamda that Minimizes Along All modes
 Value Taken    Lamda =  -0.00346556
 Step Taken.  Stepsize is  0.234009

                             Maximum     Tolerance    Cnvgd?
         Gradient           0.021560      0.000100      NO
         Displacement       0.084533      0.000100      NO
         Energy change     *********      0.000000      NO


 New Cartesian Coordinates Obtained by Inverse Iteration

 Displacement from previous Coordinates is:  0.453788
 ----------------------------------------------------------------
             Standard Nuclear Orientation (Angstroms)
    I     Atom           X                Y                Z
 ----------------------------------------------------------------
    1      C       1.9830049728     2.8339847560    -0.6961809929
    2      C       2.0910919952     1.3409629717    -0.3313884902
    3      C       3.4021781200     0.7348847531    -0.8665899259
    4      C       4.6152534336     1.5105596105    -0.3256926394
    5      C       4.5244762803     3.0126929437    -0.6430563780
    6      C       3.1944906846     3.6117164499    -0.1546585058
    7      H       3.4608687258    -0.3252464052    -0.5874064049
    8      H       2.0734132978     1.2425245996     0.7637477969
    9      H       1.9345682252     2.9475895156    -1.7873009882
   10      H       1.0445311062     3.2436941344    -0.2980151474
   11      H       4.6700705763     1.3713659684     0.7766126775
   12      H       5.5357419058     1.0904496683    -0.7477937511
   13      H       5.3747446296     3.5513811211    -0.1994322460
   14      H       4.6076244151     3.1568660620    -1.7271272180
   15      H       3.1683322118     3.5900329031     0.9577612346
   16      H       3.1198219906     4.6638289467    -0.4566477547
   17      H       3.4095999742     0.7670582573    -1.9643743924
   18      N       0.9206409053     0.5860560340    -0.7823463952
   19      H       0.7643816433     0.4889451263    -1.7855329168
   20      C       0.0212150035     0.0159714638     0.0418693199
   21      H      -0.7752987563    -0.4990154959    -0.5194392334
   22      O       0.0436557444     0.0367633562     1.2875964577
 ----------------------------------------------------------------
 Nuclear Repulsion Energy =         466.40174836 hartrees
 There are       35 alpha and       35 beta electrons
 Applying Cartesian multipole field
    Component          Value
    ---------          -----
     (0,0,1)        2.72270E-02
 Nucleus-field energy     =    -1.0601487130 hartrees
 Requested basis set is 6-31+G(d)
 There are 71 shells and 197 basis functions
 A cutoff of  1.0D-14 yielded   2412 shell pairs
 There are     19009 function pairs
 Smallest overlap matrix eigenvalue = 2.58E-05
 Guess MOs from SCF MO coefficient file

 -----------------------------------------------------------------------
  General SCF calculation program by
  Eric Jon Sundstrom, Paul Horn, Yuezhi Mao, Dmitri Zuev, Alec White,
  David Stuck, Shaama M.S., Shane Yost, Joonho Lee, David Small,
  Daniel Levine, Susi Lehtola, Hugh Burton, Evgeny Epifanovsky,
  Bang C. Huynh
 -----------------------------------------------------------------------
 Exchange:     0.2000 Hartree-Fock + 0.0800 Slater + 0.7200 B88
 Correlation:  0.1900 VWN1RPA + 0.8100 LYP
 Using Euler-Maclaurin-Lebedev (99,590) quadrature formula
 using 16 threads for integral computing
 -------------------------------------------------------
 OpenMP Integral computing Module                
 Release: version 2.0, May 2017, Q-Chem Inc. Pleasanton 
 -------------------------------------------------------
 A restricted SCF calculation will be
 performed using DIIS
 SCF converges when DIIS error is below 1.0e-09
 ---------------------------------------
  Cycle       Energy         DIIS error
 ---------------------------------------
    1    -404.6566015011      6.22e-04  
    2    -404.6598379393      1.22e-04  
    3    -404.6598318864      1.38e-04  
    4    -404.6599176395      2.51e-05  
    5    -404.6599199856      8.25e-06  
    6    -404.6599202574      1.52e-06  
    7    -404.6599202659      5.86e-07  
    8    -404.6599202674      1.04e-07  
    9    -404.6599202674      6.69e-08  
   10    -404.6599202675      1.88e-08  
   11    -404.6599202675      4.05e-09  
   12    -404.6599202675      1.01e-09  
   13    -404.6599202675      2.17e-10  Convergence criterion met
 ---------------------------------------
 SCF time:   CPU 613.68s  wall 39.00s 
 SCF   energy in the final basis set =     -404.6599202675
 Total energy in the final basis set =     -404.6599202675
 
 --------------------------------------------------------------
 
                    Orbital Energies (a.u.)
 --------------------------------------------------------------
 
 Alpha MOs
 -- Occupied --
-19.1386 -14.3642 -10.2915 -10.2206 -10.1851 -10.1801 -10.1705 -10.1674
-10.1665  -1.0375  -0.9253  -0.8175  -0.7349  -0.7339  -0.6291  -0.6035
 -0.5836  -0.5583  -0.5178  -0.4801  -0.4544  -0.4366  -0.4325  -0.4155
 -0.4128  -0.3888  -0.3712  -0.3685  -0.3364  -0.3353  -0.3150  -0.3058
 -0.3028  -0.2729  -0.2548
 -- Virtual --
 -0.0576  -0.0244  -0.0153   0.0112   0.0131   0.0296   0.0349   0.0505
  0.0694   0.0700   0.0810   0.0851   0.1017   0.1042   0.1193   0.1290
  0.1376   0.1431   0.1482   0.1508   0.1540   0.1693   0.1810   0.1839
  0.1883   0.1930   0.1964   0.2027   0.2072   0.2138   0.2239   0.2268
  0.2338   0.2407   0.2466   0.2528   0.2589   0.2623   0.2687   0.2824
  0.2955   0.2986   0.3011   0.3084   0.3121   0.3173   0.3237   0.3441
  0.3456   0.3571   0.3706   0.3917   0.3980   0.4137   0.4304   0.4331
  0.4494   0.4754   0.4876   0.6221   0.6490   0.6714   0.6738   0.6797
  0.6878   0.7018   0.7342   0.7456   0.7578   0.7624   0.7794   0.7875
  0.8075   0.8174   0.8308   0.8589   0.8777   0.9210   0.9625   0.9771
  0.9919   1.0007   1.0211   1.0287   1.0396   1.0667   1.0992   1.1236
  1.1285   1.1325   1.1425   1.1519   1.1625   1.1894   1.1964   1.2056
  1.2384   1.2446   1.2755   1.3195   1.3525   1.3799   1.3991   1.4317
  1.4813   1.4904   1.5001   1.5717   1.5750   1.6156   1.7105   1.7389
  1.7410   1.7507   1.7784   1.8073   1.8512   1.8682   1.9083   1.9103
  1.9211   1.9433   1.9941   2.0156   2.0261   2.0539   2.0619   2.0877
  2.0942   2.1351   2.2130   2.2266   2.2831   2.3123   2.3210   2.3500
  2.4016   2.4156   2.4235   2.4250   2.4550   2.5676   2.5955   2.6190
  2.6806   2.6889   2.7056   2.7701   2.7859   2.8419   2.8705   2.9853
  3.1817   4.1036   4.1939   4.2290   4.2992   4.3399   4.4168   4.6119
  4.6182   4.6831
 --------------------------------------------------------------
 
          Ground-State Mulliken Net Atomic Charges

     Atom                 Charge (a.u.)
  ----------------------------------------
      1 C                    -0.213651
      2 C                    -0.451157
      3 C                    -0.233941
      4 C                    -0.517786
      5 C                    -0.264147
      6 C                    -0.530131
      7 H                     0.198042
      8 H                     0.174246
      9 H                     0.290434
     10 H                     0.186456
     11 H                     0.114229
     12 H                     0.239021
     13 H                     0.166179
     14 H                     0.293115
     15 H                     0.111838
     16 H                     0.226010
     17 H                     0.292729
     18 N                    -0.382043
     19 H                     0.477536
     20 C                     0.286696
     21 H                     0.194832
     22 O                    -0.658506
  ----------------------------------------
  Sum of atomic charges =     0.000000

 -----------------------------------------------------------------
                    Cartesian Multipole Moments
 -----------------------------------------------------------------
    Charge (ESU x 10^10)
                -0.0000
    Dipole Moment (Debye)
         X       2.0479      Y       1.2594      Z      -9.9439
       Tot      10.2304
    Quadrupole Moments (Debye-Ang)
        XX     -50.5377     XY       3.8961     YY     -54.4332
        XZ     -14.4319     YZ      -9.4901     ZZ     -55.5131
    Octopole Moments (Debye-Ang^2)
       XXX    -389.7474    XXY     -80.2696    XYY    -129.5639
       YYY    -263.4518    XXZ     -39.0442    XYZ     -31.1128
       YYZ     -11.8561    XZZ    -121.1069    YZZ     -80.4601
       ZZZ      14.6151
    Hexadecapole Moments (Debye-Ang^3)
      XXXX   -2962.1049   XXXY    -843.4204   XXYY    -741.7666
      XYYY    -856.8723   YYYY   -1513.1177   XXXZ     -29.1762
      XXYZ     -73.4583   XYYZ     -23.5182   YYYZ      26.2847
      XXZZ    -503.3215   XYZZ    -263.5314   YYZZ    -281.7843
      XZZZ     145.6991   YZZZ      85.0913   ZZZZ    -247.5486
 -----------------------------------------------------------------
 Calculating analytic gradient of the SCF energy
 Gradient of SCF Energy
            1           2           3           4           5           6
    1   0.0008267  -0.0012135   0.0011507  -0.0005150   0.0008523  -0.0004804
    2   0.0006776  -0.0005570   0.0004038  -0.0003641   0.0006131  -0.0004873
    3   0.0001025  -0.0000236   0.0001433   0.0004806   0.0000567   0.0006084
            7           8           9          10          11          12
    1  -0.0001457  -0.0009615  -0.0001529  -0.0000650  -0.0000100   0.0000830
    2   0.0000440  -0.0005713  -0.0000296  -0.0001287   0.0000289  -0.0001092
    3   0.0002779  -0.0000457  -0.0000463   0.0002343  -0.0001955   0.0002995
           13          14          15          16          17          18
    1  -0.0001473  -0.0000155  -0.0000330  -0.0001033  -0.0000542   0.0038867
    2  -0.0000902  -0.0000500   0.0000278   0.0001014  -0.0001064   0.0022352
    3   0.0002000   0.0004261  -0.0002845   0.0002662  -0.0000451  -0.0054133
           19          20          21          22
    1   0.0001030  -0.0034459   0.0003778   0.0000632
    2   0.0001845  -0.0020205   0.0001701   0.0000278
    3   0.0000244   0.0157678  -0.0023572  -0.0104763
 Max gradient component =       1.577E-02
 RMS gradient           =       2.578E-03
 Gradient time:  CPU 118.75 s  wall 7.53 s
 Geometry Optimization Parameters
   NAtoms,    NIC,     NZ,  NCons,   NDum,   NFix, NCnnct, MaxDiis
       22     172       0       0       0       0       0       0

 Cartesian Hessian Update
 Hessian updated using BFGS update


** GEOMETRY OPTIMIZATION IN DELOCALIZED INTERNAL COORDINATES **
   Searching for a Minimum

   Optimization Cycle:   2

                       Coordinates (Angstroms)
     ATOM                X               Y               Z
      1  C         1.9830049728    2.8339847560   -0.6961809929
      2  C         2.0910919952    1.3409629717   -0.3313884902
      3  C         3.4021781200    0.7348847531   -0.8665899259
      4  C         4.6152534336    1.5105596105   -0.3256926394
      5  C         4.5244762803    3.0126929437   -0.6430563780
      6  C         3.1944906846    3.6117164499   -0.1546585058
      7  H         3.4608687258   -0.3252464052   -0.5874064049
      8  H         2.0734132978    1.2425245996    0.7637477969
      9  H         1.9345682252    2.9475895156   -1.7873009882
     10  H         1.0445311062    3.2436941344   -0.2980151474
     11  H         4.6700705763    1.3713659684    0.7766126775
     12  H         5.5357419058    1.0904496683   -0.7477937511
     13  H         5.3747446296    3.5513811211   -0.1994322460
     14  H         4.6076244151    3.1568660620   -1.7271272180
     15  H         3.1683322118    3.5900329031    0.9577612346
     16  H         3.1198219906    4.6638289467   -0.4566477547
     17  H         3.4095999742    0.7670582573   -1.9643743924
     18  N         0.9206409053    0.5860560340   -0.7823463952
     19  H         0.7643816433    0.4889451263   -1.7855329168
     20  C         0.0212150035    0.0159714638    0.0418693199
     21  H        -0.7752987563   -0.4990154959   -0.5194392334
     22  O         0.0436557444    0.0367633562    1.2875964577
   Point Group: c1    Number of degrees of freedom:    60


   Energy is   -404.659920267

 Hessian updated using BFGS update

 60 Hessian modes will be used to form the next step
  Hessian Eigenvalues:
     0.005891    0.005976    0.006929    0.007196    0.012603    0.019500
     0.019824    0.020845    0.020848    0.037117    0.038567    0.039416
     0.041730    0.048205    0.048450    0.048903    0.055296    0.055728
     0.055926    0.060181    0.066958    0.081191    0.081534    0.081607
     0.082034    0.082134    0.084248    0.087503    0.120967    0.121268
     0.142948    0.159957    0.160203    0.162338    0.174876    0.210695
     0.219514    0.223009    0.272032    0.272674    0.275534    0.286865
     0.287038    0.287597    0.328211    0.334525    0.334818    0.335545
     0.336543    0.338920    0.339319    0.339439    0.339507    0.340140
     0.340858    0.345332    0.366135    0.453383    0.486955    0.807876

 Minimum search - taking simple RFO step
 Searching for Lamda that Minimizes Along All modes
 Value Taken    Lamda =  -0.00049603
 Step Taken.  Stepsize is  0.172681

                             Maximum     Tolerance    Cnvgd?
         Gradient           0.006755      0.000100      NO
         Displacement       0.070459      0.000100      NO
         Energy change     -0.002118      0.000000      NO


 New Cartesian Coordinates Obtained by Inverse Iteration

 Displacement from previous Coordinates is:  0.288958
 ----------------------------------------------------------------
             Standard Nuclear Orientation (Angstroms)
    I     Atom           X                Y                Z
 ----------------------------------------------------------------
    1      C       1.9843486150     2.8320587994    -0.7221431557
    2      C       2.0939527703     1.3432808008    -0.3455698384
    3      C       3.3993798148     0.7393794018    -0.8923112837
    4      C       4.6089582537     1.5037589694    -0.3264719388
    5      C       4.5245283636     3.0111535824    -0.6199693855
    6      C       3.1854231125     3.6094384316    -0.1561175087
    7      H       3.4561527030    -0.3265424695    -0.6358446417
    8      H       2.0976647286     1.2583076545     0.7508472741
    9      H       1.9601578178     2.9420385450    -1.8141529979
   10      H       1.0377992361     3.2436091009    -0.3459651097
   11      H       4.6488488236     1.3454443362     0.7753886182
   12      H       5.5337177414     1.0897933254    -0.7446693461
   13      H       5.3652231877     3.5412461875    -0.1473042773
   14      H       4.6355831174     3.1733292043    -1.6990445844
   15      H       3.1358924602     3.5824959351     0.9570321519
   16      H       3.1180894732     4.6624049764    -0.4560273956
   17      H       3.4129019069     0.7953974220    -1.9887579653
   18      N       0.9155997415     0.5821942120    -0.7710458174
   19      H       0.7473202638     0.4743897385    -1.7720602699
   20      C       0.0312825208     0.0201412693     0.0627358374
   21      H      -0.7781054433    -0.5015415738    -0.4703979308
   22      O       0.0696878765     0.0512888916     1.3164536717
 ----------------------------------------------------------------
 Nuclear Repulsion Energy =         466.53624600 hartrees
 There are       35 alpha and       35 beta electrons
 Applying Cartesian multipole field
    Component          Value
    ---------          -----
     (0,0,1)        2.72270E-02
 Nucleus-field energy     =    -1.0524795649 hartrees
 Requested basis set is 6-31+G(d)
 There are 71 shells and 197 basis functions
 A cutoff of  1.0D-14 yielded   2412 shell pairs
 There are     19012 function pairs
 Smallest overlap matrix eigenvalue = 2.59E-05
 Guess MOs from SCF MO coefficient file

 -----------------------------------------------------------------------
  General SCF calculation program by
  Eric Jon Sundstrom, Paul Horn, Yuezhi Mao, Dmitri Zuev, Alec White,
  David Stuck, Shaama M.S., Shane Yost, Joonho Lee, David Small,
  Daniel Levine, Susi Lehtola, Hugh Burton, Evgeny Epifanovsky,
  Bang C. Huynh
 -----------------------------------------------------------------------
 Exchange:     0.2000 Hartree-Fock + 0.0800 Slater + 0.7200 B88
 Correlation:  0.1900 VWN1RPA + 0.8100 LYP
 Using Euler-Maclaurin-Lebedev (99,590) quadrature formula
 using 16 threads for integral computing
 -------------------------------------------------------
 OpenMP Integral computing Module                
 Release: version 2.0, May 2017, Q-Chem Inc. Pleasanton 
 -------------------------------------------------------
 A restricted SCF calculation will be
 performed using DIIS
 SCF converges when DIIS error is below 1.0e-09
 ---------------------------------------
  Cycle       Energy         DIIS error
 ---------------------------------------
    1    -404.6589886094      3.67e-04  
    2    -404.6601665792      6.41e-05  
    3    -404.6601602594      8.73e-05  
    4    -404.6601860387      2.64e-05  
    5    -404.6601885721      8.27e-06  
    6    -404.6601888681      1.51e-06  
    7    -404.6601888764      6.65e-07  
    8    -404.6601888783      9.32e-08  
    9    -404.6601888783      3.04e-08  
   10    -404.6601888783      7.04e-09  
   11    -404.6601888783      1.49e-09  
   12    -404.6601888783      6.36e-10  Convergence criterion met
 ---------------------------------------
 SCF time:   CPU 572.80s  wall 36.00s 
 SCF   energy in the final basis set =     -404.6601888783
 Total energy in the final basis set =     -404.6601888783
 
 --------------------------------------------------------------
 
                    Orbital Energies (a.u.)
 --------------------------------------------------------------
 
 Alpha MOs
 -- Occupied --
-19.1376 -14.3664 -10.2920 -10.2210 -10.1855 -10.1806 -10.1703 -10.1684
-10.1663  -1.0338  -0.9268  -0.8186  -0.7359  -0.7340  -0.6302  -0.6034
 -0.5844  -0.5589  -0.5193  -0.4812  -0.4535  -0.4371  -0.4328  -0.4148
 -0.4122  -0.3894  -0.3716  -0.3674  -0.3364  -0.3353  -0.3152  -0.3065
 -0.3028  -0.2724  -0.2560
 -- Virtual --
 -0.0571  -0.0244  -0.0149   0.0101   0.0131   0.0298   0.0347   0.0498
  0.0688   0.0696   0.0808   0.0851   0.1020   0.1040   0.1194   0.1282
  0.1372   0.1428   0.1476   0.1512   0.1549   0.1692   0.1812   0.1822
  0.1877   0.1926   0.1961   0.2027   0.2066   0.2123   0.2250   0.2270
  0.2331   0.2403   0.2464   0.2524   0.2594   0.2622   0.2702   0.2810
  0.2946   0.2973   0.3010   0.3095   0.3113   0.3173   0.3228   0.3451
  0.3476   0.3563   0.3700   0.3924   0.3977   0.4140   0.4301   0.4334
  0.4479   0.4772   0.4858   0.6218   0.6487   0.6719   0.6735   0.6802
  0.6878   0.7020   0.7332   0.7440   0.7590   0.7622   0.7779   0.7880
  0.8076   0.8179   0.8305   0.8608   0.8795   0.9205   0.9607   0.9773
  0.9916   1.0003   1.0199   1.0300   1.0378   1.0640   1.0974   1.1224
  1.1264   1.1313   1.1428   1.1501   1.1650   1.1898   1.1966   1.2078
  1.2372   1.2449   1.2754   1.3205   1.3550   1.3824   1.3971   1.4356
  1.4779   1.4883   1.5013   1.5683   1.5744   1.6135   1.7093   1.7379
  1.7415   1.7498   1.7804   1.8072   1.8505   1.8667   1.9071   1.9096
  1.9234   1.9456   1.9966   2.0135   2.0284   2.0543   2.0606   2.0869
  2.0907   2.1358   2.2137   2.2252   2.2847   2.3122   2.3223   2.3483
  2.3983   2.4152   2.4216   2.4260   2.4562   2.5663   2.5959   2.6151
  2.6820   2.6880   2.7026   2.7709   2.7889   2.8419   2.8674   2.9768
  3.1827   4.1043   4.1925   4.2280   4.2983   4.3397   4.4131   4.6146
  4.6202   4.6836
 --------------------------------------------------------------
 
          Ground-State Mulliken Net Atomic Charges

     Atom                 Charge (a.u.)
  ----------------------------------------
      1 C                    -0.207079
      2 C                    -0.479244
      3 C                    -0.227806
      4 C                    -0.512537
      5 C                    -0.267094
      6 C                    -0.525079
      7 H                     0.200407
      8 H                     0.176473
      9 H                     0.291642
     10 H                     0.188826
     11 H                     0.114742
     12 H                     0.238791
     13 H                     0.163447
     14 H                     0.292763
     15 H                     0.112244
     16 H                     0.225956
     17 H                     0.294053
     18 N                    -0.370911
     19 H                     0.477702
     20 C                     0.286122
     21 H                     0.194209
     22 O                    -0.667629
  ----------------------------------------
  Sum of atomic charges =     0.000000

 -----------------------------------------------------------------
                    Cartesian Multipole Moments
 -----------------------------------------------------------------
    Charge (ESU x 10^10)
                -0.0000
    Dipole Moment (Debye)
         X       2.0456      Y       1.2581      Z     -10.0738
       Tot      10.3561
    Quadrupole Moments (Debye-Ang)
        XX     -50.3620     XY       3.9818     YY     -54.3301
        XZ     -14.5928     YZ      -9.5718     ZZ     -55.8371
    Octopole Moments (Debye-Ang^2)
       XXX    -389.4455    XXY     -80.1440    XYY    -129.4345
       YYY    -263.2010    XXZ     -39.3045    XYZ     -31.1046
       YYZ     -12.1284    XZZ    -121.1801    YZZ     -80.5099
       ZZZ      13.5226
    Hexadecapole Moments (Debye-Ang^3)
      XXXX   -2956.1470   XXXY    -842.3045   XXYY    -740.4786
      XYYY    -855.1583   YYYY   -1509.6952   XXXZ     -29.3983
      XXYZ     -73.4858   XYYZ     -23.6849   YYYZ      26.2217
      XXZZ    -502.7208   XYZZ    -262.7060   YYZZ    -282.0183
      XZZZ     145.6156   YZZZ      85.2055   ZZZZ    -253.5586
 -----------------------------------------------------------------
 Calculating analytic gradient of the SCF energy
 Gradient of SCF Energy
            1           2           3           4           5           6
    1   0.0008284  -0.0003663   0.0003561  -0.0002209   0.0001972  -0.0002573
    2  -0.0000320  -0.0001834   0.0007643  -0.0001621   0.0001054  -0.0000578
    3  -0.0002161  -0.0001342  -0.0001257  -0.0004222   0.0004668  -0.0004627
            7           8           9          10          11          12
    1  -0.0001250  -0.0000803   0.0000494  -0.0001992  -0.0001566  -0.0000133
    2  -0.0001041  -0.0000636   0.0001098  -0.0000619  -0.0000652  -0.0000599
    3   0.0000218   0.0002246   0.0001185  -0.0000007   0.0007424   0.0002996
           13          14          15          16          17          18
    1  -0.0000741   0.0001355  -0.0001103  -0.0000755   0.0001467   0.0006488
    2  -0.0000305   0.0000681  -0.0001868   0.0000262  -0.0000358   0.0003850
    3   0.0002348   0.0004425   0.0007109   0.0002615   0.0001300  -0.0005242
           19          20          21          22
    1  -0.0001950  -0.0005275  -0.0000128   0.0000521
    2  -0.0000944  -0.0005097   0.0000748   0.0001134
    3  -0.0004378   0.0011554  -0.0007970  -0.0016881
 Max gradient component =       1.688E-03
 RMS gradient           =       4.025E-04
 Gradient time:  CPU 120.45 s  wall 7.71 s
 Geometry Optimization Parameters
   NAtoms,    NIC,     NZ,  NCons,   NDum,   NFix, NCnnct, MaxDiis
       22     172       0       0       0       0       0       0

 Cartesian Hessian Update
 Hessian updated using BFGS update


** GEOMETRY OPTIMIZATION IN DELOCALIZED INTERNAL COORDINATES **
   Searching for a Minimum

   Optimization Cycle:   3

                       Coordinates (Angstroms)
     ATOM                X               Y               Z
      1  C         1.9843486150    2.8320587994   -0.7221431557
      2  C         2.0939527703    1.3432808008   -0.3455698384
      3  C         3.3993798148    0.7393794018   -0.8923112837
      4  C         4.6089582537    1.5037589694   -0.3264719388
      5  C         4.5245283636    3.0111535824   -0.6199693855
      6  C         3.1854231125    3.6094384316   -0.1561175087
      7  H         3.4561527030   -0.3265424695   -0.6358446417
      8  H         2.0976647286    1.2583076545    0.7508472741
      9  H         1.9601578178    2.9420385450   -1.8141529979
     10  H         1.0377992361    3.2436091009   -0.3459651097
     11  H         4.6488488236    1.3454443362    0.7753886182
     12  H         5.5337177414    1.0897933254   -0.7446693461
     13  H         5.3652231877    3.5412461875   -0.1473042773
     14  H         4.6355831174    3.1733292043   -1.6990445844
     15  H         3.1358924602    3.5824959351    0.9570321519
     16  H         3.1180894732    4.6624049764   -0.4560273956
     17  H         3.4129019069    0.7953974220   -1.9887579653
     18  N         0.9155997415    0.5821942120   -0.7710458174
     19  H         0.7473202638    0.4743897385   -1.7720602699
     20  C         0.0312825208    0.0201412693    0.0627358374
     21  H        -0.7781054433   -0.5015415738   -0.4703979308
     22  O         0.0696878765    0.0512888916    1.3164536717
   Point Group: c1    Number of degrees of freedom:    60


   Energy is   -404.660188878

 Hessian updated using BFGS update

 60 Hessian modes will be used to form the next step
  Hessian Eigenvalues:
     0.005904    0.005976    0.007061    0.007195    0.012598    0.019500
     0.019906    0.020841    0.020902    0.037463    0.038639    0.039420
     0.041733    0.048278    0.048451    0.048971    0.055296    0.055731
     0.055923    0.060181    0.066957    0.080455    0.081534    0.081605
     0.082034    0.082134    0.084138    0.087502    0.120342    0.120968
     0.142933    0.154677    0.160554    0.162070    0.174880    0.210526
     0.217728    0.225036    0.271520    0.272637    0.275532    0.286483
     0.286913    0.288603    0.327861    0.334525    0.334825    0.335914
     0.336542    0.338870    0.339430    0.339439    0.339775    0.340167
     0.341299    0.348932    0.365572    0.454703    0.476599    0.778505

 Minimum search - taking simple RFO step
 Searching for Lamda that Minimizes Along All modes
 Value Taken    Lamda =  -0.00001823
 Step Taken.  Stepsize is  0.023109

                             Maximum     Tolerance    Cnvgd?
         Gradient           0.000983      0.000100      NO
         Displacement       0.009207      0.000100      NO
         Energy change     -0.000269      0.000000      NO


 New Cartesian Coordinates Obtained by Inverse Iteration

 Displacement from previous Coordinates is:  0.028024
 ----------------------------------------------------------------
             Standard Nuclear Orientation (Angstroms)
    I     Atom           X                Y                Z
 ----------------------------------------------------------------
    1      C       1.9835214117     2.8325150811    -0.7233754901
    2      C       2.0940968290     1.3438518326    -0.3454864737
    3      C       3.3987554679     0.7387462730    -0.8935702239
    4      C       4.6088167437     1.5028407602    -0.3270064074
    5      C       4.5242914950     3.0106679156    -0.6180593106
    6      C       3.1847850984     3.6098226724    -0.1565005802
    7      H       3.4566315719    -0.3275817638    -0.6399122222
    8      H       2.0986149636     1.2595297478     0.7504634103
    9      H       1.9622854930     2.9411158254    -1.8157528893
   10      H       1.0369413198     3.2456146403    -0.3498150110
   11      H       4.6496328252     1.3417407974     0.7736424399
   12      H       5.5336612640     1.0906468252    -0.7467851623
   13      H       5.3638607971     3.5394471962    -0.1413864488
   14      H       4.6385086259     3.1748855941    -1.6966857148
   15      H       3.1329395129     3.5850746542     0.9558330871
   16      H       3.1192990523     4.6623101559    -0.4582901200
   17      H       3.4121848007     0.7981318189    -1.9900035725
   18      N       0.9150083803     0.5826718104    -0.7687653540
   19      H       0.7490223889     0.4744675332    -1.7699440906
   20      C       0.0307564674     0.0212034693     0.0643512107
   21      H      -0.7767666807    -0.5037690461    -0.4678389817
   22      O       0.0675592569     0.0491329475     1.3194920111
 ----------------------------------------------------------------
 Nuclear Repulsion Energy =         466.44557522 hartrees
 There are       35 alpha and       35 beta electrons
 Applying Cartesian multipole field
    Component          Value
    ---------          -----
     (0,0,1)        2.72270E-02
 Nucleus-field energy     =    -1.0506298217 hartrees
 Requested basis set is 6-31+G(d)
 There are 71 shells and 197 basis functions
 A cutoff of  1.0D-14 yielded   2412 shell pairs
 There are     19012 function pairs
 Smallest overlap matrix eigenvalue = 2.60E-05
 Guess MOs from SCF MO coefficient file

 -----------------------------------------------------------------------
  General SCF calculation program by
  Eric Jon Sundstrom, Paul Horn, Yuezhi Mao, Dmitri Zuev, Alec White,
  David Stuck, Shaama M.S., Shane Yost, Joonho Lee, David Small,
  Daniel Levine, Susi Lehtola, Hugh Burton, Evgeny Epifanovsky,
  Bang C. Huynh
 -----------------------------------------------------------------------
 Exchange:     0.2000 Hartree-Fock + 0.0800 Slater + 0.7200 B88
 Correlation:  0.1900 VWN1RPA + 0.8100 LYP
 Using Euler-Maclaurin-Lebedev (99,590) quadrature formula
 using 16 threads for integral computing
 -------------------------------------------------------
 OpenMP Integral computing Module                
 Release: version 2.0, May 2017, Q-Chem Inc. Pleasanton 
 -------------------------------------------------------
 A restricted SCF calculation will be
 performed using DIIS
 SCF converges when DIIS error is below 1.0e-09
 ---------------------------------------
  Cycle       Energy         DIIS error
 ---------------------------------------
    1    -404.6601795314      4.42e-05  
    2    -404.6601956770      1.21e-05  
    3    -404.6601945714      2.10e-05  
    4    -404.6601962911      3.39e-06  
    5    -404.6601963359      8.20e-07  
    6    -404.6601963389      1.81e-07  
    7    -404.6601963390      7.49e-08  
    8    -404.6601963391      1.86e-08  
    9    -404.6601963391      5.68e-09  
   10    -404.6601963391      1.68e-09  
   11    -404.6601963391      3.91e-10  Convergence criterion met
 ---------------------------------------
 SCF time:   CPU 530.60s  wall 33.00s 
 SCF   energy in the final basis set =     -404.6601963391
 Total energy in the final basis set =     -404.6601963391
 
 --------------------------------------------------------------
 
                    Orbital Energies (a.u.)
 --------------------------------------------------------------
 
 Alpha MOs
 -- Occupied --
-19.1376 -14.3667 -10.2921 -10.2212 -10.1855 -10.1806 -10.1704 -10.1686
-10.1665  -1.0331  -0.9271  -0.8187  -0.7360  -0.7341  -0.6304  -0.6035
 -0.5848  -0.5590  -0.5195  -0.4812  -0.4535  -0.4372  -0.4328  -0.4148
 -0.4122  -0.3894  -0.3718  -0.3673  -0.3365  -0.3354  -0.3152  -0.3065
 -0.3031  -0.2723  -0.2562
 -- Virtual --
 -0.0571  -0.0244  -0.0149   0.0100   0.0131   0.0298   0.0346   0.0498
  0.0687   0.0696   0.0808   0.0851   0.1019   0.1039   0.1193   0.1280
  0.1371   0.1427   0.1474   0.1513   0.1550   0.1692   0.1811   0.1820
  0.1876   0.1924   0.1961   0.2025   0.2064   0.2122   0.2251   0.2270
  0.2330   0.2401   0.2462   0.2524   0.2593   0.2621   0.2701   0.2809
  0.2945   0.2971   0.3011   0.3095   0.3111   0.3173   0.3226   0.3449
  0.3476   0.3563   0.3700   0.3923   0.3975   0.4138   0.4302   0.4336
  0.4475   0.4773   0.4854   0.6214   0.6486   0.6717   0.6734   0.6802
  0.6877   0.7019   0.7330   0.7437   0.7591   0.7620   0.7775   0.7878
  0.8075   0.8177   0.8302   0.8606   0.8796   0.9211   0.9605   0.9776
  0.9915   1.0001   1.0198   1.0299   1.0376   1.0638   1.0975   1.1226
  1.1264   1.1313   1.1429   1.1498   1.1654   1.1897   1.1964   1.2081
  1.2368   1.2448   1.2754   1.3207   1.3549   1.3813   1.3966   1.4354
  1.4772   1.4881   1.5013   1.5684   1.5745   1.6143   1.7084   1.7371
  1.7414   1.7499   1.7804   1.8070   1.8504   1.8661   1.9071   1.9094
  1.9233   1.9457   1.9955   2.0135   2.0286   2.0540   2.0606   2.0864
  2.0906   2.1353   2.2138   2.2247   2.2839   2.3125   2.3217   2.3479
  2.3973   2.4156   2.4210   2.4256   2.4558   2.5659   2.5957   2.6150
  2.6822   2.6876   2.7022   2.7706   2.7889   2.8416   2.8668   2.9751
  3.1833   4.1043   4.1922   4.2277   4.2982   4.3394   4.4131   4.6146
  4.6199   4.6831
 --------------------------------------------------------------
 
          Ground-State Mulliken Net Atomic Charges

     Atom                 Charge (a.u.)
  ----------------------------------------
      1 C                    -0.207224
      2 C                    -0.478994
      3 C                    -0.228979
      4 C                    -0.511680
      5 C                    -0.268333
      6 C                    -0.524233
      7 H                     0.200781
      8 H                     0.176233
      9 H                     0.291623
     10 H                     0.189166
     11 H                     0.114954
     12 H                     0.238967
     13 H                     0.163054
     14 H                     0.292753
     15 H                     0.112408
     16 H                     0.226167
     17 H                     0.294012
     18 N                    -0.370037
     19 H                     0.477866
     20 C                     0.286085
     21 H                     0.194235
     22 O                    -0.668822
  ----------------------------------------
  Sum of atomic charges =     0.000000

 -----------------------------------------------------------------
                    Cartesian Multipole Moments
 -----------------------------------------------------------------
    Charge (ESU x 10^10)
                -0.0000
    Dipole Moment (Debye)
         X       2.0649      Y       1.2692      Z     -10.0866
       Tot      10.3737
    Quadrupole Moments (Debye-Ang)
        XX     -50.3241     XY       3.9927     YY     -54.3067
        XZ     -14.5924     YZ      -9.5615     ZZ     -55.8702
    Octopole Moments (Debye-Ang^2)
       XXX    -389.2057    XXY     -80.1183    XYY    -129.3739
       YYY    -263.1030    XXZ     -39.3337    XYZ     -31.0931
       YYZ     -12.1621    XZZ    -121.0879    YZZ     -80.4706
       ZZZ      13.3896
    Hexadecapole Moments (Debye-Ang^3)
      XXXX   -2955.2106   XXXY    -842.1720   XXYY    -740.3999
      XYYY    -854.9567   YYYY   -1509.5469   XXXZ     -29.2714
      XXYZ     -73.4242   XYYZ     -23.6438   YYYZ      26.3101
      XXZZ    -502.4824   XYZZ    -262.5259   YYZZ    -281.9969
      XZZZ     145.7165   YZZZ      85.3026   ZZZZ    -254.0231
 -----------------------------------------------------------------
 Calculating analytic gradient of the SCF energy
 Gradient of SCF Energy
            1           2           3           4           5           6
    1   0.0000709  -0.0000655   0.0001237  -0.0000731   0.0000454  -0.0000795
    2   0.0000352  -0.0000707   0.0000826  -0.0000348   0.0000158  -0.0000485
    3   0.0000289  -0.0001604   0.0000728  -0.0000077   0.0003600  -0.0000242
            7           8           9          10          11          12
    1   0.0000412  -0.0001612   0.0001577  -0.0000688  -0.0001557   0.0000247
    2  -0.0000593  -0.0000839   0.0001075   0.0000504  -0.0000931   0.0000170
    3  -0.0000781  -0.0001468   0.0000187  -0.0001077   0.0003332   0.0003103
           13          14          15          16          17          18
    1  -0.0000273   0.0001576  -0.0001655  -0.0000030   0.0001925   0.0001991
    2  -0.0000182   0.0000853  -0.0001152  -0.0000175   0.0000838   0.0000134
    3   0.0003904   0.0003014   0.0003136   0.0002647   0.0000474  -0.0003195
           19          20          21          22
    1   0.0001568  -0.0002476   0.0001184  -0.0002409
    2   0.0000546   0.0005430  -0.0001473  -0.0003999
    3  -0.0003434  -0.0005090  -0.0005264  -0.0002180
 Max gradient component =       5.430E-04
 RMS gradient           =       1.982E-04
 Gradient time:  CPU 121.75 s  wall 7.75 s
 Geometry Optimization Parameters
   NAtoms,    NIC,     NZ,  NCons,   NDum,   NFix, NCnnct, MaxDiis
       22     172       0       0       0       0       0       0

 Cartesian Hessian Update
 Hessian updated using BFGS update


** GEOMETRY OPTIMIZATION IN DELOCALIZED INTERNAL COORDINATES **
   Searching for a Minimum

   Optimization Cycle:   4

                       Coordinates (Angstroms)
     ATOM                X               Y               Z
      1  C         1.9835214117    2.8325150811   -0.7233754901
      2  C         2.0940968290    1.3438518326   -0.3454864737
      3  C         3.3987554679    0.7387462730   -0.8935702239
      4  C         4.6088167437    1.5028407602   -0.3270064074
      5  C         4.5242914950    3.0106679156   -0.6180593106
      6  C         3.1847850984    3.6098226724   -0.1565005802
      7  H         3.4566315719   -0.3275817638   -0.6399122222
      8  H         2.0986149636    1.2595297478    0.7504634103
      9  H         1.9622854930    2.9411158254   -1.8157528893
     10  H         1.0369413198    3.2456146403   -0.3498150110
     11  H         4.6496328252    1.3417407974    0.7736424399
     12  H         5.5336612640    1.0906468252   -0.7467851623
     13  H         5.3638607971    3.5394471962   -0.1413864488
     14  H         4.6385086259    3.1748855941   -1.6966857148
     15  H         3.1329395129    3.5850746542    0.9558330871
     16  H         3.1192990523    4.6623101559   -0.4582901200
     17  H         3.4121848007    0.7981318189   -1.9900035725
     18  N         0.9150083803    0.5826718104   -0.7687653540
     19  H         0.7490223889    0.4744675332   -1.7699440906
     20  C         0.0307564674    0.0212034693    0.0643512107
     21  H        -0.7767666807   -0.5037690461   -0.4678389817
     22  O         0.0675592569    0.0491329475    1.3194920111
   Point Group: c1    Number of degrees of freedom:    60


   Energy is   -404.660196339

 Hessian updated using BFGS update

 60 Hessian modes will be used to form the next step
  Hessian Eigenvalues:
     0.005373    0.005975    0.007053    0.007183    0.012627    0.019500
     0.019872    0.020837    0.025062    0.037612    0.039370    0.039743
     0.041967    0.048318    0.048471    0.048902    0.055294    0.055737
     0.055928    0.060146    0.066967    0.081337    0.081534    0.081618
     0.082044    0.082155    0.083841    0.087506    0.119137    0.120972
     0.142972    0.153498    0.160482    0.161795    0.175003    0.210861
     0.219509    0.245738    0.271108    0.272861    0.275520    0.282874
     0.286903    0.290399    0.326047    0.329422    0.334529    0.334835
     0.336543    0.336636    0.339076    0.339451    0.339485    0.339909
     0.340226    0.344746    0.367562    0.454221    0.472569    0.794265

 Minimum search - taking simple RFO step
 Searching for Lamda that Minimizes Along All modes
 Value Taken    Lamda =  -0.00000654
 Step Taken.  Stepsize is  0.017586

                             Maximum     Tolerance    Cnvgd?
         Gradient           0.000319      0.000100      NO
         Displacement       0.010783      0.000100      NO
         Energy change     -0.000007      0.000000      NO


 New Cartesian Coordinates Obtained by Inverse Iteration

 Displacement from previous Coordinates is:  0.022383
 ----------------------------------------------------------------
             Standard Nuclear Orientation (Angstroms)
    I     Atom           X                Y                Z
 ----------------------------------------------------------------
    1      C       1.9830920195     2.8314286263    -0.7235689368
    2      C       2.0948014347     1.3428589443    -0.3455084651
    3      C       3.3993442976     0.7384497739    -0.8946372371
    4      C       4.6093875331     1.5027801061    -0.3275940413
    5      C       4.5239810793     3.0108843818    -0.6169322984
    6      C       3.1839518648     3.6094895210    -0.1562032503
    7      H       3.4580420655    -0.3279581654    -0.6421502369
    8      H       2.0999516595     1.2584923292     0.7503261438
    9      H       1.9625716697     2.9397005032    -1.8160790320
   10      H       1.0363448132     3.2441130222    -0.3505000323
   11      H       4.6511094977     1.3399921747     0.7723352629
   12      H       5.5343003257     1.0919652572    -0.7486405157
   13      H       5.3627104355     3.5393418372    -0.1382269357
   14      H       4.6394460628     3.1764771321    -1.6952440909
   15      H       3.1312406717     3.5856117800     0.9556651850
   16      H       3.1185248826     4.6617642437    -0.4587889400
   17      H       3.4123528676     0.7994375164    -1.9910796556
   18      N       0.9158559733     0.5808368402    -0.7681695871
   19      H       0.7504192618     0.4727037000    -1.7693543801
   20      C       0.0318014673     0.0197552205     0.0650063378
   21      H      -0.7794245093    -0.5002084030    -0.4663935681
   22      O       0.0646017113     0.0551503989     1.3203423802
 ----------------------------------------------------------------
 Nuclear Repulsion Energy =         466.43905945 hartrees
 There are       35 alpha and       35 beta electrons
 Applying Cartesian multipole field
    Component          Value
    ---------          -----
     (0,0,1)        2.72270E-02
 Nucleus-field energy     =    -1.0500857674 hartrees
 Requested basis set is 6-31+G(d)
 There are 71 shells and 197 basis functions
 A cutoff of  1.0D-14 yielded   2412 shell pairs
 There are     19012 function pairs
 Smallest overlap matrix eigenvalue = 2.60E-05
 Guess MOs from SCF MO coefficient file

 -----------------------------------------------------------------------
  General SCF calculation program by
  Eric Jon Sundstrom, Paul Horn, Yuezhi Mao, Dmitri Zuev, Alec White,
  David Stuck, Shaama M.S., Shane Yost, Joonho Lee, David Small,
  Daniel Levine, Susi Lehtola, Hugh Burton, Evgeny Epifanovsky,
  Bang C. Huynh
 -----------------------------------------------------------------------
 Exchange:     0.2000 Hartree-Fock + 0.0800 Slater + 0.7200 B88
 Correlation:  0.1900 VWN1RPA + 0.8100 LYP
 Using Euler-Maclaurin-Lebedev (99,590) quadrature formula
 using 16 threads for integral computing
 -------------------------------------------------------
 OpenMP Integral computing Module                
 Release: version 2.0, May 2017, Q-Chem Inc. Pleasanton 
 -------------------------------------------------------
 A restricted SCF calculation will be
 performed using DIIS
 SCF converges when DIIS error is below 1.0e-09
 ---------------------------------------
  Cycle       Energy         DIIS error
 ---------------------------------------
    1    -404.6601618655      5.95e-05  
    2    -404.6601924739      8.11e-06  
    3    -404.6601927533      6.06e-06  
    4    -404.6601928197      4.65e-06  
    5    -404.6601929035      4.24e-07  
    6    -404.6601929041      2.00e-07  
    7    -404.6601929043      4.16e-08  
    8    -404.6601929043      1.25e-08  
    9    -404.6601929043      5.55e-09  
   10    -404.6601929043      1.19e-09  
   11    -404.6601929043      3.75e-10  Convergence criterion met
 ---------------------------------------
 SCF time:   CPU 525.55s  wall 33.00s 
 SCF   energy in the final basis set =     -404.6601929043
 Total energy in the final basis set =     -404.6601929043
 
 --------------------------------------------------------------
 
                    Orbital Energies (a.u.)
 --------------------------------------------------------------
 
 Alpha MOs
 -- Occupied --
-19.1375 -14.3667 -10.2921 -10.2212 -10.1855 -10.1805 -10.1704 -10.1686
-10.1665  -1.0330  -0.9271  -0.8186  -0.7360  -0.7341  -0.6305  -0.6036
 -0.5848  -0.5590  -0.5195  -0.4812  -0.4534  -0.4373  -0.4329  -0.4148
 -0.4121  -0.3894  -0.3718  -0.3673  -0.3365  -0.3354  -0.3152  -0.3065
 -0.3031  -0.2723  -0.2562
 -- Virtual --
 -0.0571  -0.0244  -0.0149   0.0100   0.0131   0.0299   0.0346   0.0498
  0.0687   0.0696   0.0808   0.0851   0.1019   0.1039   0.1193   0.1280
  0.1372   0.1427   0.1474   0.1513   0.1550   0.1692   0.1811   0.1818
  0.1876   0.1925   0.1961   0.2025   0.2063   0.2122   0.2251   0.2270
  0.2329   0.2400   0.2463   0.2523   0.2594   0.2621   0.2701   0.2808
  0.2946   0.2971   0.3011   0.3095   0.3110   0.3172   0.3226   0.3450
  0.3476   0.3564   0.3699   0.3924   0.3975   0.4137   0.4302   0.4336
  0.4475   0.4774   0.4853   0.6213   0.6487   0.6717   0.6734   0.6802
  0.6877   0.7019   0.7330   0.7437   0.7587   0.7624   0.7775   0.7878
  0.8074   0.8177   0.8300   0.8606   0.8796   0.9211   0.9604   0.9778
  0.9915   1.0002   1.0198   1.0300   1.0377   1.0637   1.0975   1.1228
  1.1264   1.1314   1.1429   1.1498   1.1657   1.1897   1.1964   1.2083
  1.2369   1.2445   1.2754   1.3207   1.3549   1.3814   1.3963   1.4352
  1.4775   1.4873   1.5014   1.5690   1.5742   1.6143   1.7085   1.7372
  1.7414   1.7500   1.7804   1.8070   1.8500   1.8666   1.9070   1.9094
  1.9231   1.9456   1.9951   2.0134   2.0287   2.0541   2.0607   2.0865
  2.0905   2.1352   2.2140   2.2246   2.2841   2.3125   2.3215   2.3477
  2.3972   2.4160   2.4209   2.4254   2.4557   2.5657   2.5958   2.6148
  2.6823   2.6874   2.7022   2.7706   2.7889   2.8415   2.8666   2.9749
  3.1834   4.1043   4.1921   4.2277   4.2982   4.3394   4.4130   4.6147
  4.6198   4.6829
 --------------------------------------------------------------
 
          Ground-State Mulliken Net Atomic Charges

     Atom                 Charge (a.u.)
  ----------------------------------------
      1 C                    -0.208279
      2 C                    -0.478699
      3 C                    -0.228344
      4 C                    -0.511220
      5 C                    -0.269014
      6 C                    -0.523924
      7 H                     0.200848
      8 H                     0.176182
      9 H                     0.291591
     10 H                     0.189334
     11 H                     0.115036
     12 H                     0.239078
     13 H                     0.162833
     14 H                     0.292735
     15 H                     0.112507
     16 H                     0.226246
     17 H                     0.293976
     18 N                    -0.369934
     19 H                     0.477897
     20 C                     0.285933
     21 H                     0.194266
     22 O                    -0.669048
  ----------------------------------------
  Sum of atomic charges =     0.000000

 -----------------------------------------------------------------
                    Cartesian Multipole Moments
 -----------------------------------------------------------------
    Charge (ESU x 10^10)
                 0.0000
    Dipole Moment (Debye)
         X       2.0742      Y       1.2564      Z     -10.0881
       Tot      10.3755
    Quadrupole Moments (Debye-Ang)
        XX     -50.3180     XY       3.9944     YY     -54.3036
        XZ     -14.5751     YZ      -9.5830     ZZ     -55.8783
    Octopole Moments (Debye-Ang^2)
       XXX    -389.2093    XXY     -80.1267    XYY    -129.3625
       YYY    -263.0916    XXZ     -39.3249    XYZ     -31.0754
       YYZ     -12.1514    XZZ    -121.0402    YZZ     -80.4993
       ZZZ      13.3542
    Hexadecapole Moments (Debye-Ang^3)
      XXXX   -2955.6275   XXXY    -842.1105   XXYY    -740.4194
      XYYY    -854.8129   YYYY   -1509.0275   XXXZ     -29.0672
      XXYZ     -73.4499   XYYZ     -23.5457   YYYZ      26.1413
      XXZZ    -502.4256   XYZZ    -262.4207   YYZZ    -281.9131
      XZZZ     145.8645   YZZZ      85.0701   ZZZZ    -254.1704
 -----------------------------------------------------------------
 Calculating analytic gradient of the SCF energy
 Gradient of SCF Energy
            1           2           3           4           5           6
    1  -0.0001409  -0.0000148  -0.0000013  -0.0000015  -0.0000123   0.0000045
    2   0.0000463   0.0000501  -0.0001793   0.0000237  -0.0000123  -0.0000224
    3   0.0000808  -0.0001328   0.0000969   0.0002851   0.0002926   0.0002553
            7           8           9          10          11          12
    1   0.0000639  -0.0001641   0.0001854   0.0000165  -0.0001410   0.0000435
    2   0.0000183  -0.0001007   0.0000951   0.0000337  -0.0000905   0.0000369
    3  -0.0000898  -0.0002133  -0.0000413  -0.0001342   0.0001052   0.0003001
           13          14          15          16          17          18
    1  -0.0000212   0.0001540  -0.0001706   0.0000293   0.0001876  -0.0001815
    2  -0.0000215   0.0000874  -0.0000754  -0.0000148   0.0001348   0.0001635
    3   0.0004612   0.0002699   0.0000864   0.0002585  -0.0000117  -0.0002059
           19          20          21          22
    1   0.0001959   0.0007880  -0.0002112  -0.0006081
    2   0.0002056  -0.0009430   0.0003301   0.0002343
    3  -0.0002826  -0.0009233  -0.0004820   0.0000248
 Max gradient component =       9.430E-04
 RMS gradient           =       2.621E-04
 Gradient time:  CPU 119.50 s  wall 7.63 s
 Geometry Optimization Parameters
   NAtoms,    NIC,     NZ,  NCons,   NDum,   NFix, NCnnct, MaxDiis
       22     172       0       0       0       0       0       0

 Cartesian Hessian Update
 Hessian updated using BFGS update


** GEOMETRY OPTIMIZATION IN DELOCALIZED INTERNAL COORDINATES **
   Searching for a Minimum

   Optimization Cycle:   5

                       Coordinates (Angstroms)
     ATOM                X               Y               Z
      1  C         1.9830920195    2.8314286263   -0.7235689368
      2  C         2.0948014347    1.3428589443   -0.3455084651
      3  C         3.3993442976    0.7384497739   -0.8946372371
      4  C         4.6093875331    1.5027801061   -0.3275940413
      5  C         4.5239810793    3.0108843818   -0.6169322984
      6  C         3.1839518648    3.6094895210   -0.1562032503
      7  H         3.4580420655   -0.3279581654   -0.6421502369
      8  H         2.0999516595    1.2584923292    0.7503261438
      9  H         1.9625716697    2.9397005032   -1.8160790320
     10  H         1.0363448132    3.2441130222   -0.3505000323
     11  H         4.6511094977    1.3399921747    0.7723352629
     12  H         5.5343003257    1.0919652572   -0.7486405157
     13  H         5.3627104355    3.5393418372   -0.1382269357
     14  H         4.6394460628    3.1764771321   -1.6952440909
     15  H         3.1312406717    3.5856117800    0.9556651850
     16  H         3.1185248826    4.6617642437   -0.4587889400
     17  H         3.4123528676    0.7994375164   -1.9910796556
     18  N         0.9158559733    0.5808368402   -0.7681695871
     19  H         0.7504192618    0.4727037000   -1.7693543801
     20  C         0.0318014673    0.0197552205    0.0650063378
     21  H        -0.7794245093   -0.5002084030   -0.4663935681
     22  O         0.0646017113    0.0551503989    1.3203423802
   Point Group: c1    Number of degrees of freedom:    60


   Energy is   -404.660192904

 Hessian updated using BFGS update

 60 Hessian modes will be used to form the next step
  Hessian Eigenvalues:
     0.005536    0.005974    0.007011    0.007228    0.012628    0.019500
     0.019920    0.020846    0.037301    0.038836    0.039428    0.041519
     0.048064    0.048451    0.048884    0.055291    0.055732    0.055924
     0.060092    0.066910    0.080707    0.081521    0.081589    0.081949
     0.082129    0.083823    0.086608    0.088004    0.119362    0.120971
     0.143276    0.154256    0.160461    0.161119    0.175421    0.210389
     0.219683    0.226302    0.271532    0.272721    0.275518    0.281693
     0.286909    0.289085    0.325868    0.328139    0.334534    0.334841
     0.336542    0.336829    0.338980    0.339443    0.339502    0.339820
     0.340222    0.344545    0.364527    0.454273    0.473725    0.787064

 Minimum search - taking simple RFO step
 Searching for Lamda that Minimizes Along All modes
 Value Taken    Lamda =  -0.00001004
 Step Taken.  Stepsize is  0.011338

                             Maximum     Tolerance    Cnvgd?
         Gradient           0.000686      0.000100      NO
         Displacement       0.006827      0.000100      NO
         Energy change      0.000003      0.000000      NO


 New Cartesian Coordinates Obtained by Inverse Iteration

 Displacement from previous Coordinates is:  0.016574
 ----------------------------------------------------------------
             Standard Nuclear Orientation (Angstroms)
    I     Atom           X                Y                Z
 ----------------------------------------------------------------
    1      C       1.9834879054     2.8320940374    -0.7237472970
    2      C       2.0941655508     1.3435889702    -0.3455710632
    3      C       3.3986684821     0.7388530240    -0.8940863807
    4      C       4.6088673831     1.5027075742    -0.3270166227
    5      C       4.5242962254     3.0107060640    -0.6172132080
    6      C       3.1844934913     3.6098663442    -0.1565301301
    7      H       3.4564473097    -0.3273974245    -0.6405783412
    8      H       2.0990136024     1.2593563036     0.7504388521
    9      H       1.9624350139     2.9403957053    -1.8162017529
   10      H       1.0368635831     3.2447968081    -0.3502320903
   11      H       4.6500531177     1.3407311037     0.7732181905
   12      H       5.5336215710     1.0909124873    -0.7474658155
   13      H       5.3633752617     3.5391552939    -0.1392507969
   14      H       4.6394527871     3.1755495961    -1.6956044771
   15      H       3.1320126673     3.5859330479     0.9555029184
   16      H       3.1191433900     4.6621642123    -0.4591487769
   17      H       3.4119137172     0.7987544247    -1.9905439840
   18      N       0.9150184148     0.5820738442    -0.7688289870
   19      H       0.7487780761     0.4742198011    -1.7699547051
   20      C       0.0313564619     0.0203962909     0.0646261110
   21      H      -0.7779752926    -0.5026773672    -0.4667806684
   22      O       0.0689183653     0.0508865993     1.3195731313
 ----------------------------------------------------------------
 Nuclear Repulsion Energy =         466.46845794 hartrees
 There are       35 alpha and       35 beta electrons
 Applying Cartesian multipole field
    Component          Value
    ---------          -----
     (0,0,1)        2.72270E-02
 Nucleus-field energy     =    -1.0505922896 hartrees
 Requested basis set is 6-31+G(d)
 There are 71 shells and 197 basis functions
 A cutoff of  1.0D-14 yielded   2412 shell pairs
 There are     19012 function pairs
 Smallest overlap matrix eigenvalue = 2.59E-05
 Guess MOs from SCF MO coefficient file

 -----------------------------------------------------------------------
  General SCF calculation program by
  Eric Jon Sundstrom, Paul Horn, Yuezhi Mao, Dmitri Zuev, Alec White,
  David Stuck, Shaama M.S., Shane Yost, Joonho Lee, David Small,
  Daniel Levine, Susi Lehtola, Hugh Burton, Evgeny Epifanovsky,
  Bang C. Huynh
 -----------------------------------------------------------------------
 Exchange:     0.2000 Hartree-Fock + 0.0800 Slater + 0.7200 B88
 Correlation:  0.1900 VWN1RPA + 0.8100 LYP
 Using Euler-Maclaurin-Lebedev (99,590) quadrature formula
 using 16 threads for integral computing
 -------------------------------------------------------
 OpenMP Integral computing Module                
 Release: version 2.0, May 2017, Q-Chem Inc. Pleasanton 
 -------------------------------------------------------
 A restricted SCF calculation will be
 performed using DIIS
 SCF converges when DIIS error is below 1.0e-09
 ---------------------------------------
  Cycle       Energy         DIIS error
 ---------------------------------------
    1    -404.6601785138      4.68e-05  
    2    -404.6601975256      6.83e-06  
    3    -404.6601975449      8.18e-06  
    4    -404.6601977694      3.42e-06  
    5    -404.6601978151      4.97e-07  
    6    -404.6601978161      1.62e-07  
    7    -404.6601978162      5.23e-08  
    8    -404.6601978162      1.15e-08  
    9    -404.6601978162      4.47e-09  
   10    -404.6601978162      1.27e-09  
   11    -404.6601978162      2.20e-10  Convergence criterion met
 ---------------------------------------
 SCF time:   CPU 529.15s  wall 33.00s 
 SCF   energy in the final basis set =     -404.6601978162
 Total energy in the final basis set =     -404.6601978162
 
 --------------------------------------------------------------
 
                    Orbital Energies (a.u.)
 --------------------------------------------------------------
 
 Alpha MOs
 -- Occupied --
-19.1375 -14.3666 -10.2921 -10.2211 -10.1855 -10.1805 -10.1704 -10.1686
-10.1664  -1.0332  -0.9270  -0.8186  -0.7360  -0.7341  -0.6304  -0.6035
 -0.5847  -0.5590  -0.5195  -0.4812  -0.4535  -0.4372  -0.4329  -0.4148
 -0.4122  -0.3894  -0.3718  -0.3673  -0.3365  -0.3354  -0.3152  -0.3065
 -0.3030  -0.2723  -0.2561
 -- Virtual --
 -0.0571  -0.0244  -0.0149   0.0100   0.0131   0.0299   0.0346   0.0498
  0.0687   0.0696   0.0808   0.0851   0.1020   0.1039   0.1194   0.1280
  0.1372   0.1427   0.1475   0.1513   0.1550   0.1692   0.1811   0.1819
  0.1876   0.1925   0.1961   0.2026   0.2064   0.2122   0.2251   0.2270
  0.2330   0.2401   0.2462   0.2524   0.2594   0.2621   0.2702   0.2808
  0.2946   0.2972   0.3011   0.3095   0.3111   0.3173   0.3227   0.3451
  0.3477   0.3564   0.3699   0.3924   0.3975   0.4138   0.4302   0.4336
  0.4476   0.4774   0.4854   0.6214   0.6487   0.6718   0.6734   0.6802
  0.6877   0.7020   0.7330   0.7437   0.7590   0.7621   0.7776   0.7878
  0.8075   0.8178   0.8301   0.8605   0.8796   0.9209   0.9604   0.9777
  0.9915   1.0002   1.0198   1.0300   1.0377   1.0638   1.0974   1.1227
  1.1264   1.1314   1.1429   1.1498   1.1656   1.1897   1.1964   1.2083
  1.2370   1.2447   1.2754   1.3207   1.3548   1.3816   1.3966   1.4353
  1.4773   1.4879   1.5013   1.5686   1.5744   1.6140   1.7088   1.7375
  1.7415   1.7499   1.7804   1.8070   1.8503   1.8665   1.9071   1.9094
  1.9232   1.9456   1.9954   2.0134   2.0286   2.0542   2.0606   2.0867
  2.0906   2.1354   2.2139   2.2249   2.2844   2.3125   2.3217   2.3478
  2.3974   2.4159   2.4211   2.4255   2.4558   2.5657   2.5958   2.6148
  2.6823   2.6876   2.7022   2.7706   2.7890   2.8416   2.8667   2.9754
  3.1832   4.1042   4.1922   4.2278   4.2982   4.3395   4.4129   4.6147
  4.6199   4.6830
 --------------------------------------------------------------
 
          Ground-State Mulliken Net Atomic Charges

     Atom                 Charge (a.u.)
  ----------------------------------------
      1 C                    -0.207438
      2 C                    -0.479224
      3 C                    -0.228587
      4 C                    -0.511433
      5 C                    -0.268734
      6 C                    -0.524017
      7 H                     0.200772
      8 H                     0.176329
      9 H                     0.291601
     10 H                     0.189186
     11 H                     0.114995
     12 H                     0.239013
     13 H                     0.162902
     14 H                     0.292735
     15 H                     0.112455
     16 H                     0.226235
     17 H                     0.293993
     18 N                    -0.370138
     19 H                     0.477839
     20 C                     0.286030
     21 H                     0.194258
     22 O                    -0.668769
  ----------------------------------------
  Sum of atomic charges =     0.000000

 -----------------------------------------------------------------
                    Cartesian Multipole Moments
 -----------------------------------------------------------------
    Charge (ESU x 10^10)
                 0.0000
    Dipole Moment (Debye)
         X       2.0598      Y       1.2645      Z     -10.0843
       Tot      10.3699
    Quadrupole Moments (Debye-Ang)
        XX     -50.3294     XY       3.9917     YY     -54.3105
        XZ     -14.5887     YZ      -9.5648     ZZ     -55.8692
    Octopole Moments (Debye-Ang^2)
       XXX    -389.2875    XXY     -80.1330    XYY    -129.3944
       YYY    -263.1191    XXZ     -39.3027    XYZ     -31.0793
       YYZ     -12.1472    XZZ    -121.0938    YZZ     -80.4676
       ZZZ      13.3904
    Hexadecapole Moments (Debye-Ang^3)
[...]

 Mode:                40                     41                     42
 Frequency:      1416.89                1496.25                1502.46
 Force Cnst:      1.6897                 1.4412                 1.4447
 Red. Mass:       1.4285                 1.0926                 1.0862
 IR Active:          YES                    YES                    YES
 IR Intens:        3.254                  0.649                 11.115
 Raman Active:       YES                    YES                    YES
               X      Y      Z        X      Y      Z        X      Y      Z
 C          0.053  0.094  0.017   -0.011  0.000 -0.013    0.005 -0.015  0.006
 C         -0.085 -0.062 -0.009   -0.009  0.014  0.001    0.007  0.003  0.003
 C          0.109  0.014  0.008    0.004  0.008  0.012   -0.013  0.005  0.004
 C         -0.013  0.024  0.008    0.039 -0.015  0.033   -0.025  0.026 -0.029
 C          0.001 -0.001  0.006    0.006 -0.006 -0.002    0.037  0.028 -0.024
 C          0.017 -0.021  0.004   -0.001 -0.045 -0.044    0.013 -0.025 -0.028
 H         -0.357 -0.038 -0.072    0.017 -0.036 -0.146    0.005 -0.005 -0.045
 H          0.429  0.326  0.014    0.033 -0.053 -0.005   -0.031 -0.016 -0.000
 H         -0.224 -0.332 -0.023    0.156 -0.046 -0.018   -0.068  0.091  0.014
 H         -0.166 -0.291 -0.091    0.041 -0.049  0.151   -0.020  0.023 -0.096
 H          0.041  0.018  0.002   -0.384  0.151  0.050    0.304 -0.185 -0.055
 H         -0.107 -0.148 -0.030   -0.119  0.104 -0.412    0.106 -0.098  0.360
 H         -0.025 -0.017  0.057    0.007 -0.028  0.017   -0.148 -0.133  0.431
 H         -0.068 -0.044 -0.003   -0.042  0.024 -0.002   -0.412 -0.275 -0.110
 H          0.030  0.035  0.004   -0.010  0.495 -0.005   -0.061  0.298 -0.010
 H         -0.177 -0.039 -0.018   -0.026  0.122  0.507   -0.018  0.079  0.314
 H         -0.385 -0.092 -0.007   -0.010 -0.148  0.001    0.060 -0.040 -0.000
 N         -0.018 -0.010 -0.017    0.001 -0.001 -0.000    0.004  0.002 -0.000
 H          0.095  0.064 -0.047   -0.001 -0.002  0.000   -0.020 -0.012  0.005
 C          0.014  0.009  0.014   -0.000 -0.000  0.000   -0.003 -0.002  0.002
 H          0.029  0.018  0.006   -0.001  0.001 -0.000   -0.003 -0.002 -0.002
 O         -0.003 -0.002 -0.007    0.000 -0.000  0.000    0.000  0.000 -0.001
 TransDip  -0.036 -0.030  0.035    0.009 -0.024  0.002   -0.069 -0.048  0.066

 Mode:                43                     44                     45
 Frequency:      1506.34                1508.28                1527.81
 Force Cnst:      1.4591                 1.4684                 1.5041
 Red. Mass:       1.0914                 1.0955                 1.0936
 IR Active:          YES                    YES                    YES
 IR Intens:        9.630                  8.523                  3.127
 Raman Active:       YES                    YES                    YES
               X      Y      Z        X      Y      Z        X      Y      Z
 C          0.046 -0.023  0.030    0.014 -0.018  0.012   -0.036  0.026 -0.022
 C          0.002 -0.002  0.000    0.010  0.007  0.005   -0.013 -0.008 -0.007
 C          0.001 -0.044 -0.032   -0.010  0.026  0.022    0.010 -0.041 -0.028
 C          0.020 -0.014  0.009    0.030 -0.018  0.021    0.014 -0.011  0.005
 C         -0.004  0.010  0.000    0.039  0.026 -0.018    0.032  0.023 -0.013
 C          0.003 -0.016 -0.006   -0.004  0.032  0.023   -0.004  0.016  0.008
 H         -0.001  0.080  0.428    0.033 -0.057 -0.287   -0.020  0.073  0.398
 H         -0.011  0.014  0.002   -0.020 -0.019  0.007    0.027  0.021 -0.006
 H         -0.458  0.209  0.051   -0.182  0.131  0.027    0.373 -0.206 -0.046
 H         -0.116  0.086 -0.453   -0.041  0.065 -0.193    0.089 -0.083  0.376
 H         -0.165  0.099  0.024   -0.300  0.124  0.041   -0.117  0.069  0.016
 H         -0.048  0.037 -0.186   -0.075  0.105 -0.317   -0.031  0.032 -0.137
 H          0.010 -0.020  0.008   -0.099 -0.093  0.336   -0.088 -0.081  0.288
 H          0.018 -0.045 -0.005   -0.324 -0.204 -0.083   -0.285 -0.186 -0.073
 H         -0.025  0.121  0.001    0.009 -0.312  0.003    0.019 -0.135 -0.001
 H          0.007  0.020  0.118    0.041 -0.067 -0.313    0.007 -0.025 -0.140
 H         -0.023  0.459  0.006    0.059 -0.309 -0.002   -0.056  0.433  0.005
 N         -0.000 -0.002  0.000   -0.007 -0.004  0.001   -0.001 -0.001  0.001
 H         -0.000  0.010 -0.001    0.018  0.010 -0.004    0.019  0.013 -0.003
 C          0.001  0.000  0.001    0.003  0.002 -0.000    0.003  0.002 -0.006
 H          0.001  0.001  0.000    0.004  0.003  0.001    0.000  0.000  0.003
 O         -0.000  0.000 -0.001   -0.000 -0.000 -0.001   -0.000 -0.000  0.003
 TransDip  -0.055  0.082  0.002   -0.045 -0.037 -0.073    0.021  0.010  0.051

 Mode:                46                     47                     48
 Frequency:      1576.29                1651.74                2265.39
 Force Cnst:      2.4246                16.2115                 7.2609
 Red. Mass:       1.6563                10.0853                 2.4013
 IR Active:          YES                    YES                    YES
 IR Intens:       97.997                594.624                 35.219
 Raman Active:       YES                    YES                    YES
               X      Y      Z        X      Y      Z        X      Y      Z
 C          0.003  0.005  0.004   -0.022 -0.009 -0.018   -0.000 -0.000  0.000
 C          0.054  0.035 -0.044    0.014  0.008  0.039    0.002  0.001 -0.000
 C          0.006  0.003  0.004   -0.019 -0.015 -0.019   -0.000 -0.000  0.000
 C         -0.007 -0.003 -0.001    0.002  0.008  0.007    0.000  0.000  0.000
 C          0.000 -0.000  0.001   -0.001 -0.000 -0.002   -0.000 -0.000  0.000
 C         -0.004 -0.005 -0.001    0.009 -0.001  0.006    0.000  0.000  0.000
 H          0.006  0.005 -0.000    0.037 -0.002  0.035    0.001  0.000 -0.001
 H         -0.262 -0.172 -0.061   -0.041 -0.028  0.075    0.008  0.005 -0.001
 H         -0.014 -0.069 -0.007    0.053  0.060 -0.013   -0.000  0.000  0.001
 H          0.009  0.010  0.002    0.012  0.024  0.046    0.001  0.001 -0.001
 H          0.038  0.006 -0.004   -0.018 -0.005  0.014   -0.000 -0.000 -0.000
 H          0.007 -0.001  0.029   -0.031 -0.027 -0.039    0.000 -0.000  0.000
 H          0.003  0.004 -0.009   -0.003 -0.005  0.015    0.000  0.000  0.000
 H          0.004  0.003  0.002   -0.000 -0.001 -0.002    0.000  0.000  0.000
 H          0.018  0.031 -0.001   -0.012 -0.019  0.014   -0.000  0.000 -0.000
 H          0.001  0.003  0.026   -0.038 -0.015 -0.040    0.000  0.000  0.000
 H         -0.073  0.007 -0.000    0.074  0.019 -0.017    0.000 -0.000  0.001
 N         -0.148 -0.096  0.058    0.117  0.075 -0.179    0.014  0.009 -0.003
 H          0.748  0.477 -0.145    0.205  0.129 -0.209   -0.051 -0.033  0.004
 C          0.072  0.046  0.020   -0.175 -0.109  0.721   -0.145 -0.093 -0.094
 H          0.125  0.080  0.056    0.262  0.169 -0.101    0.729  0.471  0.452
 O         -0.010 -0.007 -0.035   -0.006 -0.006 -0.372    0.006  0.004  0.015
 TransDip   0.266  0.169 -0.030   -0.372 -0.241  0.643   -0.118 -0.076 -0.128

 Mode:                49                     50                     51
 Frequency:      2852.99                2866.75                3011.31
 Force Cnst:      5.1451                 5.1938                 5.7260
 Red. Mass:       1.0729                 1.0726                 1.0717
 IR Active:          YES                    YES                    YES
 IR Intens:       56.629                291.982                 90.986
 Raman Active:       YES                    YES                    YES
               X      Y      Z        X      Y      Z        X      Y      Z
 C         -0.002  0.001  0.002   -0.001  0.001  0.001   -0.000  0.001  0.000
 C         -0.000  0.001  0.001    0.000 -0.000  0.003    0.000 -0.000  0.006
 C         -0.000  0.001 -0.001    0.001 -0.003  0.002    0.001 -0.000 -0.000
 C          0.003 -0.006  0.034   -0.006  0.012 -0.067    0.003 -0.001 -0.006
 C          0.001  0.002  0.002    0.005  0.002  0.005   -0.062 -0.040 -0.015
 C          0.003 -0.002 -0.068    0.002 -0.001 -0.034    0.000  0.005 -0.006
 H          0.003 -0.010  0.002   -0.006  0.028 -0.006   -0.002  0.004 -0.001
 H          0.002 -0.004 -0.012   -0.004  0.003 -0.040   -0.001  0.006 -0.077
 H         -0.005  0.002 -0.036   -0.001  0.000 -0.015    0.001 -0.000  0.005
 H          0.023 -0.015 -0.009    0.016 -0.009 -0.007    0.003 -0.003 -0.002
 H         -0.011  0.059 -0.443    0.023 -0.126  0.873    0.003 -0.008  0.046
 H         -0.024  0.007  0.028    0.047 -0.018 -0.050   -0.044  0.016  0.020
 H         -0.015 -0.017 -0.010   -0.061 -0.036 -0.033    0.726  0.456  0.427
 H          0.006 -0.000 -0.018    0.010  0.012 -0.052    0.007  0.024 -0.245
 H         -0.039 -0.032  0.884   -0.024 -0.014  0.442   -0.003  0.001  0.046
 H         -0.001  0.052 -0.046   -0.002  0.026 -0.020    0.001 -0.064  0.020
 H          0.001  0.001  0.021   -0.002 -0.000 -0.035    0.001  0.000  0.006
 N         -0.000 -0.000  0.000   -0.000 -0.000  0.000   -0.000 -0.000  0.000
 H         -0.000  0.001  0.000    0.002  0.001  0.001    0.000  0.000  0.001
 C          0.000  0.000 -0.000    0.000  0.000 -0.001    0.000  0.000 -0.000
 H         -0.000  0.000  0.000    0.000 -0.000  0.000   -0.000 -0.000 -0.000
 O          0.000 -0.000  0.000   -0.000  0.000  0.000   -0.000 -0.000 -0.000
 TransDip   0.066 -0.123 -0.196   -0.076  0.050 -0.540   -0.243 -0.153 -0.104

 Mode:                52                     53                     54
 Frequency:      3019.49                3040.63                3048.17
 Force Cnst:      5.8132                 5.7941                 5.8153
 Red. Mass:       1.0822                 1.0637                 1.0623
 IR Active:          YES                    YES                    YES
 IR Intens:       52.569                 36.351                 23.622
 Raman Active:       YES                    YES                    YES
               X      Y      Z        X      Y      Z        X      Y      Z
 C         -0.006  0.002  0.011   -0.061  0.030 -0.015   -0.007  0.004 -0.000
 C         -0.001  0.006 -0.080   -0.001 -0.001  0.002   -0.001 -0.000 -0.001
 C          0.000 -0.005  0.011    0.000  0.007  0.004    0.004 -0.061 -0.031
 C          0.000  0.000 -0.002    0.000 -0.000  0.000   -0.007  0.004  0.005
 C         -0.005 -0.003 -0.001    0.000 -0.001 -0.000   -0.000  0.000  0.000
 C         -0.000  0.000 -0.002    0.001 -0.010  0.005    0.000 -0.002  0.001
 H         -0.000  0.052 -0.011    0.004 -0.088  0.023   -0.044  0.775 -0.202
 H          0.009 -0.071  0.972    0.001  0.001 -0.022   -0.000 -0.000  0.022
 H         -0.004  0.009 -0.107   -0.010 -0.039  0.483   -0.002 -0.003  0.038
 H          0.072 -0.029 -0.027    0.730 -0.319 -0.306    0.088 -0.040 -0.036
 H          0.004 -0.003  0.027   -0.000  0.001 -0.005   -0.001  0.003 -0.008
 H         -0.002  0.001  0.003   -0.003  0.002  0.002    0.092 -0.044 -0.045
 H          0.056  0.035  0.032    0.002  0.003  0.002    0.002  0.000  0.001
 H          0.000  0.001 -0.018    0.000  0.000  0.001    0.001  0.001 -0.005
 H          0.001  0.001  0.025    0.002 -0.002 -0.017    0.001 -0.000 -0.007
 H          0.000 -0.002  0.003   -0.011  0.128 -0.040   -0.002  0.029 -0.009
 H         -0.001  0.007 -0.121    0.000  0.006 -0.067   -0.006 -0.052  0.568
 N         -0.001 -0.001  0.001    0.000  0.000 -0.000    0.000  0.000 -0.000
 H         -0.000  0.001 -0.011   -0.000  0.002 -0.001    0.002 -0.000 -0.001
 C          0.001  0.000 -0.003    0.000  0.000  0.000    0.000  0.000  0.000
 H         -0.001 -0.000  0.001    0.000 -0.000 -0.000   -0.000  0.000 -0.000
 O          0.001  0.000  0.001   -0.000 -0.000 -0.000   -0.000 -0.000 -0.000
 TransDip  -0.090 -0.029 -0.212   -0.171  0.074  0.050   -0.031 -0.150  0.028

 Mode:                55                     56                     57
 Frequency:      3074.71                3085.86                3089.21
 Force Cnst:      6.0477                 6.1026                 6.1999
 Red. Mass:       1.0858                 1.0877                 1.1027
 IR Active:          YES                    YES                    YES
 IR Intens:       38.530                 32.096                  9.837
 Raman Active:       YES                    YES                    YES
               X      Y      Z        X      Y      Z        X      Y      Z
 C          0.011 -0.005 -0.003   -0.007  0.002  0.019    0.026 -0.006 -0.069
 C          0.000  0.001 -0.001    0.001 -0.000  0.001    0.000 -0.000 -0.003
 C         -0.000 -0.001  0.004   -0.001  0.013 -0.006    0.001 -0.025  0.043
 C         -0.000  0.001 -0.001   -0.064  0.028  0.031   -0.018  0.008  0.012
 C         -0.006 -0.003 -0.013   -0.005 -0.001 -0.028   -0.001 -0.000  0.001
 C          0.005 -0.078  0.025    0.000  0.002 -0.002    0.000  0.006 -0.006
 H         -0.001  0.011 -0.002    0.007 -0.151  0.036   -0.016  0.283 -0.065
 H          0.000 -0.000  0.005   -0.000  0.002 -0.017    0.004 -0.009  0.038
 H          0.001 -0.000 -0.010   -0.003  0.019 -0.191    0.015 -0.069  0.698
 H         -0.132  0.056  0.052    0.087 -0.038 -0.033   -0.325  0.142  0.124
 H         -0.000 -0.002  0.010   -0.007  0.005 -0.022   -0.005  0.005 -0.039
 H          0.003 -0.002 -0.002    0.762 -0.337 -0.352    0.221 -0.097 -0.102
 H          0.078  0.047  0.041    0.089  0.058  0.047    0.007  0.004  0.004
 H         -0.012 -0.019  0.117   -0.030 -0.043  0.290   -0.001  0.003 -0.010
 H          0.002 -0.008 -0.031   -0.003 -0.000  0.010    0.002  0.001  0.045
 H         -0.057  0.930 -0.274    0.002 -0.033  0.010    0.003 -0.071  0.021
 H          0.001  0.003 -0.041   -0.000 -0.001  0.038    0.003  0.023 -0.440
 N         -0.000 -0.000  0.000   -0.000 -0.000  0.000   -0.000  0.000  0.000
 H         -0.000 -0.000 -0.000   -0.000 -0.000 -0.000   -0.000  0.001 -0.000
 C          0.000  0.000 -0.000    0.000  0.000 -0.000    0.000 -0.000 -0.000
 H         -0.000 -0.000  0.000   -0.000 -0.000 -0.000    0.000 -0.000  0.000
 O         -0.000 -0.000  0.000   -0.000 -0.000  0.000   -0.000  0.000  0.000
 TransDip   0.005 -0.199  0.002   -0.166  0.072  0.018    0.051 -0.084 -0.018

 Mode:                58                     59                     60
 Frequency:      3092.58                3097.37                3520.13
 Force Cnst:      6.1922                 6.2031                 7.8855
 Red. Mass:       1.0989                 1.0974                 1.0801
 IR Active:          YES                    YES                    YES
 IR Intens:        6.598                  7.441                105.055
 Raman Active:       YES                    YES                    YES
               X      Y      Z        X      Y      Z        X      Y      Z
 C         -0.012  0.003  0.030    0.012 -0.003 -0.036   -0.000 -0.000  0.000
 C         -0.000 -0.001  0.011    0.000  0.001 -0.011    0.001  0.000 -0.000
 C          0.001 -0.034  0.050   -0.001  0.024 -0.043   -0.000 -0.000  0.000
 C          0.015 -0.007 -0.008    0.014 -0.006 -0.013   -0.000  0.000  0.000
 C         -0.002  0.003 -0.056   -0.003  0.003 -0.061   -0.000 -0.000  0.000
 C         -0.001  0.007 -0.003   -0.000  0.008 -0.008    0.000 -0.000  0.000
 H         -0.021  0.374 -0.087    0.015 -0.263  0.062   -0.000  0.001 -0.000
 H          0.002  0.010 -0.133   -0.002 -0.010  0.123    0.004  0.002  0.011
 H         -0.006  0.032 -0.295    0.009 -0.037  0.365   -0.000 -0.001 -0.000
 H          0.151 -0.067 -0.058   -0.153  0.067  0.060    0.001 -0.001 -0.000
 H         -0.002 -0.007  0.006    0.006 -0.013  0.076    0.000  0.000 -0.001
 H         -0.185  0.084  0.085   -0.174  0.078  0.081    0.000 -0.000 -0.000
 H          0.092  0.058  0.046    0.109  0.069  0.057    0.000  0.000  0.000
 H         -0.063 -0.091  0.610   -0.070 -0.102  0.663    0.000  0.000 -0.000
 H         -0.006 -0.000  0.014   -0.004  0.001  0.064    0.000  0.000 -0.001
 H          0.007 -0.084  0.024    0.007 -0.095  0.028    0.000  0.000 -0.000
 H          0.008  0.025 -0.502   -0.005 -0.021  0.446   -0.001  0.000 -0.000
 N          0.000  0.000 -0.000   -0.000 -0.000  0.000   -0.011 -0.007 -0.073
 H         -0.002 -0.001  0.001    0.002  0.002 -0.001    0.162  0.106  0.978
 C         -0.000 -0.000  0.001    0.000  0.000 -0.001   -0.002 -0.001  0.000
 H          0.000  0.000 -0.000   -0.000 -0.000  0.000    0.002  0.001  0.000
 O         -0.000 -0.000 -0.000    0.000  0.000  0.000   -0.000 -0.000  0.001
 TransDip  -0.026 -0.076  0.016    0.000  0.017 -0.086    0.008  0.008  0.328

 STANDARD THERMODYNAMIC QUANTITIES AT   298.18 K  AND     1.00 ATM

   This Molecule has  0 Imaginary Frequencies
   Zero point vibrational energy:      122.063 kcal/mol

   Atom    1 Element C  Has Mass   12.00000
   Atom    2 Element C  Has Mass   12.00000
   Atom    3 Element C  Has Mass   12.00000
   Atom    4 Element C  Has Mass   12.00000
   Atom    5 Element C  Has Mass   12.00000
   Atom    6 Element C  Has Mass   12.00000
   Atom    7 Element H  Has Mass    1.00783
   Atom    8 Element H  Has Mass    1.00783
   Atom    9 Element H  Has Mass    1.00783
   Atom   10 Element H  Has Mass    1.00783
   Atom   11 Element H  Has Mass    1.00783
   Atom   12 Element H  Has Mass    1.00783
   Atom   13 Element H  Has Mass    1.00783
   Atom   14 Element H  Has Mass    1.00783
   Atom   15 Element H  Has Mass    1.00783
   Atom   16 Element H  Has Mass    1.00783
   Atom   17 Element H  Has Mass    1.00783
   Atom   18 Element N  Has Mass   14.00307
   Atom   19 Element H  Has Mass    1.00783
   Atom   20 Element C  Has Mass   12.00000
   Atom   21 Element H  Has Mass    2.01410
   Atom   22 Element O  Has Mass   15.99491
   Molecular Mass:   128.106042 amu
   Principal axes and moments of inertia in amu*Bohr^2:
                             1           2           3
    Eigenvalues --      556.38049  2001.48916  2185.98557
          X               0.82295    -0.52528     0.21640
          Y               0.53803     0.84293    -0.00000
          Z              -0.18241     0.11643     0.97630
   Rotational Symmetry Number is   1
   The Molecule is an Asymmetric Top
   Translational Enthalpy:        0.889 kcal/mol
   Rotational Enthalpy:           0.889 kcal/mol
   Vibrational Enthalpy:        125.713 kcal/mol
   gas constant (RT):             0.593 kcal/mol
   Translational Entropy:        40.457  cal/mol.K
   Rotational Entropy:           29.278  cal/mol.K
   Vibrational Entropy:          21.384  cal/mol.K

   Total Enthalpy:              128.083 kcal/mol
   Total Entropy:                91.118  cal/mol.K
Archival summary:
1\1\node024\FREQ\ProcedureUnspecified\6-31+G*\11713\ymao90\SunMar704:26:512021SunMar704:26:512021\0\\#,FREQ,ProcedureUnspecified,6-31+G*,\\0,1\N\H,1,1.02056\C,1,1.33832,2,117.323\H,3,1.10045,1,112.594,2,0.309375,0\O,3,1.25587,1,126.348,2,-179.792,0\C,1,1.46611,2,117.971,3,-179.664,0\H,6,1.09923,1,104.571,2,-176.003,0\C,6,1.53895,1,112.005,2,-58.3953,0\H,8,1.09751,6,110.128,1,-52.9626,0\H,8,1.09815,6,110.161,1,64.1423,0\C,8,1.53934,6,109.887,1,-175.327,0\H,11,1.09614,8,109.603,6,-178.036,0\H,11,1.11287,8,108.725,6,65.2496,0\C,11,1.538,8,111.951,6,-55.6671,0\H,14,1.09697,11,109.091,8,-68.0768,0\H,14,1.1008,11,110.295,8,175.954,0\C,14,1.53828,11,111.92,8,52.762,0\H,17,1.09689,14,110.056,11,-174.857,0\H,17,1.11354,14,109.377,11,67.7897,0\C,17,1.53916,14,111.866,11,-52.6787,0\H,20,1.09799,17,109.375,14,-65.2627,0\H,20,1.09817,17,110.936,14,177.493,0\\\@

 Total job time:  5133.76s(wall), 81303.95s(cpu) 
 Sun Mar  7 04:26:51 2021

        *************************************************************
        *                                                           *
        *  Thank you very much for using Q-Chem.  Have a nice day.  *
        *                                                           *
        *************************************************************


