                  Welcome to Q-Chem
     A Quantum Leap Into The Future Of Chemistry


 Q-Chem 5.2 (devel), Q-Chem, Inc., Pleasanton, CA (2019)

 Yihan Shao,  Zhengting Gan,  E. Epifanovsky,  A. T. B. Gilbert,  M. Wormit,  
 J. Kussmann,  A. W. Lange,  A. Behn,  Jia Deng,  Xintian Feng,  D. Ghosh,  
 M. Goldey,  P. R. Horn,  L. D. Jacobson,  I. Kaliman,  T. Kus,  A. Landau,  
 Jie Liu,  E. I. Proynov,  R. M. Richard,  R. P. Steele,  E. J. Sundstrom,  
 H. L. Woodcock III,  P. M. Zimmerman,  D. Zuev,  B. Alam,  B. Albrecht,  
 E. Alguire,  S. A. Baeppler,  D. Barton,  Z. Benda,  Y. A. Bernard,  
 E. J. Berquist,  K. B. Bravaya,  H. Burton,  K. Carter-Fenk,  D. Casanova,  
 Chun-Min Chang,  Yunqing Chen,  A. Chien,  K. D. Closser,  M. P. Coons,  
 S. Coriani,  S. Dasgupta,  A. L. Dempwolff,  M. Diedenhofen,  Hainam Do,  
 R. G. Edgar,  Po-Tung Fang,  S. Faraji,  S. Fatehi,  Qingguo Feng,  
 J. Fosso-Tande,  J. Gayvert,  Qinghui Ge,  A. Ghysels,  G. Gidofalvi,  
 J. Gomes,  J. Gonthier,  A. Gunina,  D. Hait,  M. W. D. Hanson-Heine,  
 P. H. P. Harbach,  A. W. Hauser,  M. F. Herbst,  J. E. Herr,  
 E. G. Hohenstein,  Z. C. Holden,  Kerwin Hui,  B. C. Huynh,  T.-C. Jagau,  
 Hyunjun Ji,  B. Kaduk,  K. Khistyaev,  Jaehoon Kim,  P. Klunzinger,  K. Koh,  
 D. Kosenkov,  L. Koulias,  T. Kowalczyk,  C. M. Krauter,  A. Kunitsa,  
 Ka Un Lao,  A. Laurent,  K. V. Lawler,  Joonho Lee,  D. Lefrancois,  
 S. Lehtola,  D. S. Levine,  Yi-Pei Li,  You-Sheng Lin,  Fenglai Liu,  
 Kuan-Yu Liu,  E. Livshits,  M. Loipersberger,  A. Luenser,  P. Manohar,  
 E. Mansoor,  S. F. Manzer,  Shan-Ping Mao,  Yuezhi Mao,  N. Mardirossian,  
 A. V. Marenich,  T. Markovich,  L. A. Martinez-Martinez,  S. A. Maurer,  
 N. J. Mayhall,  S. C. McKenzie,  J.-M. Mewes,  P. Morgante,  A. F. Morrison,  
 J. W. Mullinax,  K. Nanda,  T. S. Nguyen-Beck,  R. Olivares-Amaya,  
 J. A. Parkhill,  S. K. Paul,  F. Pavosevic,  Zheng Pei,  T. M. Perrine,  
 F. Plasser,  P. Pokhilko,  S. Prager,  A. Prociuk,  E. Ramos,  B. Rana,  
 D. R. Rehn,  F. Rob,  M. Scheurer,  M. Schneider,  N. Sergueev,  
 S. M. Sharada,  S. Sharma,  D. W. Small,  T. Stauch,  C. J. Stein,  
 T. Stein,  Yu-Chuan Su,  S. P. Veccham,  Zhen Tao,  A. J. W. Thom,  
 A. Tkatchenko,  T. Tsuchimochi,  N. M. Tubman,  L. Vogt,  M. L. Vidal,  
 O. Vydrov,  M. A. Watson,  J. Wenzel,  M. de Wergifosse,  T. A. Wesolowski,  
 A. White,  J. Witte,  A. Yamada,  Jun Yang,  K. Yao,  S. Yeganeh,  
 S. R. Yost,  Zhi-Qiang You,  A. Zech,  Igor Ying Zhang,  Xing Zhang,  
 Yan Zhao,  Ying Zhu,  B. R. Brooks,  G. K. L. Chan,  C. J. Cramer,  
 M. S. Gordon,  W. J. Hehre,  A. Klamt,  M. W. Schmidt,  C. D. Sherrill,  
 D. G. Truhlar,  A. Aspuru-Guzik,  R. Baer,  A. T. Bell,  N. A. Besley,  
 Jeng-Da Chai,  A. E. DePrince, III,  R. A. DiStasio Jr.,  A. Dreuw,  
 B. D. Dunietz,  T. R. Furlani,  Chao-Ping Hsu,  Yousung Jung,  Jing Kong,  
 D. S. Lambrecht,  WanZhen Liang,  C. Ochsenfeld,  V. A. Rassolov,  
 L. V. Slipchenko,  J. E. Subotnik,  T. Van Voorhis,  J. M. Herbert,  
 A. I. Krylov,  P. M. W. Gill,  M. Head-Gordon

 Contributors to earlier versions of Q-Chem not listed above: 
 R. D. Adamson,  B. Austin,  J. Baker,  G. J. O. Beran,  K. Brandhorst,  
 S. T. Brown,  E. F. C. Byrd,  A. K. Chakraborty,  C.-L. Cheng,  
 Siu Hung Chien,  D. M. Chipman,  D. L. Crittenden,  H. Dachsel,  
 R. J. Doerksen,  A. D. Dutoi,  L. Fusti-Molnar,  W. A. Goddard III,  
 A. Golubeva-Zadorozhnaya,  S. R. Gwaltney,  G. Hawkins,  A. Heyden,  
 S. Hirata,  G. Kedziora,  F. J. Keil,  C. Kelley,  Jihan Kim,  R. A. King,  
 R. Z. Khaliullin,  P. P. Korambath,  W. Kurlancheek,  A. M. Lee,  M. S. Lee,  
 S. V. Levchenko,  Ching Yeh Lin,  D. Liotard,  R. C. Lochan,  I. Lotan,  
 P. E. Maslen,  N. Nair,  D. P. O'Neill,  D. Neuhauser,  E. Neuscamman,  
 C. M. Oana,  R. Olson,  B. Peters,  R. Peverati,  P. A. Pieniazek,  
 Y. M. Rhee,  J. Ritchie,  M. A. Rohrdanz,  E. Rosta,  N. J. Russ,  
 H. F. Schaefer III,  N. E. Schultz,  N. Shenvi,  A. C. Simmonett,  A. Sodt,  
 D. Stuck,  K. S. Thanthiriwatte,  V. Vanovschi,  Tao Wang,  A. Warshel,  
 C. F. Williams,  Q. Wu,  X. Xu,  W. Zhang

 Please cite Q-Chem as follows:
 Y. Shao et al., Mol. Phys. 113, 184-215 (2015)
 DOI: 10.1080/00268976.2014.952696

 Q-Chem 5.2.2 for Intel X86 EM64T Linux

 Parts of Q-Chem use Armadillo 9.800.1 (Horizon Scraper).
 http://arma.sourceforge.net/

 Q-Chem begins on Sun Mar  7 14:52:42 2021  

Host: node017
0

     Scratch files written to /home/ymao90/scratch/CCX_CO_-6020210307145240//

Checking the input file for inconsistencies... 	...done.

--------------------------------------------------------------
User input:
--------------------------------------------------------------
$molecule
0 1
C      1.9839655798    2.8343873569   -0.6530035790
C      2.0889665948    1.3399289492   -0.2973932582
C      3.4017166944    0.7321441035   -0.8222227424
C      4.6254659785    1.5200300416   -0.3255741318
C      4.5210827926    3.0122209378   -0.6783481608
C      3.2094896156    3.6188525050   -0.1554554411
H      3.4653882129   -0.3186255299   -0.5134835234
H      2.0538505535    1.2303619181    0.7916336585
H      1.9041773336    2.9373830819   -1.7471760654
H      1.0604862058    3.2447823031   -0.2264495779
H      4.7056113531    1.4098609561    0.7662015896
H      5.5416784391    1.0893334561   -0.7496610014
H      5.3807748665    3.5587419877   -0.2692766409
H      4.5659637339    3.1311627355   -1.7719372538
H      3.2192612515    3.6121018079    0.9447339030
H      3.1260878858    4.6703627905   -0.4590864625
H      3.3863457527    0.7409636912   -1.9242196110
N      0.9315723625    0.5939302253   -0.7942938700
H      0.8024957372    0.5217251348   -1.7968919912
C      0.0000000000    0.0000000000    0.0000000000
H     -0.7899738588   -0.5065817117   -0.5873052394
O     -0.0000000000    0.0000000000    1.2238135054
$end

$rem
JOBTYPE  OPT
METHOD  B3LYP
BASIS  6-31+G(D)
SYMMETRY  FALSE
SYM_IGNORE  TRUE
MEM_TOTAL  8000
MEM_STATIC  2000
MAX_SUB_FILE_NUM  16000
BASIS_LIN_DEP_THRESH  6
THRESH  14
SCF_CONVERGENCE  9
GEN_SCFMAN  TRUE
SCF_GUESS  SAD
FD_MAT_VEC_PROD  FALSE
XC_GRID  000099000590
NL_GRID  1
MAX_SCF_CYCLES  200
GEOM_OPT_TOL_GRADIENT  100
GEOM_OPT_TOL_DISPLACEMENT  100
GEOM_OPT_TOL_ENERGY  10
$end

$multipole_field
Z   0.011669
$end


--------------------------------------------------------------
 ----------------------------------------------------------------
             Standard Nuclear Orientation (Angstroms)
    I     Atom           X                Y                Z
 ----------------------------------------------------------------
    1      C       1.9839655798     2.8343873569    -0.6530035790
    2      C       2.0889665948     1.3399289492    -0.2973932582
    3      C       3.4017166944     0.7321441035    -0.8222227424
    4      C       4.6254659785     1.5200300416    -0.3255741318
    5      C       4.5210827926     3.0122209378    -0.6783481608
    6      C       3.2094896156     3.6188525050    -0.1554554411
    7      H       3.4653882129    -0.3186255299    -0.5134835234
    8      H       2.0538505535     1.2303619181     0.7916336585
    9      H       1.9041773336     2.9373830819    -1.7471760654
   10      H       1.0604862058     3.2447823031    -0.2264495779
   11      H       4.7056113531     1.4098609561     0.7662015896
   12      H       5.5416784391     1.0893334561    -0.7496610014
   13      H       5.3807748665     3.5587419877    -0.2692766409
   14      H       4.5659637339     3.1311627355    -1.7719372538
   15      H       3.2192612515     3.6121018079     0.9447339030
   16      H       3.1260878858     4.6703627905    -0.4590864625
   17      H       3.3863457527     0.7409636912    -1.9242196110
   18      N       0.9315723625     0.5939302253    -0.7942938700
   19      H       0.8024957372     0.5217251348    -1.7968919912
   20      C       0.0000000000     0.0000000000     0.0000000000
   21      H      -0.7899738588    -0.5065817117    -0.5873052394
   22      O       0.0000000000     0.0000000000     1.2238135054
 ----------------------------------------------------------------
 Nuclear Repulsion Energy =         466.63298041 hartrees
 There are       35 alpha and       35 beta electrons
 Requested basis set is 6-31+G(d)
 There are 71 shells and 197 basis functions

 Total QAlloc Memory Limit   8000 MB
 Mega-Array Size      1956 MB
 MEM_STATIC part      2000 MB
 Applying Cartesian multipole field
    Component          Value
    ---------          -----
     (0,0,1)        1.16690E-02
 Nucleus-field energy     =    -0.4609685289 hartrees
 A cutoff of  1.0D-14 yielded   2413 shell pairs
 There are     18998 function pairs
 Smallest overlap matrix eigenvalue = 2.48E-05
 Guess from superposition of atomic densities
 Warning:  Energy on first SCF cycle will be non-variational
 SAD guess density has 70.000000 electrons

 -----------------------------------------------------------------------
  General SCF calculation program by
  Eric Jon Sundstrom, Paul Horn, Yuezhi Mao, Dmitri Zuev, Alec White,
  David Stuck, Shaama M.S., Shane Yost, Joonho Lee, David Small,
  Daniel Levine, Susi Lehtola, Hugh Burton, Evgeny Epifanovsky,
  Bang C. Huynh
 -----------------------------------------------------------------------
 Exchange:     0.2000 Hartree-Fock + 0.0800 Slater + 0.7200 B88
 Correlation:  0.1900 VWN1RPA + 0.8100 LYP
 Using Euler-Maclaurin-Lebedev (99,590) quadrature formula
 using 16 threads for integral computing
 -------------------------------------------------------
 OpenMP Integral computing Module                
 Release: version 2.0, May 2017, Q-Chem Inc. Pleasanton 
 -------------------------------------------------------
 A restricted SCF calculation will be
 performed using DIIS
 SCF converges when DIIS error is below 1.0e-09
 ---------------------------------------
  Cycle       Energy         DIIS error
 ---------------------------------------
    1    -406.2319506875      5.08e-02  
    2    -404.3871121303      6.87e-03  
    3    -403.9384020032      1.26e-02  
    4    -404.5790378736      2.67e-03  
    5    -404.6073214478      7.20e-04  
    6    -404.6093325192      2.40e-04  
    7    -404.6095660834      7.68e-05  
    8    -404.6095907850      1.48e-05  
    9    -404.6095916981      4.62e-06  
   10    -404.6095917868      8.95e-07  
   11    -404.6095917901      3.20e-07  
   12    -404.6095917906      6.26e-08  
   13    -404.6095917906      1.63e-08  
   14    -404.6095917906      4.14e-09  
   15    -404.6095917906      1.26e-09  
   16    -404.6095917906      3.48e-10  Convergence criterion met
 ---------------------------------------
 SCF time:   CPU 727.80s  wall 45.00s 
 SCF   energy in the final basis set =     -404.6095917906
 Total energy in the final basis set =     -404.6095917906
 
 --------------------------------------------------------------
 
                    Orbital Energies (a.u.)
 --------------------------------------------------------------
 
 Alpha MOs
 -- Occupied --
-19.1305 -14.3665 -10.2903 -10.2260 -10.1870 -10.1853 -10.1828 -10.1817
-10.1790  -1.0409  -0.9284  -0.8257  -0.7438  -0.7424  -0.6351  -0.6139
 -0.5908  -0.5658  -0.5243  -0.4832  -0.4608  -0.4439  -0.4393  -0.4182
 -0.4166  -0.3973  -0.3807  -0.3748  -0.3474  -0.3467  -0.3247  -0.3145
 -0.3112  -0.2659  -0.2563
 -- Virtual --
 -0.0145   0.0131   0.0161   0.0163   0.0276   0.0398   0.0477   0.0499
  0.0600   0.0706   0.0717   0.0856   0.0867   0.0910   0.1071   0.1123
  0.1171   0.1200   0.1333   0.1337   0.1416   0.1518   0.1635   0.1650
  0.1716   0.1802   0.1822   0.1902   0.1997   0.2083   0.2147   0.2166
  0.2234   0.2275   0.2289   0.2465   0.2484   0.2594   0.2726   0.2772
  0.2810   0.2813   0.2911   0.2915   0.2990   0.3059   0.3118   0.3291
  0.3296   0.3351   0.3614   0.3729   0.3831   0.3900   0.4179   0.4195
  0.4407   0.4579   0.4930   0.6103   0.6388   0.6571   0.6640   0.6684
  0.6815   0.6959   0.7296   0.7332   0.7489   0.7522   0.7773   0.7827
  0.8029   0.8055   0.8211   0.8487   0.8623   0.9095   0.9538   0.9742
  0.9808   0.9885   1.0183   1.0281   1.0309   1.0579   1.0896   1.1064
  1.1195   1.1236   1.1247   1.1458   1.1562   1.1726   1.1824   1.1871
  1.2390   1.2514   1.2862   1.3308   1.3434   1.3718   1.3908   1.4172
  1.4818   1.4911   1.4932   1.5688   1.5716   1.6131   1.7010   1.7295
  1.7331   1.7560   1.7705   1.8069   1.8535   1.8711   1.9013   1.9060
  1.9108   1.9400   1.9820   2.0114   2.0163   2.0457   2.0546   2.0885
  2.0922   2.1300   2.2013   2.2222   2.2791   2.3124   2.3135   2.3489
  2.4012   2.4104   2.4174   2.4210   2.4504   2.5638   2.5876   2.6254
  2.6716   2.6853   2.7047   2.7603   2.7772   2.8337   2.8694   3.0117
  3.1889   4.0935   4.1955   4.2348   4.2926   4.3337   4.4199   4.6009
  4.6063   4.6734
 --------------------------------------------------------------
 
          Ground-State Mulliken Net Atomic Charges

     Atom                 Charge (a.u.)
  ----------------------------------------
      1 C                    -0.229674
      2 C                    -0.479759
      3 C                    -0.246518
      4 C                    -0.460429
      5 C                    -0.340061
      6 C                    -0.465672
      7 H                     0.203472
      8 H                     0.210005
      9 H                     0.234052
     10 H                     0.198752
     11 H                     0.165119
     12 H                     0.214889
     13 H                     0.183720
     14 H                     0.237317
     15 H                     0.164226
     16 H                     0.209291
     17 H                     0.234355
     18 N                    -0.393518
     19 H                     0.429711
     20 C                     0.317654
     21 H                     0.165707
     22 O                    -0.552641
  ----------------------------------------
  Sum of atomic charges =     0.000000

 -----------------------------------------------------------------
                    Cartesian Multipole Moments
 -----------------------------------------------------------------
    Charge (ESU x 10^10)
                -0.0000
    Dipole Moment (Debye)
         X       1.8357      Y       1.1789      Z      -6.1807
       Tot       6.5544
    Quadrupole Moments (Debye-Ang)
        XX     -51.2328     XY       3.5654     YY     -54.6311
        XZ      -5.9278     YZ      -3.9204     ZZ     -56.3343
    Octopole Moments (Debye-Ang^2)
       XXX    -391.9548    XXY     -80.8780    XYY    -130.0214
       YYY    -263.5469    XXZ      -5.3640    XYZ     -13.2473
       YYZ       6.1729    XZZ    -127.2392    YZZ     -83.9353
       ZZZ      31.4314
    Hexadecapole Moments (Debye-Ang^3)
      XXXX   -2977.7878   XXXY    -848.1422   XXYY    -744.4831
      XYYY    -859.7298   YYYY   -1515.4932   XXXZ     112.0820
      XXYZ      -3.4576   XYYZ      32.1037   YYYZ      85.4327
      XXZZ    -526.2523   XYZZ    -276.4780   YYZZ    -290.6959
      XZZZ     179.2208   YZZZ     107.0550   ZZZZ    -245.8381
 -----------------------------------------------------------------
 Calculating analytic gradient of the SCF energy
 Gradient of SCF Energy
            1           2           3           4           5           6
    1   0.0001884  -0.0006466   0.0001320   0.0000253   0.0001294   0.0000264
    2   0.0000748  -0.0002680   0.0000085  -0.0001743   0.0000617  -0.0000763
    3   0.0020950   0.0005837   0.0021286   0.0021574   0.0015264   0.0022259
            7           8           9          10          11          12
    1  -0.0000314  -0.0000118  -0.0000302   0.0005434   0.0000777   0.0005995
    2   0.0003370   0.0000712  -0.0003840  -0.0002653   0.0001468  -0.0002637
    3   0.0004809  -0.0008277  -0.0017382   0.0003132  -0.0025418   0.0004459
           13          14          15          16          17          18
    1  -0.0005482  -0.0001762  -0.0000265   0.0000213  -0.0005180   0.0048154
    2  -0.0003849   0.0000262   0.0003659   0.0003520   0.0003796   0.0028340
    3   0.0003695  -0.0017516  -0.0026275   0.0005783  -0.0017222  -0.0059267
           19          20          21          22
    1   0.0002830  -0.0039730  -0.0012248   0.0003448
    2   0.0002610  -0.0025248  -0.0007923   0.0002150
    3   0.0015643   0.0197257  -0.0008875  -0.0161717
 Max gradient component =       1.973E-02
 RMS gradient           =       3.466E-03
 Gradient time:  CPU 135.25 s  wall 8.73 s
 Geometry Optimization Parameters
   NAtoms,    NIC,     NZ,  NCons,   NDum,   NFix, NCnnct, MaxDiis
       22     172       0       0       0       0       0       0


** GEOMETRY OPTIMIZATION IN DELOCALIZED INTERNAL COORDINATES **
   Searching for a Minimum

   Optimization Cycle:   1

                       Coordinates (Angstroms)
     ATOM                X               Y               Z
      1  C         1.9839655798    2.8343873569   -0.6530035790
      2  C         2.0889665948    1.3399289492   -0.2973932582
      3  C         3.4017166944    0.7321441035   -0.8222227424
      4  C         4.6254659785    1.5200300416   -0.3255741318
      5  C         4.5210827926    3.0122209378   -0.6783481608
      6  C         3.2094896156    3.6188525050   -0.1554554411
      7  H         3.4653882129   -0.3186255299   -0.5134835234
      8  H         2.0538505535    1.2303619181    0.7916336585
      9  H         1.9041773336    2.9373830819   -1.7471760654
     10  H         1.0604862058    3.2447823031   -0.2264495779
     11  H         4.7056113531    1.4098609561    0.7662015896
     12  H         5.5416784391    1.0893334561   -0.7496610014
     13  H         5.3807748665    3.5587419877   -0.2692766409
     14  H         4.5659637339    3.1311627355   -1.7719372538
     15  H         3.2192612515    3.6121018079    0.9447339030
     16  H         3.1260878858    4.6703627905   -0.4590864625
     17  H         3.3863457527    0.7409636912   -1.9242196110
     18  N         0.9315723625    0.5939302253   -0.7942938700
     19  H         0.8024957372    0.5217251348   -1.7968919912
     20  C         0.0000000000    0.0000000000    0.0000000000
     21  H        -0.7899738588   -0.5065817117   -0.5873052394
     22  O         0.0000000000    0.0000000000    1.2238135054
   Point Group: c1    Number of degrees of freedom:    60


   Energy is   -404.609591791


 Attempting to generate delocalized internal coordinates
 Initial Hessian constructed with Jon Baker's OPTIMIZE code

 60 Hessian modes will be used to form the next step
  Hessian Eigenvalues:
     0.005967    0.006024    0.006964    0.007193    0.012605    0.019501
     0.019786    0.020845    0.020845    0.037215    0.038526    0.039417
     0.041724    0.048166    0.048450    0.048891    0.055292    0.055631
     0.055746    0.059934    0.066958    0.081508    0.081536    0.081616
     0.082032    0.082133    0.084029    0.087513    0.120967    0.121178
     0.142989    0.159989    0.160000    0.160554    0.174868    0.210947
     0.220000    0.220003    0.272263    0.272658    0.275535    0.286789
     0.287121    0.287175    0.329119    0.334466    0.334727    0.335769
     0.336541    0.336553    0.339301    0.339441    0.339454    0.340119
     0.340274    0.342312    0.364811    0.454000    0.528079    0.937134

 Minimum search - taking simple RFO step
 Searching for Lamda that Minimizes Along All modes
 Value Taken    Lamda =  -0.00060117
 Step Taken.  Stepsize is  0.122625

                             Maximum     Tolerance    Cnvgd?
         Gradient           0.009075      0.000100      NO
         Displacement       0.044092      0.000100      NO
         Energy change     *********      0.000000      NO


 New Cartesian Coordinates Obtained by Inverse Iteration

 Displacement from previous Coordinates is:  0.230699
 ----------------------------------------------------------------
             Standard Nuclear Orientation (Angstroms)
    I     Atom           X                Y                Z
 ----------------------------------------------------------------
    1      C       1.9837302693     2.8331694629    -0.6745130446
    2      C       2.0904452446     1.3401649165    -0.3131975460
    3      C       3.4017172890     0.7339481710    -0.8443027112
    4      C       4.6206490310     1.5151236390    -0.3257583267
    5      C       4.5226897868     3.0126008164    -0.6600366726
    6      C       3.2015360357     3.6152373742    -0.1548179533
    7      H       3.4626667383    -0.3220137003    -0.5521738920
    8      H       2.0649874724     1.2366874209     0.7779221950
    9      H       1.9215137194     2.9395960258    -1.7668116779
   10      H       1.0519994825     3.2430227518    -0.2639701042
   11      H       4.6893594501     1.3896610188     0.7692747117
   12      H       5.5386329978     1.0900118490    -0.7497789660
   13      H       5.3771897730     3.5548452359    -0.2325671960
   14      H       4.5874480548     3.1449601918    -1.7481513776
   15      H       3.1932475200     3.6020007181     0.9495681333
   16      H       3.1221394292     4.6668071684    -0.4581728823
   17      H       3.3963589301     0.7571350870    -1.9434448278
   18      N       0.9268203638     0.5896558957    -0.7877978995
   19      H       0.7852159768     0.5050779665    -1.7897484967
   20      C       0.0096722821     0.0080362439     0.0211917559
   21      H      -0.7844012223    -0.5026385804    -0.5520386485
   22      O       0.0207884605     0.0199770677     1.2539295334
 ----------------------------------------------------------------
 Nuclear Repulsion Energy =         466.65755224 hartrees
 There are       35 alpha and       35 beta electrons
 Applying Cartesian multipole field
    Component          Value
    ---------          -----
     (0,0,1)        1.16690E-02
 Nucleus-field energy     =    -0.4576034674 hartrees
 Requested basis set is 6-31+G(d)
 There are 71 shells and 197 basis functions
 A cutoff of  1.0D-14 yielded   2412 shell pairs
 There are     18997 function pairs
 Smallest overlap matrix eigenvalue = 2.52E-05
 Guess MOs from SCF MO coefficient file

 -----------------------------------------------------------------------
  General SCF calculation program by
  Eric Jon Sundstrom, Paul Horn, Yuezhi Mao, Dmitri Zuev, Alec White,
  David Stuck, Shaama M.S., Shane Yost, Joonho Lee, David Small,
  Daniel Levine, Susi Lehtola, Hugh Burton, Evgeny Epifanovsky,
  Bang C. Huynh
 -----------------------------------------------------------------------
 Exchange:     0.2000 Hartree-Fock + 0.0800 Slater + 0.7200 B88
 Correlation:  0.1900 VWN1RPA + 0.8100 LYP
 Using Euler-Maclaurin-Lebedev (99,590) quadrature formula
 using 16 threads for integral computing
 -------------------------------------------------------
 OpenMP Integral computing Module                
 Release: version 2.0, May 2017, Q-Chem Inc. Pleasanton 
 -------------------------------------------------------
 A restricted SCF calculation will be
 performed using DIIS
 SCF converges when DIIS error is below 1.0e-09
 ---------------------------------------
  Cycle       Energy         DIIS error
 ---------------------------------------
    1    -404.6091519518      3.05e-04  
    2    -404.6099359656      5.12e-05  
    3    -404.6099335721      6.50e-05  
    4    -404.6099478104      2.22e-05  
    5    -404.6099496210      6.23e-06  
    6    -404.6099497856      1.01e-06  
    7    -404.6099497888      5.74e-07  
    8    -404.6099497902      6.54e-08  
    9    -404.6099497903      3.33e-08  
   10    -404.6099497903      3.66e-09  
   11    -404.6099497903      1.15e-09  
   12    -404.6099497903      4.24e-10  Convergence criterion met
 ---------------------------------------
 SCF time:   CPU 538.21s  wall 33.00s 
 SCF   energy in the final basis set =     -404.6099497903
 Total energy in the final basis set =     -404.6099497903
 
 --------------------------------------------------------------
 
                    Orbital Energies (a.u.)
 --------------------------------------------------------------
 
 Alpha MOs
 -- Occupied --
-19.1299 -14.3685 -10.2905 -10.2263 -10.1877 -10.1859 -10.1828 -10.1818
-10.1793  -1.0365  -0.9298  -0.8264  -0.7440  -0.7430  -0.6365  -0.6138
 -0.5918  -0.5661  -0.5251  -0.4835  -0.4602  -0.4446  -0.4395  -0.4175
 -0.4157  -0.3972  -0.3811  -0.3735  -0.3475  -0.3470  -0.3248  -0.3153
 -0.3112  -0.2652  -0.2570
 -- Virtual --
 -0.0141   0.0124   0.0159   0.0163   0.0272   0.0396   0.0476   0.0495
  0.0599   0.0706   0.0718   0.0854   0.0865   0.0911   0.1068   0.1123
  0.1171   0.1191   0.1335   0.1337   0.1419   0.1515   0.1633   0.1649
  0.1718   0.1799   0.1811   0.1900   0.1992   0.2085   0.2153   0.2170
  0.2230   0.2272   0.2284   0.2465   0.2485   0.2597   0.2709   0.2758
  0.2807   0.2812   0.2907   0.2916   0.2987   0.3064   0.3108   0.3300
  0.3304   0.3346   0.3602   0.3733   0.3836   0.3907   0.4173   0.4195
  0.4387   0.4598   0.4889   0.6100   0.6382   0.6579   0.6641   0.6689
  0.6814   0.6960   0.7292   0.7326   0.7495   0.7524   0.7775   0.7809
  0.8018   0.8052   0.8207   0.8493   0.8624   0.9100   0.9546   0.9740
  0.9809   0.9883   1.0177   1.0274   1.0292   1.0551   1.0884   1.1040
  1.1180   1.1233   1.1248   1.1472   1.1545   1.1728   1.1843   1.1878
  1.2391   1.2512   1.2862   1.3331   1.3450   1.3740   1.3899   1.4195
  1.4791   1.4879   1.4943   1.5655   1.5709   1.6131   1.7053   1.7302
  1.7321   1.7531   1.7717   1.8070   1.8524   1.8691   1.9026   1.9048
  1.9112   1.9401   1.9842   2.0101   2.0169   2.0461   2.0542   2.0858
  2.0890   2.1299   2.2027   2.2216   2.2802   2.3110   2.3137   2.3461
  2.3993   2.4099   2.4159   2.4182   2.4504   2.5641   2.5873   2.6220
  2.6720   2.6840   2.7015   2.7608   2.7784   2.8335   2.8683   3.0038
  3.1872   4.0943   4.1961   4.2329   4.2915   4.3328   4.4182   4.6023
  4.6073   4.6736
 --------------------------------------------------------------
 
          Ground-State Mulliken Net Atomic Charges

     Atom                 Charge (a.u.)
  ----------------------------------------
      1 C                    -0.229879
      2 C                    -0.493929
      3 C                    -0.248507
      4 C                    -0.456949
      5 C                    -0.339476
      6 C                    -0.462026
      7 H                     0.204364
      8 H                     0.211413
      9 H                     0.235350
     10 H                     0.199680
     11 H                     0.164869
     12 H                     0.214863
     13 H                     0.183241
     14 H                     0.237682
     15 H                     0.163913
     16 H                     0.209165
     17 H                     0.235881
     18 N                    -0.383205
     19 H                     0.430102
     20 C                     0.317922
     21 H                     0.165692
     22 O                    -0.560169
  ----------------------------------------
  Sum of atomic charges =     0.000000

 -----------------------------------------------------------------
                    Cartesian Multipole Moments
 -----------------------------------------------------------------
    Charge (ESU x 10^10)
                -0.0000
    Dipole Moment (Debye)
         X       1.8386      Y       1.1630      Z      -6.3165
       Tot       6.6807
    Quadrupole Moments (Debye-Ang)
        XX     -51.1295     XY       3.6135     YY     -54.5751
        XZ      -6.1118     YZ      -4.0465     ZZ     -56.5523
    Octopole Moments (Debye-Ang^2)
       XXX    -391.7386    XXY     -80.7457    XYY    -129.9304
       YYY    -263.5692    XXZ      -5.9826    XYZ     -13.4068
       YYZ       5.7249    XZZ    -127.2840    YZZ     -84.0910
       ZZZ      30.4496
    Hexadecapole Moments (Debye-Ang^3)
      XXXX   -2973.2039   XXXY    -845.9133   XXYY    -742.9526
      XYYY    -858.1155   YYYY   -1513.0847   XXXZ     110.1726
      XXYZ      -4.3330   XYYZ      31.3683   YYYZ      84.2707
      XXZZ    -525.7952   XYZZ    -275.8381   YYZZ    -290.8904
      XZZZ     179.2936   YZZZ     106.9258   ZZZZ    -250.7474
 -----------------------------------------------------------------
 Calculating analytic gradient of the SCF energy
 Gradient of SCF Energy
            1           2           3           4           5           6
    1   0.0002890  -0.0003931   0.0004965  -0.0002658   0.0003343  -0.0002311
    2   0.0002939  -0.0001675   0.0001210  -0.0001609   0.0002225  -0.0002303
    3   0.0001241  -0.0000584   0.0001479  -0.0000657   0.0002147  -0.0000397
            7           8           9          10          11          12
    1  -0.0001041  -0.0003038  -0.0000037  -0.0000433   0.0000170   0.0000063
    2   0.0000238  -0.0001755   0.0000012  -0.0000843   0.0000172  -0.0000910
    3   0.0000134  -0.0000463  -0.0000412  -0.0000009   0.0000772   0.0001123
           13          14          15          16          17          18
    1  -0.0000196  -0.0000123   0.0000114  -0.0000986   0.0000007   0.0015711
    2  -0.0000048  -0.0000158   0.0000085   0.0000351   0.0000024   0.0009444
    3   0.0000693   0.0001671   0.0000585   0.0001090  -0.0000471  -0.0020219
           19          20          21          22
    1   0.0000519  -0.0014272   0.0001241   0.0000005
    2   0.0001019  -0.0009527   0.0000846   0.0000262
    3  -0.0000676   0.0061898  -0.0009913  -0.0039034
 Max gradient component =       6.190E-03
 RMS gradient           =       1.002E-03
 Gradient time:  CPU 136.38 s  wall 8.57 s
 Geometry Optimization Parameters
   NAtoms,    NIC,     NZ,  NCons,   NDum,   NFix, NCnnct, MaxDiis
       22     172       0       0       0       0       0       0

 Cartesian Hessian Update
 Hessian updated using BFGS update


** GEOMETRY OPTIMIZATION IN DELOCALIZED INTERNAL COORDINATES **
   Searching for a Minimum

   Optimization Cycle:   2

                       Coordinates (Angstroms)
     ATOM                X               Y               Z
      1  C         1.9837302693    2.8331694629   -0.6745130446
      2  C         2.0904452446    1.3401649165   -0.3131975460
      3  C         3.4017172890    0.7339481710   -0.8443027112
      4  C         4.6206490310    1.5151236390   -0.3257583267
      5  C         4.5226897868    3.0126008164   -0.6600366726
      6  C         3.2015360357    3.6152373742   -0.1548179533
      7  H         3.4626667383   -0.3220137003   -0.5521738920
      8  H         2.0649874724    1.2366874209    0.7779221950
      9  H         1.9215137194    2.9395960258   -1.7668116779
     10  H         1.0519994825    3.2430227518   -0.2639701042
     11  H         4.6893594501    1.3896610188    0.7692747117
     12  H         5.5386329978    1.0900118490   -0.7497789660
     13  H         5.3771897730    3.5548452359   -0.2325671960
     14  H         4.5874480548    3.1449601918   -1.7481513776
     15  H         3.1932475200    3.6020007181    0.9495681333
     16  H         3.1221394292    4.6668071684   -0.4581728823
     17  H         3.3963589301    0.7571350870   -1.9434448278
     18  N         0.9268203638    0.5896558957   -0.7877978995
     19  H         0.7852159768    0.5050779665   -1.7897484967
     20  C         0.0096722821    0.0080362439    0.0211917559
     21  H        -0.7844012223   -0.5026385804   -0.5520386485
     22  O         0.0207884605    0.0199770677    1.2539295334
   Point Group: c1    Number of degrees of freedom:    60


   Energy is   -404.609949790

 Hessian updated using BFGS update

 60 Hessian modes will be used to form the next step
  Hessian Eigenvalues:
     0.005808    0.005976    0.006922    0.007189    0.012603    0.019500
     0.019753    0.020845    0.020850    0.037130    0.038522    0.039416
     0.041742    0.048204    0.048450    0.048873    0.055294    0.055726
     0.055978    0.060118    0.066958    0.081155    0.081533    0.081607
     0.082032    0.082133    0.084226    0.087503    0.120967    0.121310
     0.142961    0.159874    0.160102    0.161845    0.174908    0.210959
     0.219903    0.222671    0.272003    0.272684    0.275537    0.286838
     0.287031    0.287438    0.327980    0.334531    0.334854    0.335947
     0.336546    0.339250    0.339418    0.339435    0.340112    0.340178
     0.341787    0.345356    0.366059    0.454076    0.483932    0.831074

 Minimum search - taking simple RFO step
 Searching for Lamda that Minimizes Along All modes
 Value Taken    Lamda =  -0.00006014
 Step Taken.  Stepsize is  0.047426

                             Maximum     Tolerance    Cnvgd?
         Gradient           0.002613      0.000100      NO
         Displacement       0.019929      0.000100      NO
         Energy change     -0.000358      0.000000      NO


 New Cartesian Coordinates Obtained by Inverse Iteration

 Displacement from previous Coordinates is:  0.080714
 ----------------------------------------------------------------
             Standard Nuclear Orientation (Angstroms)
    I     Atom           X                Y                Z
 ----------------------------------------------------------------
    1      C       1.9837758186     2.8325021011    -0.6815017898
    2      C       2.0911785123     1.3404093363    -0.3176010427
    3      C       3.4010085995     0.7348989335    -0.8518126459
    4      C       4.6189415277     1.5134568505    -0.3259563391
    5      C       4.5225282271     3.0122577493    -0.6540499448
    6      C       3.1990651739     3.6144525364    -0.1547675926
    7      H       3.4621246596    -0.3226598439    -0.5653703924
    8      H       2.0719999467     1.2406615907     0.7740300608
    9      H       1.9276257976     2.9387052016    -1.7739338717
   10      H       1.0501118983     3.2429541771    -0.2759489480
   11      H       4.6830771486     1.3825549879     0.7689363403
   12      H       5.5385061219     1.0908602966    -0.7488155756
   13      H       5.3743777327     3.5520145660    -0.2178965814
   14      H       4.5954412289     3.1500925856    -1.7409264338
   15      H       3.1842932553     3.5990963026     0.9497724500
   16      H       3.1223323707     4.6663790812    -0.4572460633
   17      H       3.3976729794     0.7643372931    -1.9505714508
   18      N       0.9251990505     0.5879674378    -0.7853529726
   19      H       0.7811418518     0.4985657154    -1.7867194146
   20      C       0.0119032477     0.0107227858     0.0258751974
   21      H      -0.7858153824    -0.5041256400    -0.5371392353
   22      O       0.0279173186     0.0269626960     1.2616003523
 ----------------------------------------------------------------
 Nuclear Repulsion Energy =         466.71756625 hartrees
 There are       35 alpha and       35 beta electrons
 Applying Cartesian multipole field
    Component          Value
    ---------          -----
     (0,0,1)        1.16690E-02
 Nucleus-field energy     =    -0.4570198380 hartrees
 Requested basis set is 6-31+G(d)
 There are 71 shells and 197 basis functions
 A cutoff of  1.0D-14 yielded   2413 shell pairs
 There are     19013 function pairs
 Smallest overlap matrix eigenvalue = 2.52E-05
 Guess MOs from SCF MO coefficient file

 -----------------------------------------------------------------------
  General SCF calculation program by
  Eric Jon Sundstrom, Paul Horn, Yuezhi Mao, Dmitri Zuev, Alec White,
  David Stuck, Shaama M.S., Shane Yost, Joonho Lee, David Small,
  Daniel Levine, Susi Lehtola, Hugh Burton, Evgeny Epifanovsky,
  Bang C. Huynh
 -----------------------------------------------------------------------
 Exchange:     0.2000 Hartree-Fock + 0.0800 Slater + 0.7200 B88
 Correlation:  0.1900 VWN1RPA + 0.8100 LYP
 Using Euler-Maclaurin-Lebedev (99,590) quadrature formula
 using 16 threads for integral computing
 -------------------------------------------------------
 OpenMP Integral computing Module                
 Release: version 2.0, May 2017, Q-Chem Inc. Pleasanton 
 -------------------------------------------------------
 A restricted SCF calculation will be
 performed using DIIS
 SCF converges when DIIS error is below 1.0e-09
 ---------------------------------------
  Cycle       Energy         DIIS error
 ---------------------------------------
    1    -404.6098766747      1.10e-04  
    2    -404.6099782655      2.72e-05  
    3    -404.6099725923      4.86e-05  
    4    -404.6099811034      7.13e-06  
    5    -404.6099813131      2.06e-06  
    6    -404.6099813315      4.09e-07  
    7    -404.6099813321      1.73e-07  
    8    -404.6099813322      3.04e-08  
    9    -404.6099813322      7.86e-09  
   10    -404.6099813322      2.26e-09  
   11    -404.6099813322      6.39e-10  Convergence criterion met
 ---------------------------------------
 SCF time:   CPU 488.11s  wall 31.00s 
 SCF   energy in the final basis set =     -404.6099813322
 Total energy in the final basis set =     -404.6099813322
 
 --------------------------------------------------------------
 
                    Orbital Energies (a.u.)
 --------------------------------------------------------------
 
 Alpha MOs
 -- Occupied --
-19.1291 -14.3691 -10.2904 -10.2266 -10.1878 -10.1860 -10.1828 -10.1819
-10.1795  -1.0349  -0.9302  -0.8268  -0.7441  -0.7434  -0.6368  -0.6138
 -0.5921  -0.5662  -0.5256  -0.4839  -0.4600  -0.4449  -0.4395  -0.4173
 -0.4152  -0.3973  -0.3812  -0.3729  -0.3476  -0.3471  -0.3248  -0.3155
 -0.3112  -0.2646  -0.2572
 -- Virtual --
 -0.0141   0.0123   0.0159   0.0163   0.0272   0.0395   0.0475   0.0494
  0.0598   0.0706   0.0718   0.0853   0.0865   0.0911   0.1067   0.1123
  0.1171   0.1188   0.1336   0.1337   0.1421   0.1515   0.1632   0.1649
  0.1720   0.1796   0.1809   0.1900   0.1991   0.2085   0.2154   0.2171
  0.2228   0.2273   0.2282   0.2465   0.2485   0.2598   0.2705   0.2756
  0.2803   0.2813   0.2905   0.2918   0.2987   0.3065   0.3105   0.3302
  0.3311   0.3346   0.3599   0.3734   0.3843   0.3909   0.4171   0.4197
  0.4385   0.4605   0.4877   0.6099   0.6380   0.6581   0.6639   0.6689
  0.6813   0.6961   0.7290   0.7324   0.7498   0.7525   0.7776   0.7806
  0.8016   0.8053   0.8205   0.8496   0.8627   0.9099   0.9543   0.9740
  0.9809   0.9883   1.0176   1.0274   1.0289   1.0542   1.0877   1.1036
  1.1177   1.1231   1.1251   1.1474   1.1544   1.1728   1.1851   1.1881
  1.2391   1.2513   1.2866   1.3340   1.3458   1.3749   1.3894   1.4202
  1.4784   1.4874   1.4948   1.5641   1.5709   1.6122   1.7056   1.7307
  1.7315   1.7527   1.7724   1.8071   1.8524   1.8692   1.9025   1.9051
  1.9114   1.9402   1.9850   2.0096   2.0173   2.0464   2.0537   2.0853
  2.0885   2.1306   2.2028   2.2211   2.2813   2.3111   2.3148   2.3452
  2.3985   2.4095   2.4155   2.4183   2.4506   2.5636   2.5875   2.6207
  2.6723   2.6837   2.7007   2.7612   2.7795   2.8333   2.8674   3.0011
  3.1872   4.0946   4.1964   4.2323   4.2911   4.3327   4.4170   4.6031
  4.6078   4.6736
 --------------------------------------------------------------
 
          Ground-State Mulliken Net Atomic Charges

     Atom                 Charge (a.u.)
  ----------------------------------------
      1 C                    -0.228785
      2 C                    -0.499850
      3 C                    -0.248372
      4 C                    -0.455411
      5 C                    -0.340140
      6 C                    -0.460534
      7 H                     0.204677
      8 H                     0.212146
      9 H                     0.235629
     10 H                     0.199998
     11 H                     0.165031
     12 H                     0.214856
     13 H                     0.182909
     14 H                     0.237770
     15 H                     0.164061
     16 H                     0.209170
     17 H                     0.236211
     18 N                    -0.379910
     19 H                     0.430217
     20 C                     0.317295
     21 H                     0.166116
     22 O                    -0.563084
  ----------------------------------------
  Sum of atomic charges =     0.000000

 -----------------------------------------------------------------
                    Cartesian Multipole Moments
 -----------------------------------------------------------------
    Charge (ESU x 10^10)
                 0.0000
    Dipole Moment (Debye)
         X       1.8436      Y       1.1574      Z      -6.3559
       Tot       6.7184
    Quadrupole Moments (Debye-Ang)
        XX     -51.0643     XY       3.6463     YY     -54.5430
        XZ      -6.1502     YZ      -4.0693     ZZ     -56.6276
    Octopole Moments (Debye-Ang^2)
       XXX    -391.5659    XXY     -80.6964    XYY    -129.8677
       YYY    -263.5281    XXZ      -6.0558    XYZ     -13.4071
       YYZ       5.6651    XZZ    -127.2785    YZZ     -84.1446
       ZZZ      30.2172
    Hexadecapole Moments (Debye-Ang^3)
      XXXX   -2971.1044   XXXY    -845.3675   XXYY    -742.4623
      XYYY    -857.4725   YYYY   -1511.9449   XXXZ     110.0892
      XXYZ      -4.4268   XYYZ      31.3203   YYYZ      84.1593
      XXZZ    -525.5613   XYZZ    -275.5825   YYZZ    -290.9193
      XZZZ     179.3321   YZZZ     106.8826   ZZZZ    -252.2064
 -----------------------------------------------------------------
 Calculating analytic gradient of the SCF energy
 Gradient of SCF Energy
            1           2           3           4           5           6
    1   0.0002402  -0.0001764   0.0001662  -0.0000703   0.0000254  -0.0000989
    2   0.0000130  -0.0001058   0.0002116  -0.0000787   0.0000171  -0.0000137
    3  -0.0000636  -0.0001155  -0.0000287  -0.0000780   0.0000489  -0.0000905
            7           8           9          10          11          12
    1  -0.0000230  -0.0000080   0.0000402  -0.0000535  -0.0000452  -0.0000038
    2  -0.0000271   0.0000013   0.0000468   0.0000009  -0.0000306   0.0000073
    3  -0.0000361   0.0000575   0.0000796  -0.0000402   0.0002395   0.0001046
           13          14          15          16          17          18
    1  -0.0000230   0.0000660  -0.0000457  -0.0000015   0.0000618   0.0002834
    2  -0.0000113   0.0000351  -0.0000569   0.0000027   0.0000046   0.0001104
    3   0.0001354   0.0001918   0.0002347   0.0000930   0.0000885  -0.0001677
           19          20          21          22
    1  -0.0000734  -0.0004074   0.0000633   0.0000835
    2  -0.0000303  -0.0000173  -0.0000417  -0.0000373
    3  -0.0001400   0.0002807  -0.0003325  -0.0004613
 Max gradient component =       4.613E-04
 RMS gradient           =       1.344E-04
 Gradient time:  CPU 139.54 s  wall 8.80 s
 Geometry Optimization Parameters
   NAtoms,    NIC,     NZ,  NCons,   NDum,   NFix, NCnnct, MaxDiis
       22     172       0       0       0       0       0       0

 Cartesian Hessian Update
 Hessian updated using BFGS update


** GEOMETRY OPTIMIZATION IN DELOCALIZED INTERNAL COORDINATES **
   Searching for a Minimum

   Optimization Cycle:   3

                       Coordinates (Angstroms)
     ATOM                X               Y               Z
      1  C         1.9837758186    2.8325021011   -0.6815017898
      2  C         2.0911785123    1.3404093363   -0.3176010427
      3  C         3.4010085995    0.7348989335   -0.8518126459
      4  C         4.6189415277    1.5134568505   -0.3259563391
      5  C         4.5225282271    3.0122577493   -0.6540499448
      6  C         3.1990651739    3.6144525364   -0.1547675926
      7  H         3.4621246596   -0.3226598439   -0.5653703924
      8  H         2.0719999467    1.2406615907    0.7740300608
      9  H         1.9276257976    2.9387052016   -1.7739338717
     10  H         1.0501118983    3.2429541771   -0.2759489480
     11  H         4.6830771486    1.3825549879    0.7689363403
     12  H         5.5385061219    1.0908602966   -0.7488155756
     13  H         5.3743777327    3.5520145660   -0.2178965814
     14  H         4.5954412289    3.1500925856   -1.7409264338
     15  H         3.1842932553    3.5990963026    0.9497724500
     16  H         3.1223323707    4.6663790812   -0.4572460633
     17  H         3.3976729794    0.7643372931   -1.9505714508
     18  N         0.9251990505    0.5879674378   -0.7853529726
     19  H         0.7811418518    0.4985657154   -1.7867194146
     20  C         0.0119032477    0.0107227858    0.0258751974
     21  H        -0.7858153824   -0.5041256400   -0.5371392353
     22  O         0.0279173186    0.0269626960    1.2616003523
   Point Group: c1    Number of degrees of freedom:    60


   Energy is   -404.609981332

 Hessian updated using BFGS update

 60 Hessian modes will be used to form the next step
  Hessian Eigenvalues:
     0.005838    0.005974    0.006971    0.007183    0.012604    0.019499
     0.019776    0.020835    0.021194    0.037382    0.038545    0.039418
     0.041815    0.048300    0.048451    0.048993    0.055294    0.055729
     0.055999    0.060119    0.066959    0.080699    0.081534    0.081605
     0.082054    0.082133    0.084088    0.087508    0.120712    0.120968
     0.142958    0.151648    0.160576    0.162257    0.174895    0.210808
     0.219462    0.226188    0.271875    0.272692    0.275538    0.285955
     0.286873    0.287605    0.327332    0.334555    0.334915    0.336036
     0.336546    0.339135    0.339423    0.339437    0.340117    0.340194
     0.341851    0.347413    0.366144    0.454680    0.471767    0.813897

 Minimum search - taking simple RFO step
 Searching for Lamda that Minimizes Along All modes
 Value Taken    Lamda =  -0.00000276
 Step Taken.  Stepsize is  0.009364

                             Maximum     Tolerance    Cnvgd?
         Gradient           0.000308      0.000100      NO
         Displacement       0.004019      0.000100      NO
         Energy change     -0.000032      0.000000      NO


 New Cartesian Coordinates Obtained by Inverse Iteration

 Displacement from previous Coordinates is:  0.015010
 ----------------------------------------------------------------
             Standard Nuclear Orientation (Angstroms)
    I     Atom           X                Y                Z
 ----------------------------------------------------------------
    1      C       1.9833279816     2.8317796485    -0.6810823603
    2      C       2.0918732310     1.3397453271    -0.3173095313
    3      C       3.4014922306     0.7345250514    -0.8522556551
    4      C       4.6193831812     1.5135625752    -0.3264875855
    5      C       4.5222895867     3.0124648494    -0.6538108058
    6      C       3.1986090565     3.6141836601    -0.1545542079
    7      H       3.4633234791    -0.3230437483    -0.5661362647
    8      H       2.0726510526     1.2395291075     0.7741307344
    9      H       1.9270452660     2.9379179286    -1.7736245250
   10      H       1.0497138031     3.2418579933    -0.2751983159
   11      H       4.6838546108     1.3820037369     0.7680677401
   12      H       5.5390632063     1.0916340371    -0.7497979564
   13      H       5.3739024003     3.5522943266    -0.2171606854
   14      H       4.5953207564     3.1507937232    -1.7407175033
   15      H       3.1837225628     3.5990650969     0.9497470350
   16      H       3.1215929466     4.6660364731    -0.4571728070
   17      H       3.3978224507     0.7646077853    -1.9511136982
   18      N       0.9261556627     0.5869735252    -0.7850760183
   19      H       0.7836401516     0.4970279109    -1.7865748724
   20      C       0.0122796822     0.0108050323     0.0257134207
   21      H      -0.7871862398    -0.5016829475    -0.5367652468
   22      O       0.0245300259     0.0309856475     1.2617832151
 ----------------------------------------------------------------
 Nuclear Repulsion Energy =         466.71334932 hartrees
 There are       35 alpha and       35 beta electrons
 Applying Cartesian multipole field
    Component          Value
    ---------          -----
     (0,0,1)        1.16690E-02
 Nucleus-field energy     =    -0.4569519439 hartrees
 Requested basis set is 6-31+G(d)
 There are 71 shells and 197 basis functions
 A cutoff of  1.0D-14 yielded   2413 shell pairs
 There are     19013 function pairs
 Smallest overlap matrix eigenvalue = 2.52E-05
 Guess MOs from SCF MO coefficient file

 -----------------------------------------------------------------------
  General SCF calculation program by
  Eric Jon Sundstrom, Paul Horn, Yuezhi Mao, Dmitri Zuev, Alec White,
  David Stuck, Shaama M.S., Shane Yost, Joonho Lee, David Small,
  Daniel Levine, Susi Lehtola, Hugh Burton, Evgeny Epifanovsky,
  Bang C. Huynh
 -----------------------------------------------------------------------
 Exchange:     0.2000 Hartree-Fock + 0.0800 Slater + 0.7200 B88
 Correlation:  0.1900 VWN1RPA + 0.8100 LYP
 Using Euler-Maclaurin-Lebedev (99,590) quadrature formula
 using 16 threads for integral computing
 -------------------------------------------------------
 OpenMP Integral computing Module                
 Release: version 2.0, May 2017, Q-Chem Inc. Pleasanton 
 -------------------------------------------------------
 A restricted SCF calculation will be
 performed using DIIS
 SCF converges when DIIS error is below 1.0e-09
 ---------------------------------------
  Cycle       Energy         DIIS error
 ---------------------------------------
    1    -404.6099667459      4.01e-05  
    2    -404.6099807008      6.92e-06  
    3    -404.6099805433      1.04e-05  
    4    -404.6099809337      2.85e-06  
    5    -404.6099809651      4.85e-07  
    6    -404.6099809661      1.23e-07  
    7    -404.6099809661      3.05e-08  
    8    -404.6099809661      1.05e-08  
    9    -404.6099809661      3.16e-09  
   10    -404.6099809661      1.07e-09  
   11    -404.6099809661      2.24e-10  Convergence criterion met
 ---------------------------------------
 SCF time:   CPU 490.35s  wall 31.00s 
 SCF   energy in the final basis set =     -404.6099809661
 Total energy in the final basis set =     -404.6099809661
 
 --------------------------------------------------------------
 
                    Orbital Energies (a.u.)
 --------------------------------------------------------------
 
 Alpha MOs
 -- Occupied --
-19.1291 -14.3691 -10.2903 -10.2266 -10.1878 -10.1861 -10.1829 -10.1820
-10.1795  -1.0347  -0.9303  -0.8268  -0.7441  -0.7434  -0.6369  -0.6139
 -0.5922  -0.5662  -0.5256  -0.4839  -0.4600  -0.4449  -0.4395  -0.4173
 -0.4151  -0.3973  -0.3813  -0.3729  -0.3476  -0.3472  -0.3248  -0.3155
 -0.3112  -0.2645  -0.2572
 -- Virtual --
 -0.0141   0.0123   0.0159   0.0163   0.0271   0.0395   0.0475   0.0495
  0.0598   0.0706   0.0718   0.0853   0.0865   0.0911   0.1067   0.1122
  0.1171   0.1189   0.1336   0.1337   0.1421   0.1515   0.1632   0.1649
  0.1720   0.1796   0.1809   0.1900   0.1990   0.2084   0.2154   0.2171
  0.2228   0.2273   0.2282   0.2464   0.2485   0.2597   0.2705   0.2755
  0.2802   0.2813   0.2905   0.2917   0.2987   0.3065   0.3105   0.3301
  0.3311   0.3347   0.3599   0.3733   0.3844   0.3909   0.4171   0.4198
  0.4384   0.4605   0.4876   0.6098   0.6380   0.6581   0.6639   0.6689
  0.6813   0.6961   0.7290   0.7324   0.7495   0.7527   0.7775   0.7806
  0.8014   0.8053   0.8204   0.8496   0.8627   0.9101   0.9542   0.9741
  0.9808   0.9883   1.0176   1.0274   1.0289   1.0543   1.0878   1.1036
  1.1176   1.1231   1.1250   1.1473   1.1544   1.1727   1.1850   1.1881
  1.2392   1.2512   1.2867   1.3341   1.3458   1.3747   1.3892   1.4201
  1.4786   1.4870   1.4948   1.5644   1.5707   1.6124   1.7056   1.7307
  1.7314   1.7528   1.7723   1.8071   1.8523   1.8693   1.9024   1.9053
  1.9113   1.9402   1.9847   2.0096   2.0173   2.0464   2.0539   2.0853
  2.0884   2.1305   2.2028   2.2210   2.2813   2.3111   2.3145   2.3451
  2.3983   2.4094   2.4153   2.4183   2.4506   2.5636   2.5874   2.6207
  2.6723   2.6836   2.7007   2.7611   2.7795   2.8332   2.8673   3.0007
  3.1873   4.0947   4.1964   4.2323   4.2911   4.3327   4.4170   4.6030
  4.6078   4.6735
 --------------------------------------------------------------
 
          Ground-State Mulliken Net Atomic Charges

     Atom                 Charge (a.u.)
  ----------------------------------------
      1 C                    -0.228843
      2 C                    -0.499697
      3 C                    -0.248427
      4 C                    -0.455305
      5 C                    -0.340273
      6 C                    -0.460556
      7 H                     0.204695
      8 H                     0.212126
      9 H                     0.235606
     10 H                     0.200087
     11 H                     0.165082
     12 H                     0.214880
     13 H                     0.182892
     14 H                     0.237758
     15 H                     0.164129
     16 H                     0.209193
     17 H                     0.236178
     18 N                    -0.379801
     19 H                     0.430320
     20 C                     0.317174
     21 H                     0.166136
     22 O                    -0.563352
  ----------------------------------------
  Sum of atomic charges =     0.000000

 -----------------------------------------------------------------
                    Cartesian Multipole Moments
 -----------------------------------------------------------------
    Charge (ESU x 10^10)
                 0.0000
    Dipole Moment (Debye)
         X       1.8552      Y       1.1510      Z      -6.3586
       Tot       6.7229
    Quadrupole Moments (Debye-Ang)
        XX     -51.0552     XY       3.6484     YY     -54.5384
        XZ      -6.1413     YZ      -4.0820     ZZ     -56.6299
    Octopole Moments (Debye-Ang^2)
       XXX    -391.5139    XXY     -80.6984    XYY    -129.8494
       YYY    -263.5243    XXZ      -6.0593    XYZ     -13.3993
       YYZ       5.6716    XZZ    -127.2383    YZZ     -84.1740
       ZZZ      30.2017
    Hexadecapole Moments (Debye-Ang^3)
      XXXX   -2971.2143   XXXY    -845.2372   XXYY    -742.4305
      XYYY    -857.3402   YYYY   -1511.5404   XXXZ     110.2564
      XXYZ      -4.4535   XYYZ      31.3948   YYYZ      84.0328
      XXZZ    -525.5597   XYZZ    -275.5365   YYZZ    -290.8691
      XZZZ     179.4503   YZZZ     106.7183   ZZZZ    -252.2194
 -----------------------------------------------------------------
 Calculating analytic gradient of the SCF energy
 Gradient of SCF Energy
            1           2           3           4           5           6
    1   0.0000397  -0.0000810   0.0000377  -0.0000287   0.0000124  -0.0000357
    2  -0.0000012  -0.0000143   0.0000165  -0.0000222   0.0000034  -0.0000076
    3  -0.0000138  -0.0000528   0.0000033   0.0000488   0.0001141   0.0000369
            7           8           9          10          11          12
    1   0.0000062  -0.0000552   0.0000576  -0.0000269  -0.0000561   0.0000090
    2  -0.0000153  -0.0000333   0.0000468   0.0000126  -0.0000306   0.0000084
    3  -0.0000315  -0.0000459   0.0000058  -0.0000408   0.0000969   0.0001107
           13          14          15          16          17          18
    1  -0.0000027   0.0000600  -0.0000573   0.0000036   0.0000710   0.0000232
    2  -0.0000036   0.0000339  -0.0000441  -0.0000054   0.0000337   0.0001721
    3   0.0001655   0.0001267   0.0000934   0.0001007   0.0000145  -0.0000893
           19          20          21          22
    1   0.0000134   0.0003850  -0.0001118  -0.0002634
    2   0.0000721  -0.0005828   0.0001978   0.0001630
    3  -0.0001263  -0.0002649  -0.0001991  -0.0000530
 Max gradient component =       5.828E-04
 RMS gradient           =       1.206E-04
 Gradient time:  CPU 136.18 s  wall 8.56 s
 Geometry Optimization Parameters
   NAtoms,    NIC,     NZ,  NCons,   NDum,   NFix, NCnnct, MaxDiis
       22     172       0       0       0       0       0       0

 Cartesian Hessian Update
 Hessian updated using BFGS update


** GEOMETRY OPTIMIZATION IN DELOCALIZED INTERNAL COORDINATES **
   Searching for a Minimum

   Optimization Cycle:   4

                       Coordinates (Angstroms)
     ATOM                X               Y               Z
      1  C         1.9833279816    2.8317796485   -0.6810823603
      2  C         2.0918732310    1.3397453271   -0.3173095313
      3  C         3.4014922306    0.7345250514   -0.8522556551
      4  C         4.6193831812    1.5135625752   -0.3264875855
      5  C         4.5222895867    3.0124648494   -0.6538108058
      6  C         3.1986090565    3.6141836601   -0.1545542079
      7  H         3.4633234791   -0.3230437483   -0.5661362647
      8  H         2.0726510526    1.2395291075    0.7741307344
      9  H         1.9270452660    2.9379179286   -1.7736245250
     10  H         1.0497138031    3.2418579933   -0.2751983159
     11  H         4.6838546108    1.3820037369    0.7680677401
     12  H         5.5390632063    1.0916340371   -0.7497979564
     13  H         5.3739024003    3.5522943266   -0.2171606854
     14  H         4.5953207564    3.1507937232   -1.7407175033
     15  H         3.1837225628    3.5990650969    0.9497470350
     16  H         3.1215929466    4.6660364731   -0.4571728070
     17  H         3.3978224507    0.7646077853   -1.9511136982
     18  N         0.9261556627    0.5869735252   -0.7850760183
     19  H         0.7836401516    0.4970279109   -1.7865748724
     20  C         0.0122796822    0.0108050323    0.0257134207
     21  H        -0.7871862398   -0.5016829475   -0.5367652468
     22  O         0.0245300259    0.0309856475    1.2617832151
   Point Group: c1    Number of degrees of freedom:    60


   Energy is   -404.609980966

 Hessian updated using BFGS update

 60 Hessian modes will be used to form the next step
  Hessian Eigenvalues:
     0.005867    0.005964    0.006663    0.006999    0.012593    0.019494
     0.019727    0.020820    0.036709    0.038380    0.039412    0.041661
     0.044978    0.048450    0.048857    0.055283    0.055669    0.055740
     0.060048    0.066731    0.068574    0.081335    0.081534    0.081686
     0.081950    0.082129    0.084029    0.087549    0.119099    0.120968
     0.136930    0.143337    0.160444    0.161526    0.175069    0.210880
     0.219768    0.226601    0.271863    0.272706    0.275511    0.282320
     0.286867    0.287664    0.324730    0.331346    0.334578    0.334945
     0.336488    0.336567    0.339424    0.339435    0.339587    0.340198
     0.340286    0.341990    0.368484    0.454328    0.467263    0.814566

 Minimum search - taking simple RFO step
 Searching for Lamda that Minimizes Along All modes
 Value Taken    Lamda =  -0.00000324
 Step Taken.  Stepsize is  0.007573

                             Maximum     Tolerance    Cnvgd?
         Gradient           0.000390      0.000100      NO
         Displacement       0.006473      0.000100      NO
         Energy change      0.000000      0.000000      NO


 New Cartesian Coordinates Obtained by Inverse Iteration

 Displacement from previous Coordinates is:  0.006650
 ----------------------------------------------------------------
             Standard Nuclear Orientation (Angstroms)
    I     Atom           X                Y                Z
 ----------------------------------------------------------------
    1      C       1.9832105182     2.8320503272    -0.6807622535
    2      C       2.0917617056     1.3400192179    -0.3169870614
    3      C       3.4011821354     0.7344448239    -0.8519717119
    4      C       4.6193173845     1.5134908868    -0.3265114781
    5      C       4.5223425099     3.0123679007    -0.6539226376
    6      C       3.1988113549     3.6143841694    -0.1546479303
    7      H       3.4629880636    -0.3230312425    -0.5656084323
    8      H       2.0721574833     1.2395816639     0.7743601710
    9      H       1.9267052044     2.9380277530    -1.7733694063
   10      H       1.0498213025     3.2422447898    -0.2745910153
   11      H       4.6839945283     1.3819278170     0.7679046839
   12      H       5.5388882435     1.0914400235    -0.7499672056
   13      H       5.3740762713     3.5521098118    -0.2173611887
   14      H       4.5952614239     3.1505468705    -1.7409050297
   15      H       3.1840122326     3.5996919976     0.9495284186
   16      H       3.1219201438     4.6661521048    -0.4575968227
   17      H       3.3973747049     0.7644488032    -1.9508975269
   18      N       0.9259765617     0.5875298030    -0.7850961180
   19      H       0.7846148038     0.4971265036    -1.7866898270
   20      C       0.0114893951     0.0120342343     0.0253516602
   21      H      -0.7861875570    -0.5031421607    -0.5371670716
   22      O       0.0246886711     0.0296206417     1.2615118894
 ----------------------------------------------------------------
 Nuclear Repulsion Energy =         466.70910357 hartrees
 There are       35 alpha and       35 beta electrons
 Applying Cartesian multipole field
    Component          Value
    ---------          -----
     (0,0,1)        1.16690E-02
 Nucleus-field energy     =    -0.4569595144 hartrees
 Requested basis set is 6-31+G(d)
 There are 71 shells and 197 basis functions
 A cutoff of  1.0D-14 yielded   2413 shell pairs
 There are     19013 function pairs
 Smallest overlap matrix eigenvalue = 2.52E-05
 Guess MOs from SCF MO coefficient file

 -----------------------------------------------------------------------
  General SCF calculation program by
  Eric Jon Sundstrom, Paul Horn, Yuezhi Mao, Dmitri Zuev, Alec White,
  David Stuck, Shaama M.S., Shane Yost, Joonho Lee, David Small,
  Daniel Levine, Susi Lehtola, Hugh Burton, Evgeny Epifanovsky,
  Bang C. Huynh
 -----------------------------------------------------------------------
 Exchange:     0.2000 Hartree-Fock + 0.0800 Slater + 0.7200 B88
 Correlation:  0.1900 VWN1RPA + 0.8100 LYP
 Using Euler-Maclaurin-Lebedev (99,590) quadrature formula
 using 16 threads for integral computing
 -------------------------------------------------------
 OpenMP Integral computing Module                
 Release: version 2.0, May 2017, Q-Chem Inc. Pleasanton 
 -------------------------------------------------------
 A restricted SCF calculation will be
 performed using DIIS
 SCF converges when DIIS error is below 1.0e-09
 ---------------------------------------
  Cycle       Energy         DIIS error
 ---------------------------------------
    1    -404.6099783376      2.16e-05  
    2    -404.6099820816      3.60e-06  
    3    -404.6099821083      3.22e-06  
    4    -404.6099821337      2.13e-06  
    5    -404.6099821514      2.44e-07  
    6    -404.6099821516      8.38e-08  
    7    -404.6099821516      2.08e-08  
    8    -404.6099821516      8.38e-09  
    9    -404.6099821516      1.39e-09  
   10    -404.6099821516      6.36e-10  Convergence criterion met
 ---------------------------------------
 SCF time:   CPU 445.84s  wall 28.00s 
 SCF   energy in the final basis set =     -404.6099821516
 Total energy in the final basis set =     -404.6099821516
 
 --------------------------------------------------------------
 
                    Orbital Energies (a.u.)
 --------------------------------------------------------------
 
 Alpha MOs
 -- Occupied --
-19.1291 -14.3691 -10.2903 -10.2266 -10.1878 -10.1861 -10.1829 -10.1820
-10.1795  -1.0346  -0.9303  -0.8268  -0.7441  -0.7434  -0.6369  -0.6139
 -0.5922  -0.5662  -0.5256  -0.4839  -0.4600  -0.4449  -0.4395  -0.4173
 -0.4151  -0.3973  -0.3813  -0.3729  -0.3476  -0.3472  -0.3248  -0.3155
 -0.3113  -0.2645  -0.2572
 -- Virtual --
 -0.0141   0.0123   0.0159   0.0163   0.0272   0.0395   0.0475   0.0495
  0.0598   0.0706   0.0718   0.0853   0.0865   0.0911   0.1067   0.1122
  0.1171   0.1189   0.1336   0.1337   0.1421   0.1515   0.1632   0.1649
  0.1720   0.1796   0.1809   0.1899   0.1990   0.2084   0.2154   0.2171
  0.2228   0.2273   0.2282   0.2464   0.2485   0.2597   0.2706   0.2755
  0.2803   0.2812   0.2905   0.2917   0.2987   0.3065   0.3105   0.3301
  0.3311   0.3347   0.3599   0.3733   0.3844   0.3909   0.4170   0.4198
  0.4384   0.4604   0.4876   0.6097   0.6381   0.6580   0.6639   0.6689
  0.6812   0.6961   0.7289   0.7323   0.7497   0.7525   0.7775   0.7805
  0.8014   0.8052   0.8204   0.8495   0.8627   0.9102   0.9542   0.9741
  0.9808   0.9883   1.0176   1.0274   1.0289   1.0543   1.0878   1.1037
  1.1177   1.1231   1.1250   1.1473   1.1545   1.1727   1.1850   1.1881
  1.2391   1.2513   1.2866   1.3342   1.3457   1.3744   1.3892   1.4200
  1.4783   1.4875   1.4948   1.5644   1.5708   1.6125   1.7056   1.7308
  1.7313   1.7528   1.7723   1.8071   1.8524   1.8692   1.9025   1.9052
  1.9112   1.9402   1.9845   2.0097   2.0173   2.0464   2.0539   2.0854
  2.0885   2.1305   2.2028   2.2210   2.2812   2.3111   2.3145   2.3451
  2.3982   2.4093   2.4152   2.4183   2.4505   2.5636   2.5874   2.6207
  2.6723   2.6837   2.7008   2.7610   2.7795   2.8332   2.8673   3.0007
  3.1874   4.0947   4.1964   4.2323   4.2911   4.3327   4.4171   4.6030
  4.6077   4.6735
 --------------------------------------------------------------
 
          Ground-State Mulliken Net Atomic Charges

     Atom                 Charge (a.u.)
  ----------------------------------------
      1 C                    -0.228434
      2 C                    -0.499583
      3 C                    -0.248830
      4 C                    -0.455335
      5 C                    -0.340300
      6 C                    -0.460603
      7 H                     0.204730
      8 H                     0.212135
      9 H                     0.235584
     10 H                     0.200062
     11 H                     0.165112
     12 H                     0.214891
     13 H                     0.182897
     14 H                     0.237752
     15 H                     0.164147
     16 H                     0.209209
     17 H                     0.236147
     18 N                    -0.379859
     19 H                     0.430357
     20 C                     0.317197
     21 H                     0.166139
     22 O                    -0.563413
  ----------------------------------------
  Sum of atomic charges =     0.000000

 -----------------------------------------------------------------
                    Cartesian Multipole Moments
 -----------------------------------------------------------------
    Charge (ESU x 10^10)
                 0.0000
    Dipole Moment (Debye)
         X       1.8569      Y       1.1537      Z      -6.3584
       Tot       6.7237
    Quadrupole Moments (Debye-Ang)
        XX     -51.0511     XY       3.6482     YY     -54.5384
        XZ      -6.1440     YZ      -4.0740     ZZ     -56.6276
    Octopole Moments (Debye-Ang^2)
       XXX    -391.4737    XXY     -80.7032    XYY    -129.8473
       YYY    -263.5419    XXZ      -6.0561    XYZ     -13.3963
       YYZ       5.6766    XZZ    -127.2250    YZZ     -84.1764
       ZZZ      30.2054
    Hexadecapole Moments (Debye-Ang^3)
      XXXX   -2971.0249   XXXY    -845.2527   XXYY    -742.4403
      XYYY    -857.3761   YYYY   -1511.7013   XXXZ     110.2622
      XXYZ      -4.4277   XYYZ      31.3999   YYYZ      84.0812
      XXZZ    -525.5257   XYZZ    -275.5419   YYZZ    -290.8826
      XZZZ     179.4190   YZZZ     106.7553   ZZZZ    -252.1529
 -----------------------------------------------------------------
 Calculating analytic gradient of the SCF energy
 Gradient of SCF Energy
            1           2           3           4           5           6
    1  -0.0000807  -0.0000004  -0.0000060  -0.0000041   0.0000149   0.0000015
    2   0.0000006  -0.0000116  -0.0000633   0.0000040   0.0000040  -0.0000152
    3   0.0000201  -0.0000244   0.0000275   0.0001159   0.0001476   0.0001112
            7           8           9          10          11          12
    1   0.0000154  -0.0000881   0.0000667  -0.0000047  -0.0000582   0.0000183
    2  -0.0000025  -0.0000412   0.0000396   0.0000078  -0.0000297   0.0000072
    3  -0.0000247  -0.0000916  -0.0000357  -0.0000386   0.0000218   0.0001139
           13          14          15          16          17          18
    1   0.0000045   0.0000546  -0.0000634   0.0000023   0.0000704   0.0000324
    2  -0.0000014   0.0000312  -0.0000340  -0.0000070   0.0000474   0.0000039
    3   0.0001780   0.0000946   0.0000143   0.0001020  -0.0000259  -0.0000967
           19          20          21          22
    1   0.0001012   0.0000388   0.0000266  -0.0001421
    2   0.0000602   0.0001801  -0.0000355  -0.0001446
    3  -0.0001151  -0.0003486  -0.0001587   0.0000130
 Max gradient component =       3.486E-04
 RMS gradient           =       8.127E-05
 Gradient time:  CPU 137.19 s  wall 8.70 s
 Geometry Optimization Parameters
   NAtoms,    NIC,     NZ,  NCons,   NDum,   NFix, NCnnct, MaxDiis
       22     172       0       0       0       0       0       0

 Cartesian Hessian Update
 Hessian updated using BFGS update


** GEOMETRY OPTIMIZATION IN DELOCALIZED INTERNAL COORDINATES **
   Searching for a Minimum

   Optimization Cycle:   5

                       Coordinates (Angstroms)
     ATOM                X               Y               Z
      1  C         1.9832105182    2.8320503272   -0.6807622535
      2  C         2.0917617056    1.3400192179   -0.3169870614
      3  C         3.4011821354    0.7344448239   -0.8519717119
      4  C         4.6193173845    1.5134908868   -0.3265114781
      5  C         4.5223425099    3.0123679007   -0.6539226376
      6  C         3.1988113549    3.6143841694   -0.1546479303
      7  H         3.4629880636   -0.3230312425   -0.5656084323
      8  H         2.0721574833    1.2395816639    0.7743601710
      9  H         1.9267052044    2.9380277530   -1.7733694063
     10  H         1.0498213025    3.2422447898   -0.2745910153
     11  H         4.6839945283    1.3819278170    0.7679046839
     12  H         5.5388882435    1.0914400235   -0.7499672056
     13  H         5.3740762713    3.5521098118   -0.2173611887
     14  H         4.5952614239    3.1505468705   -1.7409050297
     15  H         3.1840122326    3.5996919976    0.9495284186
     16  H         3.1219201438    4.6661521048   -0.4575968227
     17  H         3.3973747049    0.7644488032   -1.9508975269
     18  N         0.9259765617    0.5875298030   -0.7850961180
     19  H         0.7846148038    0.4971265036   -1.7866898270
     20  C         0.0114893951    0.0120342343    0.0253516602
     21  H        -0.7861875570   -0.5031421607   -0.5371670716
     22  O         0.0246886711    0.0296206417    1.2615118894
   Point Group: c1    Number of degrees of freedom:    60


   Energy is   -404.609982152

 Hessian updated using BFGS update

 60 Hessian modes will be used to form the next step
  Hessian Eigenvalues:
     0.005860    0.005962    0.006659    0.006999    0.012613    0.019496
     0.019786    0.020815    0.037112    0.038434    0.039417    0.041807
     0.046786    0.048449    0.048867    0.055284    0.055712    0.055964
     0.060045    0.066886    0.079378    0.081484    0.081555    0.081921
     0.082085    0.083340    0.084664    0.087715    0.119146    0.120968
     0.137929    0.143100    0.160472    0.161233    0.175308    0.210794
     0.219221    0.225730    0.271816    0.272676    0.275514    0.282384
     0.286863    0.287698    0.325729    0.332644    0.334593    0.334942
     0.336540    0.336674    0.339412    0.339430    0.339555    0.340191
     0.340297    0.341949    0.366354    0.454378    0.467233    0.810639

 Minimum search - taking simple RFO step
 Searching for Lamda that Minimizes Along All modes
 Value Taken    Lamda =  -0.00000057
 Step Taken.  Stepsize is  0.002403

                             Maximum     Tolerance    Cnvgd?
         Gradient           0.000161      0.000100      NO
         Displacement       0.000846      0.000100      NO
         Energy change     -0.000001      0.000000      NO


 New Cartesian Coordinates Obtained by Inverse Iteration

 Displacement from previous Coordinates is:  0.003148
 ----------------------------------------------------------------
             Standard Nuclear Orientation (Angstroms)
    I     Atom           X                Y                Z
 ----------------------------------------------------------------
    1      C       1.9833777822     2.8319428055    -0.6806660321
    2      C       2.0917201969     1.3398515550    -0.3170966511
    3      C       3.4013140363     0.7345747773    -0.8519241621
    4      C       4.6193717775     1.5136069946    -0.3264303935
    5      C       4.5223308367     3.0124290201    -0.6540573845
    6      C       3.1988632387     3.6143424582    -0.1545399549
    7      H       3.4630572714    -0.3228807267    -0.5654700070
    8      H       2.0723426861     1.2394875555     0.7743510382
    9      H       1.9266848521     2.9380695312    -1.7731886820
   10      H       1.0499619168     3.2419790396    -0.2743702776
   11      H       4.6840444588     1.3822013194     0.7681212024
   12      H       5.5389226225     1.0914975614    -0.7498600175
   13      H       5.3740911406     3.5522690821    -0.2177579652
   14      H       4.5950508898     3.1505116534    -1.7410140309
   15      H       3.1842378279     3.5995010325     0.9497507841
   16      H       3.1218330184     4.6661401382    -0.4574006263
   17      H       3.3975380979     0.7643913761    -1.9507954424
   18      N       0.9258815458     0.5872224705    -0.7853173914
   19      H       0.7841260110     0.4966472933    -1.7868558756
   20      C       0.0113060806     0.0118457989     0.0252725892
   21      H      -0.7866356027    -0.5029119205    -0.5373805877
   22      O       0.0249863995     0.0303479248     1.2612339741
 ----------------------------------------------------------------
 Nuclear Repulsion Energy =         466.71494431 hartrees
 There are       35 alpha and       35 beta electrons
 Applying Cartesian multipole field
    Component          Value
    ---------          -----
     (0,0,1)        1.16690E-02
 Nucleus-field energy     =    -0.4570306501 hartrees
 Requested basis set is 6-31+G(d)
 There are 71 shells and 197 basis functions
 A cutoff of  1.0D-14 yielded   2413 shell pairs
 There are     19013 function pairs
 Smallest overlap matrix eigenvalue = 2.52E-05
 Guess MOs from SCF MO coefficient file

 -----------------------------------------------------------------------
  General SCF calculation program by
  Eric Jon Sundstrom, Paul Horn, Yuezhi Mao, Dmitri Zuev, Alec White,
  David Stuck, Shaama M.S., Shane Yost, Joonho Lee, David Small,
  Daniel Levine, Susi Lehtola, Hugh Burton, Evgeny Epifanovsky,
  Bang C. Huynh
 -----------------------------------------------------------------------
 Exchange:     0.2000 Hartree-Fock + 0.0800 Slater + 0.7200 B88
 Correlation:  0.1900 VWN1RPA + 0.8100 LYP
 Using Euler-Maclaurin-Lebedev (99,590) quadrature formula
 using 16 threads for integral computing
 -------------------------------------------------------
 OpenMP Integral computing Module                
 Release: version 2.0, May 2017, Q-Chem Inc. Pleasanton 
 -------------------------------------------------------
 A restricted SCF calculation will be
 performed using DIIS
 SCF converges when DIIS error is below 1.0e-09
 ---------------------------------------
  Cycle       Energy         DIIS error
 ---------------------------------------
    1    -404.6099818510      8.15e-06  
    2    -404.6099823376      2.43e-06  
    3    -404.6099822956      4.10e-06  
    4    -404.6099823603      7.23e-07  
    5    -404.6099823623      1.81e-07  
    6    -404.6099823624      3.31e-08  
    7    -404.6099823624      1.61e-08  
    8    -404.6099823624      2.70e-09  
    9    -404.6099823624      1.06e-09  
   10    -404.6099823624      2.51e-10  Convergence criterion met
 ---------------------------------------
 SCF time:   CPU 455.67s  wall 28.00s 
 SCF   energy in the final basis set =     -404.6099823624
 Total energy in the final basis set =     -404.6099823624
 
 --------------------------------------------------------------
 
                    Orbital Energies (a.u.)
 --------------------------------------------------------------
 
 Alpha MOs
 -- Occupied --
-19.1291 -14.3691 -10.2903 -10.2266 -10.1878 -10.1861 -10.1829 -10.1820
-10.1795  -1.0347  -0.9302  -0.8268  -0.7441  -0.7434  -0.6368  -0.6139
 -0.5921  -0.5662  -0.5256  -0.4839  -0.4600  -0.4449  -0.4395  -0.4173
 -0.4151  -0.3973  -0.3813  -0.3729  -0.3476  -0.3472  -0.3248  -0.3155
 -0.3112  -0.2645  -0.2572
 -- Virtual --
 -0.0141   0.0123   0.0159   0.0163   0.0272   0.0395   0.0475   0.0495
  0.0598   0.0706   0.0718   0.0853   0.0865   0.0911   0.1067   0.1122
  0.1171   0.1189   0.1336   0.1337   0.1421   0.1515   0.1632   0.1649
  0.1720   0.1796   0.1809   0.1900   0.1990   0.2084   0.2154   0.2171
  0.2228   0.2273   0.2282   0.2464   0.2485   0.2597   0.2706   0.2756
  0.2803   0.2813   0.2906   0.2917   0.2987   0.3065   0.3105   0.3301
  0.3311   0.3347   0.3599   0.3733   0.3844   0.3909   0.4171   0.4198
  0.4385   0.4604   0.4877   0.6098   0.6381   0.6580   0.6639   0.6689
  0.6813   0.6961   0.7289   0.7324   0.7497   0.7526   0.7775   0.7806
  0.8015   0.8053   0.8204   0.8495   0.8627   0.9100   0.9542   0.9741
  0.9808   0.9883   1.0176   1.0274   1.0289   1.0543   1.0877   1.1037
  1.1177   1.1231   1.1250   1.1473   1.1544   1.1727   1.1850   1.1881
  1.2391   1.2514   1.2867   1.3341   1.3457   1.3746   1.3893   1.4200
  1.4783   1.4875   1.4948   1.5643   1.5708   1.6123   1.7056   1.7308
  1.7315   1.7528   1.7723   1.8071   1.8524   1.8693   1.9025   1.9052
  1.9112   1.9402   1.9846   2.0096   2.0173   2.0464   2.0538   2.0854
  2.0886   2.1306   2.2028   2.2210   2.2814   2.3111   2.3146   2.3451
  2.3983   2.4094   2.4153   2.4183   2.4505   2.5635   2.5874   2.6207
  2.6723   2.6837   2.7008   2.7611   2.7795   2.8332   2.8673   3.0009
  3.1873   4.0946   4.1964   4.2323   4.2911   4.3327   4.4170   4.6030
  4.6077   4.6735
 --------------------------------------------------------------
 
          Ground-State Mulliken Net Atomic Charges

     Atom                 Charge (a.u.)
  ----------------------------------------
      1 C                    -0.228438
      2 C                    -0.499514
      3 C                    -0.248773
      4 C                    -0.455387
      5 C                    -0.340247
      6 C                    -0.460659
      7 H                     0.204705
      8 H                     0.212157
      9 H                     0.235590
     10 H                     0.200042
     11 H                     0.165081
     12 H                     0.214887
     13 H                     0.182904
     14 H                     0.237761
     15 H                     0.164119
     16 H                     0.209201
     17 H                     0.236155
     18 N                    -0.379972
     19 H                     0.430296
     20 C                     0.317211
     21 H                     0.166156
     22 O                    -0.563276
  ----------------------------------------
  Sum of atomic charges =     0.000000

 -----------------------------------------------------------------
                    Cartesian Multipole Moments
 -----------------------------------------------------------------
    Charge (ESU x 10^10)
                 0.0000
    Dipole Moment (Debye)
         X       1.8540      Y       1.1511      Z      -6.3569
       Tot       6.7211
    Quadrupole Moments (Debye-Ang)
        XX     -51.0547     XY       3.6480     YY     -54.5409
        XZ      -6.1431     YZ      -4.0759     ZZ     -56.6254
    Octopole Moments (Debye-Ang^2)
       XXX    -391.4979    XXY     -80.7046    XYY    -129.8516
       YYY    -263.5539    XXZ      -6.0547    XYZ     -13.3986
       YYZ       5.6789    XZZ    -127.2320    YZZ     -84.1835
       ZZZ      30.2182
    Hexadecapole Moments (Debye-Ang^3)
      XXXX   -2971.1784   XXXY    -845.2764   XXYY    -742.4529
      XYYY    -857.3960   YYYY   -1511.6924   XXXZ     110.2290
[...]

 Mode:                40                     41                     42
 Frequency:      1412.68                1504.27                1508.77
 Force Cnst:      1.7153                 1.4479                 1.4613
 Red. Mass:       1.4588                 1.0861                 1.0895
 IR Active:          YES                    YES                    YES
 IR Intens:        0.681                  0.422                  6.578
 Raman Active:       YES                    YES                    YES
               X      Y      Z        X      Y      Z        X      Y      Z
 C          0.053  0.099  0.017   -0.030  0.011 -0.025    0.016 -0.024  0.013
 C         -0.085 -0.065 -0.009   -0.009  0.013  0.001    0.009  0.007  0.005
 C          0.111  0.014  0.006    0.004  0.026  0.026   -0.015  0.012  0.011
 C         -0.012  0.028  0.005    0.031 -0.010  0.026   -0.003  0.010 -0.010
 C         -0.002 -0.002  0.007    0.006 -0.011 -0.000    0.048  0.036 -0.036
 C          0.023 -0.022  0.001   -0.004 -0.032 -0.031    0.008 -0.016 -0.019
 H         -0.372 -0.041 -0.065    0.011 -0.079 -0.317    0.020 -0.029 -0.136
 H          0.408  0.329  0.029    0.035 -0.053 -0.005   -0.027 -0.022  0.002
 H         -0.212 -0.325 -0.015    0.320 -0.131 -0.047   -0.182  0.151  0.033
 H         -0.178 -0.306 -0.087    0.100 -0.081  0.329   -0.054  0.058 -0.214
 H          0.036  0.013 -0.001   -0.324  0.120  0.049    0.079 -0.079 -0.022
 H         -0.119 -0.171 -0.027   -0.106  0.080 -0.335    0.046 -0.016  0.109
 H         -0.023 -0.017  0.054    0.007 -0.005 -0.010   -0.156 -0.155  0.547
 H         -0.060 -0.047  0.003   -0.024  0.053  0.005   -0.498 -0.329 -0.104
 H          0.016  0.034  0.001    0.007  0.367 -0.011   -0.051  0.211 -0.009
 H         -0.205 -0.043 -0.012   -0.011  0.094  0.365    0.012  0.059  0.217
 H         -0.362 -0.087 -0.000    0.000 -0.321  0.008    0.066 -0.134  0.002
 N         -0.024 -0.014 -0.014    0.000 -0.000 -0.000    0.002  0.001 -0.000
 H          0.101  0.067 -0.040    0.002 -0.004  0.000   -0.018 -0.011  0.004
 C          0.020  0.013  0.009   -0.000 -0.000 -0.000   -0.002 -0.001  0.001
 H          0.030  0.019  0.013   -0.001  0.000 -0.000   -0.002 -0.001 -0.002
 O         -0.003 -0.002 -0.007    0.000 -0.000  0.000    0.000  0.000 -0.001
 TransDip  -0.000 -0.007  0.026    0.012 -0.017 -0.001   -0.062 -0.033  0.042

 Mode:                43                     44                     45
 Frequency:      1510.02                1514.63                1529.13
 Force Cnst:      1.4727                 1.4731                 1.5124
 Red. Mass:       1.0962                 1.0899                 1.0978
 IR Active:          YES                    YES                    YES
 IR Intens:        5.767                 11.185                  1.314
 Raman Active:       YES                    YES                    YES
               X      Y      Z        X      Y      Z        X      Y      Z
 C          0.035 -0.016  0.020   -0.021  0.015 -0.016   -0.032  0.023 -0.020
 C         -0.003  0.002 -0.000   -0.010 -0.007 -0.002   -0.009 -0.006 -0.007
 C          0.005 -0.039 -0.027    0.005 -0.026 -0.022    0.009 -0.037 -0.025
 C          0.035 -0.019  0.022   -0.035  0.024 -0.027    0.022 -0.015  0.011
 C         -0.010 -0.000  0.006   -0.010 -0.006  0.002    0.034  0.025 -0.017
 C          0.001 -0.033 -0.022    0.007 -0.038 -0.030   -0.005  0.025  0.014
 H          0.003  0.078  0.368   -0.025  0.067  0.283   -0.010  0.077  0.357
 H          0.007 -0.005 -0.001    0.012  0.011 -0.004    0.011  0.010 -0.007
 H         -0.314  0.146  0.044    0.233 -0.122 -0.037    0.318 -0.180 -0.051
 H         -0.094  0.053 -0.320    0.065 -0.072  0.240    0.093 -0.073  0.336
 H         -0.319  0.162  0.051    0.367 -0.179 -0.062   -0.190  0.105  0.031
 H         -0.105  0.063 -0.343    0.110 -0.109  0.390   -0.054  0.047 -0.211
 H          0.039 -0.002 -0.081    0.004  0.006 -0.050   -0.085 -0.083  0.324
 H          0.081  0.033  0.014    0.046  0.028  0.006   -0.301 -0.198 -0.061
 H         -0.018  0.305 -0.006   -0.033  0.402 -0.013    0.027 -0.217  0.005
 H          0.005  0.065  0.297   -0.029  0.094  0.395    0.007 -0.044 -0.218
 H         -0.039  0.384 -0.004   -0.029  0.296 -0.007   -0.053  0.373 -0.007
 N         -0.000 -0.002  0.000    0.009  0.006 -0.002   -0.009 -0.005  0.003
 H          0.001  0.008 -0.001   -0.029 -0.018  0.005    0.056  0.037 -0.009
 C          0.001  0.000  0.000   -0.004 -0.003  0.000    0.006  0.004 -0.005
 H          0.000  0.001  0.000   -0.006 -0.004 -0.003    0.006  0.004  0.005
 O         -0.000  0.000 -0.000    0.001  0.000  0.001   -0.001 -0.001  0.002
 TransDip  -0.034  0.069 -0.002    0.015  0.004  0.106    0.024  0.012  0.025

 Mode:                46                     47                     48
 Frequency:      1558.39                1708.89                2232.16
 Force Cnst:      2.4710                15.4177                 7.0798
 Red. Mass:       1.7269                 8.9606                 2.4117
 IR Active:          YES                    YES                    YES
 IR Intens:      150.109                502.815                 66.835
 Raman Active:       YES                    YES                    YES
               X      Y      Z        X      Y      Z        X      Y      Z
 C          0.006  0.004  0.006   -0.016 -0.005 -0.013   -0.000 -0.000  0.000
 C          0.062  0.040 -0.046    0.022  0.014  0.025    0.002  0.001 -0.000
 C          0.006  0.006  0.007   -0.012 -0.011 -0.014   -0.000 -0.000  0.000
 C         -0.010 -0.003 -0.002    0.000  0.006  0.004    0.000  0.000  0.000
 C         -0.001 -0.001  0.002   -0.001 -0.000 -0.001   -0.000 -0.000  0.000
 C         -0.006 -0.008 -0.002    0.006 -0.003  0.003    0.000 -0.000  0.000
 H          0.011  0.002 -0.021    0.022  0.000  0.026    0.001 -0.000 -0.001
 H         -0.287 -0.189 -0.079   -0.081 -0.052  0.045    0.010  0.006  0.001
 H         -0.035 -0.064 -0.004    0.033  0.035 -0.011   -0.001  0.000  0.001
 H          0.006  0.018 -0.019    0.008  0.012  0.033    0.000  0.001 -0.002
 H          0.064 -0.001 -0.007   -0.005 -0.005  0.008   -0.000 -0.000 -0.000
 H          0.017 -0.000  0.054   -0.021 -0.023 -0.020    0.000 -0.000  0.000
 H          0.006  0.008 -0.024   -0.001 -0.003  0.009    0.000  0.000  0.000
 H          0.016  0.011  0.004    0.000  0.000 -0.002    0.000  0.000 -0.000
 H          0.022  0.059 -0.002   -0.008 -0.006  0.008   -0.000  0.000 -0.000
 H          0.007  0.010  0.052   -0.030 -0.009 -0.020   -0.000  0.000  0.000
 H         -0.076 -0.012  0.001    0.044  0.011 -0.013   -0.000 -0.000  0.001
 N         -0.157 -0.101  0.063    0.044  0.028 -0.115    0.013  0.008 -0.000
 H          0.736  0.467 -0.108    0.306  0.190 -0.172   -0.058 -0.037  0.004
 C          0.081  0.051 -0.018   -0.126 -0.075  0.668   -0.139 -0.090 -0.109
 H          0.105  0.067  0.064    0.349  0.225  0.021    0.716  0.462  0.479
 O         -0.010 -0.007 -0.013   -0.004 -0.006 -0.400    0.005  0.003  0.021
 TransDip   0.314  0.200 -0.124   -0.331 -0.211  0.601   -0.165 -0.107 -0.173

 Mode:                49                     50                     51
 Frequency:      2968.42                2973.90                3033.25
 Force Cnst:      5.5682                 5.5889                 5.7663
 Red. Mass:       1.0725                 1.0726                 1.0637
 IR Active:          YES                    YES                    YES
 IR Intens:       19.678                114.158                 45.327
 Raman Active:       YES                    YES                    YES
               X      Y      Z        X      Y      Z        X      Y      Z
 C         -0.002  0.001  0.006   -0.002  0.001  0.003    0.001  0.000  0.000
 C         -0.000  0.000  0.001    0.000 -0.000  0.002   -0.000 -0.000  0.001
 C         -0.000  0.002 -0.004    0.001 -0.004  0.005    0.001 -0.002 -0.003
 C          0.008 -0.007  0.040   -0.012  0.012 -0.061    0.007 -0.003 -0.008
 C          0.001  0.002  0.002    0.007  0.004  0.010   -0.055 -0.039  0.014
 C          0.001 -0.009 -0.063    0.001 -0.006 -0.040   -0.001  0.011 -0.008
 H          0.003 -0.020  0.005   -0.006  0.041 -0.011   -0.003  0.024 -0.008
 H          0.002 -0.003 -0.006   -0.002  0.002 -0.028   -0.000  0.001 -0.016
 H         -0.005  0.006 -0.062   -0.002  0.004 -0.034   -0.000  0.000 -0.006
 H          0.031 -0.018 -0.014    0.027 -0.014 -0.013   -0.006  0.001  0.002
 H         -0.026  0.058 -0.529    0.040 -0.094  0.809    0.005 -0.007  0.050
 H         -0.068  0.029  0.046    0.104 -0.046 -0.068   -0.094  0.039  0.044
 H         -0.014 -0.016 -0.009   -0.087 -0.053 -0.044    0.639  0.404  0.346
 H          0.002  0.002 -0.019    0.009  0.014 -0.092    0.017  0.053 -0.510
 H         -0.008 -0.022  0.821   -0.008 -0.012  0.524   -0.001  0.002  0.053
 H         -0.008  0.123 -0.057   -0.006  0.079 -0.035    0.006 -0.137  0.042
 H          0.000  0.000  0.045   -0.000  0.000 -0.061   -0.000 -0.002  0.039
 N          0.000 -0.000  0.000   -0.000 -0.000  0.000   -0.000 -0.000  0.000
 H         -0.000  0.001  0.000    0.001  0.000  0.001    0.000  0.000  0.000
 C          0.000  0.000 -0.000    0.000  0.000 -0.001    0.000  0.000 -0.000
 H         -0.000  0.000  0.000   -0.000 -0.000  0.000   -0.000 -0.000 -0.000
 O         -0.000 -0.000  0.000   -0.000 -0.000  0.000   -0.000 -0.000  0.000
 TransDip   0.054 -0.102 -0.083   -0.065  0.013 -0.336   -0.179 -0.118 -0.028

 Mode:                52                     53                     54
 Frequency:      3036.06                3038.30                3062.80
 Force Cnst:      5.7613                 5.7791                 6.0133
 Red. Mass:       1.0608                 1.0626                 1.0880
 IR Active:          YES                    YES                    YES
 IR Intens:       15.130                 15.694                 26.567
 Raman Active:       YES                    YES                    YES
               X      Y      Z        X      Y      Z        X      Y      Z
 C         -0.033  0.018 -0.033   -0.029  0.016 -0.031   -0.026  0.011  0.027
 C          0.000 -0.000 -0.000   -0.001 -0.002  0.015   -0.000  0.005 -0.064
 C         -0.001  0.028  0.036    0.002 -0.030 -0.040    0.002 -0.030  0.018
 C          0.007 -0.003 -0.002   -0.008  0.004  0.004   -0.006  0.003  0.004
 C         -0.002 -0.002  0.000    0.001  0.000  0.003   -0.006 -0.003 -0.010
 C          0.001 -0.009  0.002    0.001 -0.010  0.004    0.001 -0.011  0.006
 H          0.021 -0.360  0.112   -0.024  0.374 -0.116   -0.020  0.359 -0.100
 H          0.001 -0.001  0.000    0.002  0.016 -0.182   -0.007 -0.067  0.781
 H          0.018 -0.050  0.573    0.017 -0.047  0.521   -0.015  0.018 -0.182
 H          0.372 -0.163 -0.179    0.320 -0.142 -0.153    0.326 -0.142 -0.144
 H          0.001 -0.000 -0.014   -0.002  0.002 -0.001   -0.001  0.002 -0.011
 H         -0.082  0.040  0.040    0.092 -0.045 -0.046    0.073 -0.034 -0.034
 H          0.029  0.020  0.016   -0.011 -0.007 -0.004    0.076  0.048  0.038
 H         -0.000  0.004 -0.021    0.001  0.003 -0.026   -0.005 -0.010  0.077
 H          0.001 -0.003  0.008    0.001 -0.002 -0.012    0.001 -0.001 -0.026
 H         -0.011  0.113 -0.035   -0.012  0.121 -0.037   -0.010  0.134 -0.039
 H         -0.003  0.027 -0.546    0.001 -0.028  0.597   -0.003 -0.002 -0.121
 N          0.000 -0.000  0.000    0.000  0.000 -0.000   -0.001 -0.000  0.000
 H         -0.002  0.002 -0.000    0.003  0.002  0.002   -0.000  0.000 -0.009
 C         -0.000  0.000  0.000    0.000  0.000  0.001    0.000  0.000 -0.002
 H          0.000 -0.000 -0.000    0.000  0.000 -0.000   -0.001 -0.000 -0.000
 O          0.000 -0.000 -0.000   -0.000 -0.000 -0.000    0.000  0.000  0.001
 TransDip  -0.086  0.090  0.008   -0.088 -0.059 -0.070   -0.135 -0.091 -0.027

 Mode:                55                     56                     57
 Frequency:      3068.90                3073.24                3077.66
 Force Cnst:      6.0450                 6.0782                 6.1641
 Red. Mass:       1.0894                 1.0923                 1.1045
 IR Active:          YES                    YES                    YES
 IR Intens:       45.744                 49.743                 23.724
 Raman Active:       YES                    YES                    YES
               X      Y      Z        X      Y      Z        X      Y      Z
 C          0.014 -0.007  0.000   -0.007  0.003  0.005    0.037 -0.013 -0.054
 C          0.000 -0.000  0.011    0.000 -0.001  0.010    0.000 -0.000 -0.004
 C         -0.000  0.002  0.001   -0.001  0.010  0.002    0.003 -0.045  0.045
 C         -0.002  0.002 -0.003   -0.051  0.023  0.027   -0.007  0.003  0.010
 C         -0.020 -0.010 -0.033   -0.019 -0.009 -0.049   -0.001  0.000 -0.002
 C          0.005 -0.069  0.026   -0.001  0.023 -0.015   -0.000  0.006 -0.008
 H          0.001 -0.026  0.008    0.005 -0.120  0.034   -0.032  0.537 -0.146
 H          0.001  0.012 -0.137    0.001  0.010 -0.120    0.002 -0.008  0.049
 H         -0.000  0.005 -0.067   -0.001  0.004 -0.023    0.028 -0.045  0.440
 H         -0.167  0.071  0.074    0.087 -0.039 -0.038   -0.468  0.206  0.203
 H          0.001 -0.006  0.041   -0.011  0.007 -0.041   -0.006  0.007 -0.068
 H          0.023 -0.011 -0.011    0.611 -0.278 -0.287    0.093 -0.042 -0.044
 H          0.249  0.157  0.125    0.254  0.164  0.127    0.010  0.005  0.005
 H         -0.019 -0.037  0.271   -0.033 -0.058  0.458   -0.003  0.000  0.015
 H          0.000 -0.009 -0.074   -0.003  0.002  0.092    0.001  0.001  0.073
 H         -0.059  0.825 -0.245    0.020 -0.276  0.081    0.005 -0.071  0.021
 H          0.001  0.001 -0.014    0.001  0.004 -0.047   -0.002  0.005 -0.387
 N         -0.000 -0.000 -0.000    0.000  0.000 -0.000   -0.000  0.000  0.000
 H         -0.000 -0.001  0.001   -0.000 -0.000  0.001   -0.000  0.001 -0.001
 C          0.000 -0.000  0.000   -0.000  0.000  0.000    0.000 -0.000 -0.000
 H         -0.000 -0.000 -0.000    0.000 -0.000 -0.000    0.000 -0.000  0.000
 O         -0.000 -0.000 -0.000   -0.000 -0.000 -0.000   -0.000  0.000  0.000
 TransDip  -0.022 -0.215 -0.008   -0.196  0.105 -0.038    0.080 -0.132 -0.025

 Mode:                58                     59                     60
 Frequency:      3079.16                3088.55                3573.18
 Force Cnst:      6.1178                 6.1794                 8.1135
 Red. Mass:       1.0952                 1.0995                 1.0786
 IR Active:          YES                    YES                    YES
 IR Intens:       19.914                 61.040                 43.526
 Raman Active:       YES                    YES                    YES
               X      Y      Z        X      Y      Z        X      Y      Z
 C         -0.009  0.004  0.007    0.024 -0.009 -0.042   -0.000  0.000  0.000
 C         -0.001 -0.001  0.013    0.001  0.004 -0.046    0.001  0.001 -0.000
 C          0.001 -0.018  0.007   -0.002  0.035 -0.042   -0.000 -0.000  0.000
 C          0.042 -0.019 -0.031    0.006 -0.002 -0.012   -0.000  0.000  0.000
 C         -0.011 -0.002 -0.059   -0.005 -0.002 -0.020   -0.000 -0.000  0.000
 C         -0.002  0.020 -0.013   -0.000  0.005 -0.009    0.000 -0.000  0.000
 H         -0.012  0.208 -0.057    0.026 -0.415  0.113   -0.000  0.001 -0.000
 H          0.001  0.013 -0.150   -0.009 -0.049  0.538    0.003  0.001  0.010
 H         -0.001  0.006 -0.031    0.023 -0.042  0.373   -0.000 -0.001 -0.001
 H          0.109 -0.048 -0.047   -0.311  0.139  0.136    0.001 -0.001 -0.000
 H          0.013 -0.022  0.130    0.010 -0.011  0.099    0.000  0.000 -0.000
 H         -0.514  0.237  0.241   -0.081  0.037  0.039    0.000 -0.000 -0.000
 H          0.176  0.111  0.084    0.069  0.044  0.035    0.000  0.000  0.000
 H         -0.041 -0.079  0.615   -0.015 -0.027  0.201    0.000  0.000 -0.000
 H         -0.005  0.002  0.085    0.001  0.002  0.091    0.000  0.000 -0.000
 H          0.020 -0.244  0.071    0.005 -0.065  0.020    0.000  0.000 -0.000
 H          0.003 -0.001 -0.030   -0.002 -0.005  0.396   -0.001  0.000 -0.001
 N          0.000  0.000 -0.000   -0.001 -0.001  0.001   -0.009 -0.006 -0.073
 H         -0.000 -0.000  0.002    0.004  0.003 -0.004    0.138  0.089  0.984
 C         -0.000 -0.000  0.000    0.000  0.000 -0.001   -0.002 -0.001  0.000
 H          0.000  0.000 -0.000   -0.001 -0.000  0.000    0.002  0.001  0.000
 O         -0.000 -0.000 -0.000    0.000  0.000  0.001   -0.000 -0.000  0.001
 TransDip   0.050 -0.034 -0.130    0.014  0.040 -0.247   -0.013 -0.006  0.211

 STANDARD THERMODYNAMIC QUANTITIES AT   298.18 K  AND     1.00 ATM

   This Molecule has  0 Imaginary Frequencies
   Zero point vibrational energy:      122.261 kcal/mol

   Atom    1 Element C  Has Mass   12.00000
   Atom    2 Element C  Has Mass   12.00000
   Atom    3 Element C  Has Mass   12.00000
   Atom    4 Element C  Has Mass   12.00000
   Atom    5 Element C  Has Mass   12.00000
   Atom    6 Element C  Has Mass   12.00000
   Atom    7 Element H  Has Mass    1.00783
   Atom    8 Element H  Has Mass    1.00783
   Atom    9 Element H  Has Mass    1.00783
   Atom   10 Element H  Has Mass    1.00783
   Atom   11 Element H  Has Mass    1.00783
   Atom   12 Element H  Has Mass    1.00783
   Atom   13 Element H  Has Mass    1.00783
   Atom   14 Element H  Has Mass    1.00783
   Atom   15 Element H  Has Mass    1.00783
   Atom   16 Element H  Has Mass    1.00783
   Atom   17 Element H  Has Mass    1.00783
   Atom   18 Element N  Has Mass   14.00307
   Atom   19 Element H  Has Mass    1.00783
   Atom   20 Element C  Has Mass   12.00000
   Atom   21 Element H  Has Mass    2.01410
   Atom   22 Element O  Has Mass   15.99491
   Molecular Mass:   128.106042 amu
   Principal axes and moments of inertia in amu*Bohr^2:
                             1           2           3
    Eigenvalues --      546.68550  2010.57948  2204.20019
          X               0.82475    -0.52582     0.20809
          Y               0.53813     0.84286    -0.00304
          Z              -0.17379     0.11449     0.97811
   Rotational Symmetry Number is   1
   The Molecule is an Asymmetric Top
   Translational Enthalpy:        0.889 kcal/mol
   Rotational Enthalpy:           0.889 kcal/mol
   Vibrational Enthalpy:        126.024 kcal/mol
   gas constant (RT):             0.593 kcal/mol
   Translational Entropy:        40.457  cal/mol.K
   Rotational Entropy:           29.273  cal/mol.K
   Vibrational Entropy:          23.011  cal/mol.K

   Total Enthalpy:              128.394 kcal/mol
   Total Entropy:                92.741  cal/mol.K
Archival summary:
1\1\node017\FREQ\ProcedureUnspecified\6-31+G*\11713\ymao90\SunMar716:10:312021SunMar716:10:312021\0\\#,FREQ,ProcedureUnspecified,6-31+G*,\\0,1\N\H,1,1.01557\C,1,1.35075,2,117.349\H,3,1.10373,1,112.474,2,0.52469,0\O,3,1.23622,1,125.893,2,-179.588,0\C,1,1.46452,2,118.172,3,-179.346,0\H,6,1.0962,1,104.899,2,-176.025,0\C,6,1.53864,1,111.358,2,-58.2921,0\H,8,1.09731,6,109.653,1,-56.0799,0\H,8,1.09929,6,109.506,1,60.6742,0\C,8,1.53842,6,110.848,1,-178.663,0\H,11,1.09683,8,109.697,6,-177.791,0\H,11,1.10428,8,108.944,6,65.7215,0\C,11,1.53728,8,111.775,6,-55.203,0\H,14,1.09811,11,109.23,8,-66.8911,0\H,14,1.09877,11,110.209,8,176.728,0\C,14,1.53733,11,111.523,8,53.9441,0\H,17,1.09724,14,110.247,11,-176.223,0\H,17,1.10446,14,109.331,11,66.7373,0\C,17,1.53831,14,111.715,11,-53.9278,0\H,20,1.09748,17,110.817,14,177.091,0\H,20,1.09914,17,109.366,14,-65.5028,0\\\@

 Total job time:  4380.69s(wall), 69726.75s(cpu) 
 Sun Mar  7 16:10:31 2021

        *************************************************************
        *                                                           *
        *  Thank you very much for using Q-Chem.  Have a nice day.  *
        *                                                           *
        *************************************************************


