                  Welcome to Q-Chem
     A Quantum Leap Into The Future Of Chemistry


 Q-Chem 5.2 (devel), Q-Chem, Inc., Pleasanton, CA (2019)

 Yihan Shao,  Zhengting Gan,  E. Epifanovsky,  A. T. B. Gilbert,  M. Wormit,  
 J. Kussmann,  A. W. Lange,  A. Behn,  Jia Deng,  Xintian Feng,  D. Ghosh,  
 M. Goldey,  P. R. Horn,  L. D. Jacobson,  I. Kaliman,  T. Kus,  A. Landau,  
 Jie Liu,  E. I. Proynov,  R. M. Richard,  R. P. Steele,  E. J. Sundstrom,  
 H. L. Woodcock III,  P. M. Zimmerman,  D. Zuev,  B. Alam,  B. Albrecht,  
 E. Alguire,  S. A. Baeppler,  D. Barton,  Z. Benda,  Y. A. Bernard,  
 E. J. Berquist,  K. B. Bravaya,  H. Burton,  K. Carter-Fenk,  D. Casanova,  
 Chun-Min Chang,  Yunqing Chen,  A. Chien,  K. D. Closser,  M. P. Coons,  
 S. Coriani,  S. Dasgupta,  A. L. Dempwolff,  M. Diedenhofen,  Hainam Do,  
 R. G. Edgar,  Po-Tung Fang,  S. Faraji,  S. Fatehi,  Qingguo Feng,  
 J. Fosso-Tande,  J. Gayvert,  Qinghui Ge,  A. Ghysels,  G. Gidofalvi,  
 J. Gomes,  J. Gonthier,  A. Gunina,  D. Hait,  M. W. D. Hanson-Heine,  
 P. H. P. Harbach,  A. W. Hauser,  M. F. Herbst,  J. E. Herr,  
 E. G. Hohenstein,  Z. C. Holden,  Kerwin Hui,  B. C. Huynh,  T.-C. Jagau,  
 Hyunjun Ji,  B. Kaduk,  K. Khistyaev,  Jaehoon Kim,  P. Klunzinger,  K. Koh,  
 D. Kosenkov,  L. Koulias,  T. Kowalczyk,  C. M. Krauter,  A. Kunitsa,  
 Ka Un Lao,  A. Laurent,  K. V. Lawler,  Joonho Lee,  D. Lefrancois,  
 S. Lehtola,  D. S. Levine,  Yi-Pei Li,  You-Sheng Lin,  Fenglai Liu,  
 Kuan-Yu Liu,  E. Livshits,  M. Loipersberger,  A. Luenser,  P. Manohar,  
 E. Mansoor,  S. F. Manzer,  Shan-Ping Mao,  Yuezhi Mao,  N. Mardirossian,  
 A. V. Marenich,  T. Markovich,  L. A. Martinez-Martinez,  S. A. Maurer,  
 N. J. Mayhall,  S. C. McKenzie,  J.-M. Mewes,  P. Morgante,  A. F. Morrison,  
 J. W. Mullinax,  K. Nanda,  T. S. Nguyen-Beck,  R. Olivares-Amaya,  
 J. A. Parkhill,  S. K. Paul,  F. Pavosevic,  Zheng Pei,  T. M. Perrine,  
 F. Plasser,  P. Pokhilko,  S. Prager,  A. Prociuk,  E. Ramos,  B. Rana,  
 D. R. Rehn,  F. Rob,  M. Scheurer,  M. Schneider,  N. Sergueev,  
 S. M. Sharada,  S. Sharma,  D. W. Small,  T. Stauch,  C. J. Stein,  
 T. Stein,  Yu-Chuan Su,  S. P. Veccham,  Zhen Tao,  A. J. W. Thom,  
 A. Tkatchenko,  T. Tsuchimochi,  N. M. Tubman,  L. Vogt,  M. L. Vidal,  
 O. Vydrov,  M. A. Watson,  J. Wenzel,  M. de Wergifosse,  T. A. Wesolowski,  
 A. White,  J. Witte,  A. Yamada,  Jun Yang,  K. Yao,  S. Yeganeh,  
 S. R. Yost,  Zhi-Qiang You,  A. Zech,  Igor Ying Zhang,  Xing Zhang,  
 Yan Zhao,  Ying Zhu,  B. R. Brooks,  G. K. L. Chan,  C. J. Cramer,  
 M. S. Gordon,  W. J. Hehre,  A. Klamt,  M. W. Schmidt,  C. D. Sherrill,  
 D. G. Truhlar,  A. Aspuru-Guzik,  R. Baer,  A. T. Bell,  N. A. Besley,  
 Jeng-Da Chai,  A. E. DePrince, III,  R. A. DiStasio Jr.,  A. Dreuw,  
 B. D. Dunietz,  T. R. Furlani,  Chao-Ping Hsu,  Yousung Jung,  Jing Kong,  
 D. S. Lambrecht,  WanZhen Liang,  C. Ochsenfeld,  V. A. Rassolov,  
 L. V. Slipchenko,  J. E. Subotnik,  T. Van Voorhis,  J. M. Herbert,  
 A. I. Krylov,  P. M. W. Gill,  M. Head-Gordon

 Contributors to earlier versions of Q-Chem not listed above: 
 R. D. Adamson,  B. Austin,  J. Baker,  G. J. O. Beran,  K. Brandhorst,  
 S. T. Brown,  E. F. C. Byrd,  A. K. Chakraborty,  C.-L. Cheng,  
 Siu Hung Chien,  D. M. Chipman,  D. L. Crittenden,  H. Dachsel,  
 R. J. Doerksen,  A. D. Dutoi,  L. Fusti-Molnar,  W. A. Goddard III,  
 A. Golubeva-Zadorozhnaya,  S. R. Gwaltney,  G. Hawkins,  A. Heyden,  
 S. Hirata,  G. Kedziora,  F. J. Keil,  C. Kelley,  Jihan Kim,  R. A. King,  
 R. Z. Khaliullin,  P. P. Korambath,  W. Kurlancheek,  A. M. Lee,  M. S. Lee,  
 S. V. Levchenko,  Ching Yeh Lin,  D. Liotard,  R. C. Lochan,  I. Lotan,  
 P. E. Maslen,  N. Nair,  D. P. O'Neill,  D. Neuhauser,  E. Neuscamman,  
 C. M. Oana,  R. Olson,  B. Peters,  R. Peverati,  P. A. Pieniazek,  
 Y. M. Rhee,  J. Ritchie,  M. A. Rohrdanz,  E. Rosta,  N. J. Russ,  
 H. F. Schaefer III,  N. E. Schultz,  N. Shenvi,  A. C. Simmonett,  A. Sodt,  
 D. Stuck,  K. S. Thanthiriwatte,  V. Vanovschi,  Tao Wang,  A. Warshel,  
 C. F. Williams,  Q. Wu,  X. Xu,  W. Zhang

 Please cite Q-Chem as follows:
 Y. Shao et al., Mol. Phys. 113, 184-215 (2015)
 DOI: 10.1080/00268976.2014.952696

 Q-Chem 5.2.2 for Intel X86 EM64T Linux

 Parts of Q-Chem use Armadillo 9.800.1 (Horizon Scraper).
 http://arma.sourceforge.net/

 Q-Chem begins on Sun Mar  7 02:56:15 2021  

Host: node029
0

     Scratch files written to /home/ymao90/scratch/CCX_CO_zerofield20210307025612//

Checking the input file for inconsistencies... 	...done.

--------------------------------------------------------------
User input:
--------------------------------------------------------------
$molecule
0 1
C      1.9839655798    2.8343873569   -0.6530035790
C      2.0889665948    1.3399289492   -0.2973932582
C      3.4017166944    0.7321441035   -0.8222227424
C      4.6254659785    1.5200300416   -0.3255741318
C      4.5210827926    3.0122209378   -0.6783481608
C      3.2094896156    3.6188525050   -0.1554554411
H      3.4653882129   -0.3186255299   -0.5134835234
H      2.0538505535    1.2303619181    0.7916336585
H      1.9041773336    2.9373830819   -1.7471760654
H      1.0604862058    3.2447823031   -0.2264495779
H      4.7056113531    1.4098609561    0.7662015896
H      5.5416784391    1.0893334561   -0.7496610014
H      5.3807748665    3.5587419877   -0.2692766409
H      4.5659637339    3.1311627355   -1.7719372538
H      3.2192612515    3.6121018079    0.9447339030
H      3.1260878858    4.6703627905   -0.4590864625
H      3.3863457527    0.7409636912   -1.9242196110
N      0.9315723625    0.5939302253   -0.7942938700
H      0.8024957372    0.5217251348   -1.7968919912
C      0.0000000000    0.0000000000    0.0000000000
H     -0.7899738588   -0.5065817117   -0.5873052394
O     -0.0000000000    0.0000000000    1.2238135054
$end

$rem
JOBTYPE  OPT
METHOD  B3LYP
BASIS  6-31+G(D)
SYMMETRY  FALSE
SYM_IGNORE  TRUE
MEM_TOTAL  8000
MEM_STATIC  2000
MAX_SUB_FILE_NUM  16000
BASIS_LIN_DEP_THRESH  6
THRESH  14
SCF_CONVERGENCE  9
GEN_SCFMAN  TRUE
SCF_GUESS  SAD
FD_MAT_VEC_PROD  FALSE
XC_GRID  000099000590
NL_GRID  1
MAX_SCF_CYCLES  200
GEOM_OPT_TOL_GRADIENT  100
GEOM_OPT_TOL_DISPLACEMENT  100
GEOM_OPT_TOL_ENERGY  10
$end

--------------------------------------------------------------
 ----------------------------------------------------------------
             Standard Nuclear Orientation (Angstroms)
    I     Atom           X                Y                Z
 ----------------------------------------------------------------
    1      C       1.9839655798     2.8343873569    -0.6530035790
    2      C       2.0889665948     1.3399289492    -0.2973932582
    3      C       3.4017166944     0.7321441035    -0.8222227424
    4      C       4.6254659785     1.5200300416    -0.3255741318
    5      C       4.5210827926     3.0122209378    -0.6783481608
    6      C       3.2094896156     3.6188525050    -0.1554554411
    7      H       3.4653882129    -0.3186255299    -0.5134835234
    8      H       2.0538505535     1.2303619181     0.7916336585
    9      H       1.9041773336     2.9373830819    -1.7471760654
   10      H       1.0604862058     3.2447823031    -0.2264495779
   11      H       4.7056113531     1.4098609561     0.7662015896
   12      H       5.5416784391     1.0893334561    -0.7496610014
   13      H       5.3807748665     3.5587419877    -0.2692766409
   14      H       4.5659637339     3.1311627355    -1.7719372538
   15      H       3.2192612515     3.6121018079     0.9447339030
   16      H       3.1260878858     4.6703627905    -0.4590864625
   17      H       3.3863457527     0.7409636912    -1.9242196110
   18      N       0.9315723625     0.5939302253    -0.7942938700
   19      H       0.8024957372     0.5217251348    -1.7968919912
   20      C       0.0000000000     0.0000000000     0.0000000000
   21      H      -0.7899738588    -0.5065817117    -0.5873052394
   22      O       0.0000000000     0.0000000000     1.2238135054
 ----------------------------------------------------------------
 Nuclear Repulsion Energy =         466.63298041 hartrees
 There are       35 alpha and       35 beta electrons
 Requested basis set is 6-31+G(d)
 There are 71 shells and 197 basis functions

 Total QAlloc Memory Limit   8000 MB
 Mega-Array Size      1956 MB
 MEM_STATIC part      2000 MB
 A cutoff of  1.0D-14 yielded   2413 shell pairs
 There are     18998 function pairs
 Smallest overlap matrix eigenvalue = 2.48E-05

 Scale SEOQF with 1.000000e-02/1.000000e-01/1.000000e-01

 Standard Electronic Orientation quadrupole field applied
 Nucleus-field energy     =     0.0000000184 hartrees
 Guess from superposition of atomic densities
 Warning:  Energy on first SCF cycle will be non-variational
 SAD guess density has 70.000000 electrons

 -----------------------------------------------------------------------
  General SCF calculation program by
  Eric Jon Sundstrom, Paul Horn, Yuezhi Mao, Dmitri Zuev, Alec White,
  David Stuck, Shaama M.S., Shane Yost, Joonho Lee, David Small,
  Daniel Levine, Susi Lehtola, Hugh Burton, Evgeny Epifanovsky,
  Bang C. Huynh
 -----------------------------------------------------------------------
 Exchange:     0.2000 Hartree-Fock + 0.0800 Slater + 0.7200 B88
 Correlation:  0.1900 VWN1RPA + 0.8100 LYP
 Using Euler-Maclaurin-Lebedev (99,590) quadrature formula
 using 16 threads for integral computing
 -------------------------------------------------------
 OpenMP Integral computing Module                
 Release: version 2.0, May 2017, Q-Chem Inc. Pleasanton 
 -------------------------------------------------------
 A restricted SCF calculation will be
 performed using DIIS
 SCF converges when DIIS error is below 1.0e-09
 ---------------------------------------
  Cycle       Energy         DIIS error
 ---------------------------------------
    1    -406.2319506888      5.08e-02  
    2    -404.3828268612      6.57e-03  
    3    -404.0044599407      1.18e-02  
    4    -404.5564536967      2.69e-03  
    5    -404.5851181091      6.68e-04  
    6    -404.5868372156      2.08e-04  
    7    -404.5870055969      7.44e-05  
    8    -404.5870292426      1.30e-05  
    9    -404.5870299264      4.46e-06  
   10    -404.5870300099      7.64e-07  
   11    -404.5870300122      3.02e-07  
   12    -404.5870300126      5.34e-08  
   13    -404.5870300126      1.07e-08  
   14    -404.5870300126      4.82e-09  
   15    -404.5870300126      1.01e-09  
   16    -404.5870300126      1.40e-10  Convergence criterion met
 ---------------------------------------
 SCF time:   CPU 747.25s  wall 47.00s 
 SCF   energy in the final basis set =     -404.5870300126
 Total energy in the final basis set =     -404.5870300126
 
 --------------------------------------------------------------
 
                    Orbital Energies (a.u.)
 --------------------------------------------------------------
 
 Alpha MOs
 -- Occupied --
-19.1268 -14.3743 -10.2916 -10.2325 -10.1950 -10.1938 -10.1924 -10.1918
-10.1907  -1.0379  -0.9352  -0.8347  -0.7529  -0.7511  -0.6439  -0.6228
 -0.5996  -0.5735  -0.5321  -0.4891  -0.4673  -0.4527  -0.4471  -0.4223
 -0.4167  -0.4042  -0.3899  -0.3784  -0.3574  -0.3557  -0.3338  -0.3238
 -0.3191  -0.2619  -0.2605
 -- Virtual --
 -0.0052   0.0044   0.0125   0.0175   0.0212   0.0310   0.0420   0.0467
  0.0513   0.0614   0.0619   0.0777   0.0828   0.0857   0.0930   0.0958
  0.1031   0.1110   0.1170   0.1287   0.1330   0.1444   0.1474   0.1570
  0.1664   0.1735   0.1770   0.1798   0.1916   0.1949   0.2053   0.2067
  0.2151   0.2172   0.2291   0.2387   0.2459   0.2479   0.2563   0.2617
  0.2771   0.2795   0.2802   0.2857   0.2889   0.3042   0.3111   0.3216
  0.3227   0.3277   0.3557   0.3614   0.3773   0.3820   0.4067   0.4114
  0.4332   0.4522   0.4933   0.6006   0.6298   0.6468   0.6560   0.6594
  0.6754   0.6904   0.7207   0.7250   0.7418   0.7450   0.7697   0.7778
  0.7944   0.7989   0.8138   0.8406   0.8501   0.9003   0.9461   0.9647
  0.9682   0.9811   1.0108   1.0195   1.0264   1.0451   1.0791   1.0862
  1.1066   1.1106   1.1153   1.1448   1.1515   1.1592   1.1690   1.1816
  1.2323   1.2593   1.2929   1.3370   1.3415   1.3687   1.3818   1.4090
  1.4743   1.4847   1.4888   1.5603   1.5678   1.6110   1.6978   1.7208
  1.7247   1.7512   1.7673   1.8034   1.8521   1.8677   1.8933   1.8976
  1.9030   1.9368   1.9740   2.0034   2.0072   2.0372   2.0468   2.0815
  2.0843   2.1236   2.1925   2.2146   2.2733   2.3041   2.3077   2.3403
  2.3931   2.4025   2.4081   2.4134   2.4442   2.5584   2.5797   2.6219
  2.6631   2.6788   2.6971   2.7518   2.7698   2.8253   2.8636   3.0142
  3.1895   4.0845   4.1903   4.2375   4.2834   4.3255   4.4180   4.5921
  4.5970   4.6649
 --------------------------------------------------------------
 
          Ground-State Mulliken Net Atomic Charges

     Atom                 Charge (a.u.)
  ----------------------------------------
      1 C                    -0.235785
      2 C                    -0.540178
      3 C                    -0.259387
      4 C                    -0.424293
      5 C                    -0.386028
      6 C                    -0.426067
      7 H                     0.212196
      8 H                     0.242674
      9 H                     0.194825
     10 H                     0.212558
     11 H                     0.204786
     12 H                     0.198401
     13 H                     0.196827
     14 H                     0.195747
     15 H                     0.204932
     16 H                     0.198466
     17 H                     0.193995
     18 N                    -0.370675
     19 H                     0.394200
     20 C                     0.333906
     21 H                     0.143012
     22 O                    -0.484112
  ----------------------------------------
  Sum of atomic charges =     0.000000

 -----------------------------------------------------------------
                    Cartesian Multipole Moments
 -----------------------------------------------------------------
    Charge (ESU x 10^10)
                 0.0000
    Dipole Moment (Debye)
         X       1.7037      Y       1.1143      Z      -3.6458
       Tot       4.1756
    Quadrupole Moments (Debye-Ang)
        XX     -51.6331     XY       3.4146     YY     -54.7434
        XZ      -0.0358     YZ      -0.0530     ZZ     -57.8466
    Octopole Moments (Debye-Ang^2)
       XXX    -393.5315    XXY     -81.1294    XYY    -130.2856
       YYY    -263.8001    XXZ      18.1993    XYZ      -0.4410
       YYZ      18.6084    XZZ    -133.1377    YZZ     -87.5921
       ZZZ      42.3265
    Hexadecapole Moments (Debye-Ang^3)
      XXXX   -2985.8992   XXXY    -848.9199   XXYY    -744.9721
      XYYY    -860.2535   YYYY   -1515.9201   XXXZ     211.7862
      XXYZ      46.5034   XYYZ      71.5449   YYYZ     126.5783
      XXZZ    -548.0454   XYZZ    -288.0503   YYZZ    -300.8910
      XZZZ     204.8175   YZZZ     123.6313   ZZZZ    -257.9464
 -----------------------------------------------------------------
 Calculating analytic gradient of the SCF energy
 Gradient of SCF Energy
            1           2           3           4           5           6
    1  -0.0000071   0.0000220  -0.0000406   0.0000070  -0.0000118   0.0000369
    2   0.0000574  -0.0000144   0.0000236  -0.0000521   0.0000061  -0.0000224
    3   0.0000039   0.0000016  -0.0000018  -0.0000044  -0.0000028   0.0000047
            7           8           9          10          11          12
    1   0.0000045  -0.0000065   0.0000003  -0.0000012  -0.0000006  -0.0000013
    2   0.0000040   0.0000041  -0.0000030  -0.0000025   0.0000065   0.0000056
    3   0.0000039   0.0000014  -0.0000008  -0.0000037   0.0000023   0.0000027
           13          14          15          16          17          18
    1  -0.0000045   0.0000017  -0.0000047  -0.0000055   0.0000021  -0.0000048
    2   0.0000070   0.0000013   0.0000019   0.0000001  -0.0000005   0.0000006
    3   0.0000006  -0.0000005  -0.0000028  -0.0000049   0.0000023  -0.0000006
           19          20          21          22
    1   0.0000022  -0.0000078   0.0000106   0.0000091
    2  -0.0000059   0.0000158  -0.0000173  -0.0000158
    3   0.0000003  -0.0000030   0.0000007   0.0000009
 Max gradient component =       5.744E-05
 RMS gradient           =       1.385E-05
 Gradient time:  CPU 119.30 s  wall 7.61 s
 Geometry Optimization Parameters
   NAtoms,    NIC,     NZ,  NCons,   NDum,   NFix, NCnnct, MaxDiis
       22     172       0       0       0       0       0       0


** GEOMETRY OPTIMIZATION IN DELOCALIZED INTERNAL COORDINATES **
   Searching for a Minimum

   Optimization Cycle:   1

                       Coordinates (Angstroms)
     ATOM                X               Y               Z
      1  C         1.9839655798    2.8343873569   -0.6530035790
      2  C         2.0889665948    1.3399289492   -0.2973932582
      3  C         3.4017166944    0.7321441035   -0.8222227424
      4  C         4.6254659785    1.5200300416   -0.3255741318
      5  C         4.5210827926    3.0122209378   -0.6783481608
      6  C         3.2094896156    3.6188525050   -0.1554554411
      7  H         3.4653882129   -0.3186255299   -0.5134835234
      8  H         2.0538505535    1.2303619181    0.7916336585
      9  H         1.9041773336    2.9373830819   -1.7471760654
     10  H         1.0604862058    3.2447823031   -0.2264495779
     11  H         4.7056113531    1.4098609561    0.7662015896
     12  H         5.5416784391    1.0893334561   -0.7496610014
     13  H         5.3807748665    3.5587419877   -0.2692766409
     14  H         4.5659637339    3.1311627355   -1.7719372538
     15  H         3.2192612515    3.6121018079    0.9447339030
     16  H         3.1260878858    4.6703627905   -0.4590864625
     17  H         3.3863457527    0.7409636912   -1.9242196110
     18  N         0.9315723625    0.5939302253   -0.7942938700
     19  H         0.8024957372    0.5217251348   -1.7968919912
     20  C         0.0000000000    0.0000000000    0.0000000000
     21  H        -0.7899738588   -0.5065817117   -0.5873052394
     22  O         0.0000000000    0.0000000000    1.2238135054
   Point Group: c1    Number of degrees of freedom:    60


   Energy is   -404.587030013


 Attempting to generate delocalized internal coordinates
 Initial Hessian constructed with Jon Baker's OPTIMIZE code

 60 Hessian modes will be used to form the next step
  Hessian Eigenvalues:
     0.005967    0.006024    0.006964    0.007193    0.012605    0.019501
     0.019786    0.020845    0.020845    0.037215    0.038526    0.039417
     0.041724    0.048166    0.048450    0.048891    0.055292    0.055631
     0.055746    0.059934    0.066958    0.081508    0.081536    0.081616
     0.082032    0.082133    0.084029    0.087513    0.120967    0.121178
     0.142989    0.159989    0.160000    0.160554    0.174868    0.210947
     0.220000    0.220003    0.272263    0.272658    0.275535    0.286789
     0.287121    0.287175    0.329119    0.334466    0.334727    0.335769
     0.336541    0.336553    0.339301    0.339441    0.339454    0.340119
     0.340274    0.342312    0.364811    0.454000    0.528079    0.937134

 Minimum search - taking simple RFO step
 Searching for Lamda that Minimizes Along All modes
 Value Taken    Lamda =  -0.00000030
 Step Taken.  Stepsize is  0.004729

                             Maximum     Tolerance    Cnvgd?
         Gradient           0.000095      0.000100     YES
         Displacement       0.002913      0.000100      NO
         Energy change     *********      0.000000      NO


 New Cartesian Coordinates Obtained by Inverse Iteration

 Displacement from previous Coordinates is:  0.011520
 ----------------------------------------------------------------
             Standard Nuclear Orientation (Angstroms)
    I     Atom           X                Y                Z
 ----------------------------------------------------------------
    1      C       1.9839251078     2.8335019670    -0.6528353045
    2      C       2.0894948280     1.3391059142    -0.2974237051
    3      C       3.4024877121     0.7318604383    -0.8224410231
    4      C       4.6259320803     1.5203380242    -0.3258690792
    5      C       4.5208721173     3.0125384932    -0.6783258639
    6      C       3.2090505587     3.6184859403    -0.1551712485
    7      H       3.4666218537    -0.3189266241    -0.5138438743
    8      H       2.0545110424     1.2294340389     0.7915951226
    9      H       1.9040465789     2.9366572473    -1.7469848801
   10      H       1.0602961983     3.2434527239    -0.2261719934
   11      H       4.7063356205     1.4099454898     0.7658619725
   12      H       5.5422597101     1.0901133321    -0.7502043568
   13      H       5.3804163655     3.5592917722    -0.2692551613
   14      H       4.5655592859     3.1317077568    -1.7718972724
   15      H       3.2189488516     3.6114299498     0.9450197200
   16      H       3.1251742242     4.6700422657    -0.4585011197
   17      H       3.3869702951     0.7408023765    -1.9244389881
   18      N       0.9320823948     0.5931262822    -0.7942882852
   19      H       0.8032180424     0.5205608924    -1.7968876290
   20      C      -0.0006397433     0.0010490432     0.0000428016
   21      H      -0.7913202962    -0.5044664413    -0.5872295011
   22      O      -0.0018357432     0.0030158579     1.2238537753
 ----------------------------------------------------------------
 Nuclear Repulsion Energy =         466.63451738 hartrees
 There are       35 alpha and       35 beta electrons
 Applying Cartesian multipole field
    Component          Value
    ---------          -----
     (2,0,0)        1.00000E-12
     (0,2,0)        2.00000E-11
     (0,0,2)       -3.00000E-11
 Nucleus-field energy     =     0.0000000184 hartrees
 Requested basis set is 6-31+G(d)
 There are 71 shells and 197 basis functions
 A cutoff of  1.0D-14 yielded   2413 shell pairs
 There are     18998 function pairs
 Smallest overlap matrix eigenvalue = 2.48E-05
 Guess MOs from SCF MO coefficient file

 -----------------------------------------------------------------------
  General SCF calculation program by
  Eric Jon Sundstrom, Paul Horn, Yuezhi Mao, Dmitri Zuev, Alec White,
  David Stuck, Shaama M.S., Shane Yost, Joonho Lee, David Small,
  Daniel Levine, Susi Lehtola, Hugh Burton, Evgeny Epifanovsky,
  Bang C. Huynh
 -----------------------------------------------------------------------
 Exchange:     0.2000 Hartree-Fock + 0.0800 Slater + 0.7200 B88
 Correlation:  0.1900 VWN1RPA + 0.8100 LYP
 Using Euler-Maclaurin-Lebedev (99,590) quadrature formula
 using 16 threads for integral computing
 -------------------------------------------------------
 OpenMP Integral computing Module                
 Release: version 2.0, May 2017, Q-Chem Inc. Pleasanton 
 -------------------------------------------------------
 A restricted SCF calculation will be
 performed using DIIS
 SCF converges when DIIS error is below 1.0e-09
 ---------------------------------------
  Cycle       Energy         DIIS error
 ---------------------------------------
    1    -404.5870258132      2.13e-05  
    2    -404.5870300612      2.74e-06  
    3    -404.5870301171      8.49e-07  
    4    -404.5870301201      3.43e-07  
    5    -404.5870301203      2.44e-07  
    6    -404.5870301205      6.13e-08  
    7    -404.5870301205      1.15e-08  
    8    -404.5870301205      5.33e-09  
    9    -404.5870301205      1.48e-09  
   10    -404.5870301205      2.51e-10  Convergence criterion met
 ---------------------------------------
 SCF time:   CPU 473.36s  wall 30.00s 
 SCF   energy in the final basis set =     -404.5870301205
 Total energy in the final basis set =     -404.5870301205
 
 --------------------------------------------------------------
 
                    Orbital Energies (a.u.)
 --------------------------------------------------------------
 
 Alpha MOs
 -- Occupied --
-19.1268 -14.3743 -10.2916 -10.2325 -10.1950 -10.1937 -10.1924 -10.1918
-10.1907  -1.0379  -0.9352  -0.8347  -0.7529  -0.7511  -0.6439  -0.6228
 -0.5996  -0.5735  -0.5321  -0.4891  -0.4673  -0.4527  -0.4471  -0.4223
 -0.4167  -0.4042  -0.3899  -0.3784  -0.3574  -0.3557  -0.3338  -0.3238
 -0.3191  -0.2620  -0.2605
 -- Virtual --
 -0.0052   0.0044   0.0125   0.0175   0.0212   0.0310   0.0420   0.0467
  0.0513   0.0614   0.0620   0.0777   0.0828   0.0857   0.0930   0.0958
  0.1031   0.1110   0.1171   0.1287   0.1331   0.1444   0.1474   0.1570
  0.1664   0.1735   0.1770   0.1798   0.1916   0.1949   0.2053   0.2067
  0.2151   0.2172   0.2291   0.2386   0.2459   0.2479   0.2564   0.2617
  0.2771   0.2795   0.2801   0.2857   0.2889   0.3042   0.3111   0.3216
  0.3227   0.3277   0.3557   0.3614   0.3773   0.3820   0.4067   0.4114
  0.4332   0.4522   0.4933   0.6006   0.6299   0.6468   0.6560   0.6594
  0.6754   0.6904   0.7207   0.7250   0.7416   0.7452   0.7697   0.7778
  0.7944   0.7990   0.8137   0.8407   0.8501   0.9004   0.9461   0.9647
  0.9682   0.9811   1.0108   1.0195   1.0265   1.0451   1.0791   1.0862
  1.1066   1.1106   1.1153   1.1449   1.1515   1.1592   1.1690   1.1816
  1.2323   1.2592   1.2929   1.3370   1.3416   1.3687   1.3819   1.4090
  1.4742   1.4847   1.4888   1.5603   1.5678   1.6109   1.6978   1.7208
  1.7247   1.7512   1.7673   1.8034   1.8521   1.8678   1.8933   1.8976
  1.9030   1.9368   1.9740   2.0034   2.0072   2.0372   2.0468   2.0815
  2.0844   2.1236   2.1925   2.2145   2.2734   2.3041   2.3076   2.3403
  2.3931   2.4025   2.4081   2.4134   2.4442   2.5584   2.5797   2.6219
  2.6631   2.6787   2.6972   2.7518   2.7698   2.8252   2.8636   3.0142
  3.1895   4.0845   4.1903   4.2375   4.2835   4.3255   4.4180   4.5921
  4.5970   4.6649
 --------------------------------------------------------------
 
          Ground-State Mulliken Net Atomic Charges

     Atom                 Charge (a.u.)
  ----------------------------------------
      1 C                    -0.235637
      2 C                    -0.540156
      3 C                    -0.259502
      4 C                    -0.424222
      5 C                    -0.386030
      6 C                    -0.426147
      7 H                     0.212182
      8 H                     0.242662
      9 H                     0.194836
     10 H                     0.212578
     11 H                     0.204784
     12 H                     0.198401
     13 H                     0.196827
     14 H                     0.195746
     15 H                     0.204933
     16 H                     0.198465
     17 H                     0.193982
     18 N                    -0.370713
     19 H                     0.394205
     20 C                     0.333883
     21 H                     0.143013
     22 O                    -0.484089
  ----------------------------------------
  Sum of atomic charges =     0.000000

 -----------------------------------------------------------------
                    Cartesian Multipole Moments
 -----------------------------------------------------------------
    Charge (ESU x 10^10)
                -0.0000
    Dipole Moment (Debye)
         X       1.7064      Y       1.1097      Z      -3.6458
       Tot       4.1755
    Quadrupole Moments (Debye-Ang)
        XX     -51.6317     XY       3.4141     YY     -54.7449
        XZ      -0.0302     YZ      -0.0621     ZZ     -57.8470
    Octopole Moments (Debye-Ang^2)
       XXX    -393.5124    XXY     -81.1362    XYY    -130.2845
       YYY    -263.8256    XXZ      18.1966    XYZ      -0.4396
       YYZ      18.6116    XZZ    -133.1233    YZZ     -87.6172
       ZZZ      42.3257
    Hexadecapole Moments (Debye-Ang^3)
      XXXX   -2986.1899   XXXY    -848.8343   XXYY    -744.9744
      XYYY    -860.1918   YYYY   -1515.5814   XXXZ     211.8621
      XXYZ      46.4645   XYYZ      71.5774   YYYZ     126.4673
      XXZZ    -548.0954   XYZZ    -288.0305   YYZZ    -300.8446
      XZZZ     204.8988   YZZZ     123.5142   ZZZZ    -257.9605
 -----------------------------------------------------------------
 Calculating analytic gradient of the SCF energy
 Gradient of SCF Energy
            1           2           3           4           5           6
    1  -0.0000060   0.0000077   0.0000092   0.0000069  -0.0000023   0.0000088
    2  -0.0000051  -0.0000079   0.0000027  -0.0000135   0.0000035  -0.0000106
    3  -0.0000103  -0.0000003   0.0000093  -0.0000051   0.0000006   0.0000029
            7           8           9          10          11          12
    1  -0.0000028  -0.0000058  -0.0000012   0.0000015  -0.0000003   0.0000001
    2  -0.0000011   0.0000056   0.0000010   0.0000007   0.0000012   0.0000027
    3  -0.0000004  -0.0000000  -0.0000003   0.0000003  -0.0000007   0.0000006
           13          14          15          16          17          18
    1  -0.0000017   0.0000002   0.0000002  -0.0000014  -0.0000007  -0.0000503
    2   0.0000039  -0.0000004   0.0000004   0.0000008   0.0000011   0.0000755
    3  -0.0000000   0.0000001  -0.0000002  -0.0000010   0.0000008   0.0000027
           19          20          21          22
    1  -0.0000040   0.0001093  -0.0000310  -0.0000363
    2   0.0000060  -0.0001702   0.0000486   0.0000550
    3   0.0000003  -0.0000005   0.0000002   0.0000009
 Max gradient component =       1.702E-04
 RMS gradient           =       2.963E-05
 Gradient time:  CPU 119.19 s  wall 7.52 s
 Geometry Optimization Parameters
   NAtoms,    NIC,     NZ,  NCons,   NDum,   NFix, NCnnct, MaxDiis
       22     172       0       0       0       0       0       0

 Cartesian Hessian Update
 Hessian updated using BFGS update


** GEOMETRY OPTIMIZATION IN DELOCALIZED INTERNAL COORDINATES **
   Searching for a Minimum

   Optimization Cycle:   2

                       Coordinates (Angstroms)
     ATOM                X               Y               Z
      1  C         1.9839251078    2.8335019670   -0.6528353045
      2  C         2.0894948280    1.3391059142   -0.2974237051
      3  C         3.4024877121    0.7318604383   -0.8224410231
      4  C         4.6259320803    1.5203380242   -0.3258690792
      5  C         4.5208721173    3.0125384932   -0.6783258639
      6  C         3.2090505587    3.6184859403   -0.1551712485
      7  H         3.4666218537   -0.3189266241   -0.5138438743
      8  H         2.0545110424    1.2294340389    0.7915951226
      9  H         1.9040465789    2.9366572473   -1.7469848801
     10  H         1.0602961983    3.2434527239   -0.2261719934
     11  H         4.7063356205    1.4099454898    0.7658619725
     12  H         5.5422597101    1.0901133321   -0.7502043568
     13  H         5.3804163655    3.5592917722   -0.2692551613
     14  H         4.5655592859    3.1317077568   -1.7718972724
     15  H         3.2189488516    3.6114299498    0.9450197200
     16  H         3.1251742242    4.6700422657   -0.4585011197
     17  H         3.3869702951    0.7408023765   -1.9244389881
     18  N         0.9320823948    0.5931262822   -0.7942882852
     19  H         0.8032180424    0.5205608924   -1.7968876290
     20  C        -0.0006397433    0.0010490432    0.0000428016
     21  H        -0.7913202962   -0.5044664413   -0.5872295011
     22  O        -0.0018357432    0.0030158579    1.2238537753
   Point Group: c1    Number of degrees of freedom:    60


   Energy is   -404.587030121

 Hessian updated using BFGS update

 60 Hessian modes will be used to form the next step
  Hessian Eigenvalues:
     0.003108    0.005993    0.006030    0.006964    0.010983    0.019501
     0.019785    0.020804    0.037214    0.038523    0.039228    0.041706
     0.047887    0.048234    0.048880    0.054969    0.055322    0.055650
     0.059925    0.064797    0.069088    0.081448    0.081510    0.081837
     0.082032    0.082591    0.084027    0.090328    0.120805    0.121179
     0.143676    0.159989    0.160000    0.160615    0.179733    0.210943
     0.219962    0.220004    0.272364    0.273650    0.276596    0.286820
     0.287127    0.287764    0.329119    0.334451    0.334725    0.335770
     0.336532    0.336558    0.339302    0.339401    0.339447    0.340133
     0.340270    0.342316    0.364764    0.454000    0.528078    0.937133

 Minimum search - taking simple RFO step
 Searching for Lamda that Minimizes Along All modes
 Value Taken    Lamda =  -0.00000048
 Step Taken.  Stepsize is  0.009727

                             Maximum     Tolerance    Cnvgd?
         Gradient           0.000098      0.000100     YES
         Displacement       0.005214      0.000100      NO
         Energy change     -0.000000      0.000000      NO


 New Cartesian Coordinates Obtained by Inverse Iteration

 Displacement from previous Coordinates is:  0.019159
 ----------------------------------------------------------------
             Standard Nuclear Orientation (Angstroms)
    I     Atom           X                Y                Z
 ----------------------------------------------------------------
    1      C       1.9838661417     2.8320941048    -0.6524900700
    2      C       2.0903543451     1.3377668155    -0.2974731055
    3      C       3.4037007106     0.7314102910    -0.8228642030
    4      C       4.6266456246     1.5208303580    -0.3263880220
    5      C       4.5205215333     3.0130527391    -0.6782894560
    6      C       3.2083558569     3.6179148794    -0.1546616963
    7      H       3.4686102789    -0.3194123203    -0.5145337699
    8      H       2.0556218641     1.2278878538     0.7915306833
    9      H       1.9038152720     2.9355414046    -1.7465965003
   10      H       1.0599998568     3.2413035168    -0.2256167773
   11      H       4.7074731277     1.4100351137     0.7652666320
   12      H       5.5431472187     1.0913600548    -0.7511444494
   13      H       5.3798624163     3.5601261801    -0.2692236189
   14      H       4.5648734977     3.1326219144    -1.7718299093
   15      H       3.2184905416     3.6103402008     0.9455313909
   16      H       3.1237186370     4.6695508712    -0.4574809147
   17      H       3.3879265924     0.7405913201    -1.9248643664
   18      N       0.9329219342     0.5918070287    -0.7942814836
   19      H       0.8047355603     0.5181418866    -1.7968874940
   20      C      -0.0023830282     0.0038830951     0.0001023010
   21      H      -0.7930113704    -0.5017868565    -0.5871061831
   22      O      -0.0048395262     0.0080062888     1.2239051184
 ----------------------------------------------------------------
 Nuclear Repulsion Energy =         466.63793365 hartrees
 There are       35 alpha and       35 beta electrons
 Applying Cartesian multipole field
    Component          Value
    ---------          -----
     (2,0,0)        1.00000E-12
     (0,2,0)        2.00000E-11
     (0,0,2)       -3.00000E-11
 Nucleus-field energy     =     0.0000000184 hartrees
 Requested basis set is 6-31+G(d)
 There are 71 shells and 197 basis functions
 A cutoff of  1.0D-14 yielded   2413 shell pairs
 There are     18998 function pairs
 Smallest overlap matrix eigenvalue = 2.48E-05
 Guess MOs from SCF MO coefficient file

 -----------------------------------------------------------------------
  General SCF calculation program by
  Eric Jon Sundstrom, Paul Horn, Yuezhi Mao, Dmitri Zuev, Alec White,
  David Stuck, Shaama M.S., Shane Yost, Joonho Lee, David Small,
  Daniel Levine, Susi Lehtola, Hugh Burton, Evgeny Epifanovsky,
  Bang C. Huynh
 -----------------------------------------------------------------------
 Exchange:     0.2000 Hartree-Fock + 0.0800 Slater + 0.7200 B88
 Correlation:  0.1900 VWN1RPA + 0.8100 LYP
 Using Euler-Maclaurin-Lebedev (99,590) quadrature formula
 using 16 threads for integral computing
 -------------------------------------------------------
 OpenMP Integral computing Module                
 Release: version 2.0, May 2017, Q-Chem Inc. Pleasanton 
 -------------------------------------------------------
 A restricted SCF calculation will be
 performed using DIIS
 SCF converges when DIIS error is below 1.0e-09
 ---------------------------------------
  Cycle       Energy         DIIS error
 ---------------------------------------
    1    -404.5870195687      3.31e-05  
    2    -404.5870302304      4.05e-06  
    3    -404.5870303667      1.41e-06  
    4    -404.5870303747      5.91e-07  
    5    -404.5870303759      3.25e-07  
    6    -404.5870303762      1.59e-07  
    7    -404.5870303763      2.27e-08  
    8    -404.5870303763      9.08e-09  
    9    -404.5870303763      3.64e-09  
   10    -404.5870303763      4.10e-10  Convergence criterion met
 ---------------------------------------
 SCF time:   CPU 478.68s  wall 30.00s 
 SCF   energy in the final basis set =     -404.5870303763
 Total energy in the final basis set =     -404.5870303763
 
 --------------------------------------------------------------
 
                    Orbital Energies (a.u.)
 --------------------------------------------------------------
 
 Alpha MOs
 -- Occupied --
-19.1268 -14.3743 -10.2916 -10.2325 -10.1951 -10.1937 -10.1924 -10.1918
-10.1907  -1.0379  -0.9352  -0.8347  -0.7529  -0.7511  -0.6439  -0.6228
 -0.5996  -0.5735  -0.5321  -0.4891  -0.4673  -0.4527  -0.4471  -0.4223
 -0.4167  -0.4042  -0.3899  -0.3784  -0.3574  -0.3557  -0.3338  -0.3238
 -0.3191  -0.2620  -0.2605
 -- Virtual --
 -0.0052   0.0044   0.0125   0.0175   0.0212   0.0310   0.0420   0.0467
  0.0513   0.0613   0.0620   0.0777   0.0828   0.0857   0.0930   0.0958
  0.1031   0.1110   0.1171   0.1287   0.1331   0.1444   0.1475   0.1570
  0.1664   0.1735   0.1770   0.1798   0.1916   0.1950   0.2053   0.2067
  0.2151   0.2172   0.2291   0.2386   0.2459   0.2478   0.2564   0.2617
  0.2770   0.2796   0.2802   0.2857   0.2890   0.3042   0.3111   0.3216
  0.3226   0.3278   0.3557   0.3614   0.3773   0.3821   0.4067   0.4114
  0.4331   0.4522   0.4933   0.6005   0.6299   0.6468   0.6560   0.6594
  0.6754   0.6904   0.7207   0.7250   0.7415   0.7453   0.7697   0.7779
  0.7944   0.7990   0.8136   0.8407   0.8501   0.9004   0.9462   0.9647
  0.9682   0.9811   1.0108   1.0195   1.0265   1.0451   1.0791   1.0862
  1.1066   1.1106   1.1153   1.1449   1.1515   1.1592   1.1690   1.1816
  1.2323   1.2592   1.2929   1.3371   1.3415   1.3686   1.3820   1.4090
  1.4738   1.4849   1.4890   1.5603   1.5677   1.6109   1.6978   1.7208
  1.7247   1.7512   1.7673   1.8035   1.8521   1.8678   1.8933   1.8976
  1.9030   1.9367   1.9740   2.0034   2.0073   2.0372   2.0468   2.0814
  2.0845   2.1236   2.1925   2.2143   2.2736   2.3041   2.3076   2.3403
  2.3931   2.4025   2.4081   2.4134   2.4442   2.5584   2.5797   2.6219
  2.6631   2.6788   2.6973   2.7518   2.7697   2.8252   2.8637   3.0142
  3.1895   4.0846   4.1904   4.2376   4.2835   4.3255   4.4180   4.5921
  4.5971   4.6649
 --------------------------------------------------------------
 
          Ground-State Mulliken Net Atomic Charges

     Atom                 Charge (a.u.)
  ----------------------------------------
      1 C                    -0.235168
      2 C                    -0.540168
      3 C                    -0.259889
      4 C                    -0.424079
      5 C                    -0.386030
      6 C                    -0.426302
      7 H                     0.212179
      8 H                     0.242645
      9 H                     0.194861
     10 H                     0.212588
     11 H                     0.204784
     12 H                     0.198403
     13 H                     0.196827
     14 H                     0.195746
     15 H                     0.204933
     16 H                     0.198463
     17 H                     0.193956
     18 N                    -0.370778
     19 H                     0.394209
     20 C                     0.333856
     21 H                     0.143014
     22 O                    -0.484051
  ----------------------------------------
  Sum of atomic charges =     0.000000

 -----------------------------------------------------------------
                    Cartesian Multipole Moments
 -----------------------------------------------------------------
    Charge (ESU x 10^10)
                 0.0000
    Dipole Moment (Debye)
         X       1.7110      Y       1.1019      Z      -3.6458
       Tot       4.1754
    Quadrupole Moments (Debye-Ang)
        XX     -51.6284     XY       3.4128     YY     -54.7483
        XZ      -0.0225     YZ      -0.0754     ZZ     -57.8475
    Octopole Moments (Debye-Ang^2)
       XXX    -393.4611    XXY     -81.1543    XYY    -130.2827
       YYY    -263.8907    XXZ      18.1901    XYZ      -0.4366
       YYZ      18.6182    XZZ    -133.0917    YZZ     -87.6708
       ZZZ      42.3248
    Hexadecapole Moments (Debye-Ang^3)
      XXXX   -2986.6077   XXXY    -848.6968   XXYY    -744.9825
      XYYY    -860.1024   YYYY   -1515.0620   XXXZ     211.9845
      XXYZ      46.3978   XYYZ      71.6325   YYYZ     126.2795
      XXZZ    -548.1672   XYZZ    -288.0007   YYZZ    -300.7769
      XZZZ     205.0316   YZZZ     123.3180   ZZZZ    -257.9830
 -----------------------------------------------------------------
 Calculating analytic gradient of the SCF energy
 Gradient of SCF Energy
            1           2           3           4           5           6
    1  -0.0000096  -0.0000038   0.0000928   0.0000026   0.0000136  -0.0000382
    2  -0.0001072  -0.0000162  -0.0000264   0.0000522  -0.0000026   0.0000131
    3  -0.0000294  -0.0000042   0.0000248  -0.0000021   0.0000052  -0.0000034
            7           8           9          10          11          12
    1  -0.0000134  -0.0000059  -0.0000019   0.0000052   0.0000012   0.0000021
    2  -0.0000084   0.0000117   0.0000082   0.0000061  -0.0000077  -0.0000033
    3  -0.0000070  -0.0000021   0.0000002   0.0000064  -0.0000046  -0.0000036
           13          14          15          16          17          18
    1   0.0000035  -0.0000023   0.0000071   0.0000057  -0.0000064  -0.0000612
    2  -0.0000033  -0.0000026  -0.0000029   0.0000017   0.0000024   0.0000982
    3  -0.0000012   0.0000007   0.0000035   0.0000059  -0.0000015   0.0000092
           19          20          21          22
    1   0.0000013   0.0000015   0.0000001   0.0000058
    2   0.0000002  -0.0000035   0.0000013  -0.0000109
    3   0.0000003   0.0000017   0.0000001   0.0000008
 Max gradient component =       1.072E-04
 RMS gradient           =       2.520E-05
 Gradient time:  CPU 119.91 s  wall 7.64 s
 Geometry Optimization Parameters
   NAtoms,    NIC,     NZ,  NCons,   NDum,   NFix, NCnnct, MaxDiis
       22     172       0       0       0       0       0       0

 Cartesian Hessian Update
 Hessian updated using BFGS update


** GEOMETRY OPTIMIZATION IN DELOCALIZED INTERNAL COORDINATES **
   Searching for a Minimum

   Optimization Cycle:   3

                       Coordinates (Angstroms)
     ATOM                X               Y               Z
      1  C         1.9838661417    2.8320941048   -0.6524900700
      2  C         2.0903543451    1.3377668155   -0.2974731055
      3  C         3.4037007106    0.7314102910   -0.8228642030
      4  C         4.6266456246    1.5208303580   -0.3263880220
      5  C         4.5205215333    3.0130527391   -0.6782894560
      6  C         3.2083558569    3.6179148794   -0.1546616963
      7  H         3.4686102789   -0.3194123203   -0.5145337699
      8  H         2.0556218641    1.2278878538    0.7915306833
      9  H         1.9038152720    2.9355414046   -1.7465965003
     10  H         1.0599998568    3.2413035168   -0.2256167773
     11  H         4.7074731277    1.4100351137    0.7652666320
     12  H         5.5431472187    1.0913600548   -0.7511444494
     13  H         5.3798624163    3.5601261801   -0.2692236189
     14  H         4.5648734977    3.1326219144   -1.7718299093
     15  H         3.2184905416    3.6103402008    0.9455313909
     16  H         3.1237186370    4.6695508712   -0.4574809147
     17  H         3.3879265924    0.7405913201   -1.9248643664
     18  N         0.9329219342    0.5918070287   -0.7942814836
     19  H         0.8047355603    0.5181418866   -1.7968874940
     20  C        -0.0023830282    0.0038830951    0.0001023010
     21  H        -0.7930113704   -0.5017868565   -0.5871061831
     22  O        -0.0048395262    0.0080062888    1.2239051184
   Point Group: c1    Number of degrees of freedom:    60


   Energy is   -404.587030376

 Hessian updated using BFGS update

 60 Hessian modes will be used to form the next step
  Hessian Eigenvalues:
     0.001618    0.006010    0.006063    0.006965    0.011062    0.019513
     0.019787    0.020995    0.037215    0.038527    0.039671    0.041748
     0.048178    0.048464    0.048900    0.055285    0.055644    0.056093
     0.059934    0.067152    0.081166    0.081464    0.081541    0.081933
     0.082046    0.082978    0.084027    0.094188    0.120908    0.121180
     0.152763    0.159992    0.160002    0.160688    0.199862    0.210947
     0.219910    0.220003    0.272394    0.273835    0.279616    0.286977
     0.287127    0.314534    0.329121    0.334469    0.334727    0.335776
     0.336546    0.336673    0.339300    0.339433    0.339538    0.340263
     0.340311    0.342370    0.364947    0.454000    0.528083    0.937132

 Minimum search - taking simple RFO step
 Searching for Lamda that Minimizes Along All modes
 Value Taken    Lamda =  -0.00000040
 Step Taken.  Stepsize is  0.011892

                             Maximum     Tolerance    Cnvgd?
         Gradient           0.000154      0.000100      NO
         Displacement       0.006767      0.000100      NO
         Energy change     -0.000000      0.000000      NO


 New Cartesian Coordinates Obtained by Inverse Iteration

 Displacement from previous Coordinates is:  0.021609
 ----------------------------------------------------------------
             Standard Nuclear Orientation (Angstroms)
    I     Atom           X                Y                Z
 ----------------------------------------------------------------
    1      C       1.9836978020     2.8310233131    -0.6517996967
    2      C       2.0911726688     1.3365375908    -0.2974708653
    3      C       3.4046423117     0.7311995513    -0.8235314778
    4      C       4.6271755079     1.5211935399    -0.3269815062
    5      C       4.5201730890     3.0134762924    -0.6782934980
    6      C       3.2078259179     3.6174600558    -0.1540654510
    7      H       3.4703689454    -0.3196936903    -0.5156318335
    8      H       2.0568637109     1.2261862496     0.7915017152
    9      H       1.9032733542     2.9348290694    -1.7458404845
   10      H       1.0596702021     3.2394541991    -0.2245202851
   11      H       4.7082968298     1.4099991279     0.7646123804
   12      H       5.5438210425     1.0923757067    -0.7520974989
   13      H       5.3793827826     3.5607706152    -0.2692546638
   14      H       4.5641619120     3.1334935458    -1.7718008209
   15      H       3.2182920608     3.6095075490     0.9461229671
   16      H       3.1225034861     4.6691452670    -0.4565027880
   17      H       3.3885913184     0.7408239509    -1.9255286231
   18      N       0.9342404314     0.5898088144    -0.7942795690
   19      H       0.8072252169     0.5143250073    -1.7968997194
   20      C      -0.0039581510     0.0064878338     0.0000867073
   21      H      -0.7942105707    -0.4998150141    -0.5870830804
   22      O      -0.0088027837     0.0144781658     1.2238621978
 ----------------------------------------------------------------
 Nuclear Repulsion Energy =         466.64308499 hartrees
 There are       35 alpha and       35 beta electrons
 Applying Cartesian multipole field
    Component          Value
    ---------          -----
     (2,0,0)        1.00000E-12
     (0,2,0)        2.00000E-11
     (0,0,2)       -3.00000E-11
 Nucleus-field energy     =     0.0000000184 hartrees
 Requested basis set is 6-31+G(d)
 There are 71 shells and 197 basis functions
 A cutoff of  1.0D-14 yielded   2412 shell pairs
 There are     18997 function pairs
 Smallest overlap matrix eigenvalue = 2.48E-05
 Guess MOs from SCF MO coefficient file

 -----------------------------------------------------------------------
  General SCF calculation program by
  Eric Jon Sundstrom, Paul Horn, Yuezhi Mao, Dmitri Zuev, Alec White,
  David Stuck, Shaama M.S., Shane Yost, Joonho Lee, David Small,
  Daniel Levine, Susi Lehtola, Hugh Burton, Evgeny Epifanovsky,
  Bang C. Huynh
 -----------------------------------------------------------------------
 Exchange:     0.2000 Hartree-Fock + 0.0800 Slater + 0.7200 B88
 Correlation:  0.1900 VWN1RPA + 0.8100 LYP
 Using Euler-Maclaurin-Lebedev (99,590) quadrature formula
 using 16 threads for integral computing
 -------------------------------------------------------
 OpenMP Integral computing Module                
 Release: version 2.0, May 2017, Q-Chem Inc. Pleasanton 
 -------------------------------------------------------
 A restricted SCF calculation will be
 performed using DIIS
 SCF converges when DIIS error is below 1.0e-09
 ---------------------------------------
  Cycle       Energy         DIIS error
 ---------------------------------------
    1    -404.5870112507      4.49e-05  
    2    -404.5870304749      5.94e-06  
    3    -404.5870307230      2.52e-06  
    4    -404.5870307471      1.17e-06  
    5    -404.5870307525      4.39e-07  
    6    -404.5870307530      2.69e-07  
    7    -404.5870307533      3.07e-08  
    8    -404.5870307533      1.40e-08  
    9    -404.5870307533      3.68e-09  
   10    -404.5870307533      5.17e-10  Convergence criterion met
 ---------------------------------------
 SCF time:   CPU 485.25s  wall 30.00s 
 SCF   energy in the final basis set =     -404.5870307533
 Total energy in the final basis set =     -404.5870307533
 
 --------------------------------------------------------------
 
                    Orbital Energies (a.u.)
 --------------------------------------------------------------
 
 Alpha MOs
 -- Occupied --
-19.1268 -14.3743 -10.2916 -10.2325 -10.1951 -10.1937 -10.1924 -10.1918
-10.1907  -1.0379  -0.9352  -0.8347  -0.7529  -0.7511  -0.6439  -0.6228
 -0.5996  -0.5735  -0.5321  -0.4891  -0.4673  -0.4527  -0.4471  -0.4223
 -0.4167  -0.4042  -0.3899  -0.3784  -0.3574  -0.3557  -0.3338  -0.3238
 -0.3191  -0.2620  -0.2604
 -- Virtual --
 -0.0052   0.0044   0.0125   0.0175   0.0212   0.0310   0.0420   0.0467
  0.0513   0.0613   0.0620   0.0777   0.0828   0.0857   0.0930   0.0958
  0.1030   0.1110   0.1171   0.1287   0.1331   0.1443   0.1475   0.1570
  0.1664   0.1734   0.1771   0.1799   0.1916   0.1950   0.2053   0.2067
  0.2151   0.2172   0.2291   0.2386   0.2458   0.2478   0.2565   0.2617
  0.2770   0.2796   0.2802   0.2857   0.2890   0.3042   0.3111   0.3216
  0.3226   0.3278   0.3557   0.3614   0.3773   0.3821   0.4067   0.4114
  0.4331   0.4522   0.4932   0.6005   0.6300   0.6468   0.6560   0.6594
  0.6754   0.6904   0.7206   0.7249   0.7413   0.7454   0.7696   0.7779
  0.7944   0.7990   0.8135   0.8407   0.8502   0.9004   0.9462   0.9647
  0.9682   0.9811   1.0108   1.0195   1.0265   1.0452   1.0791   1.0863
  1.1065   1.1106   1.1153   1.1449   1.1514   1.1592   1.1689   1.1816
  1.2322   1.2592   1.2929   1.3371   1.3414   1.3685   1.3821   1.4090
  1.4736   1.4850   1.4892   1.5603   1.5677   1.6108   1.6979   1.7208
  1.7248   1.7513   1.7673   1.8036   1.8520   1.8679   1.8933   1.8977
  1.9029   1.9367   1.9740   2.0034   2.0073   2.0372   2.0469   2.0813
  2.0846   2.1235   2.1925   2.2141   2.2739   2.3040   2.3077   2.3403
  2.3931   2.4024   2.4082   2.4134   2.4442   2.5584   2.5797   2.6219
  2.6631   2.6788   2.6973   2.7518   2.7697   2.8252   2.8637   3.0142
  3.1895   4.0846   4.1904   4.2376   4.2835   4.3255   4.4179   4.5921
  4.5971   4.6648
 --------------------------------------------------------------
 
          Ground-State Mulliken Net Atomic Charges

     Atom                 Charge (a.u.)
  ----------------------------------------
      1 C                    -0.234526
      2 C                    -0.540020
      3 C                    -0.260567
      4 C                    -0.423923
      5 C                    -0.386027
      6 C                    -0.426486
      7 H                     0.212185
      8 H                     0.242615
      9 H                     0.194887
     10 H                     0.212603
     11 H                     0.204777
     12 H                     0.198398
     13 H                     0.196827
     14 H                     0.195746
     15 H                     0.204941
     16 H                     0.198470
     17 H                     0.193933
     18 N                    -0.370854
     19 H                     0.394206
     20 C                     0.333809
     21 H                     0.143014
     22 O                    -0.484007
  ----------------------------------------
  Sum of atomic charges =     0.000000

 -----------------------------------------------------------------
                    Cartesian Multipole Moments
 -----------------------------------------------------------------
    Charge (ESU x 10^10)
                 0.0000
    Dipole Moment (Debye)
         X       1.7180      Y       1.0906      Z      -3.6458
       Tot       4.1752
    Quadrupole Moments (Debye-Ang)
        XX     -51.6274     XY       3.4123     YY     -54.7495
        XZ      -0.0130     YZ      -0.0913     ZZ     -57.8472
    Octopole Moments (Debye-Ang^2)
       XXX    -393.4114    XXY     -81.1787    XYY    -130.2750
       YYY    -263.9622    XXZ      18.1821    XYZ      -0.4330
       YYZ      18.6259    XZZ    -133.0479    YZZ     -87.7412
       ZZZ      42.3254
    Hexadecapole Moments (Debye-Ang^3)
      XXXX   -2987.0123   XXXY    -848.5864   XXYY    -744.9869
      XYYY    -860.0058   YYYY   -1514.5766   XXXZ     212.1408
      XXYZ      46.3099   XYYZ      71.6953   YYYZ     126.0273
      XXZZ    -548.2148   XYZZ    -287.9740   YYZZ    -300.7226
      XZZZ     205.1893   YZZZ     123.0693   ZZZZ    -257.9961
 -----------------------------------------------------------------
 Calculating analytic gradient of the SCF energy
 Gradient of SCF Energy
            1           2           3           4           5           6
    1   0.0000082  -0.0000088   0.0000802  -0.0000157   0.0000153  -0.0000470
    2  -0.0001001  -0.0000111  -0.0000372   0.0000679  -0.0000106   0.0000365
    3  -0.0000167  -0.0000037   0.0000113   0.0000155   0.0000017  -0.0000157
            7           8           9          10          11          12
    1  -0.0000084  -0.0000016   0.0000015   0.0000001   0.0000036  -0.0000012
    2  -0.0000027   0.0000053   0.0000115   0.0000078  -0.0000093  -0.0000092
    3  -0.0000050  -0.0000021   0.0000004   0.0000047  -0.0000031  -0.0000065
           13          14          15          16          17          18
    1   0.0000056  -0.0000026   0.0000054   0.0000094  -0.0000097  -0.0000311
    2  -0.0000104  -0.0000010  -0.0000051   0.0000015  -0.0000002   0.0000611
    3  -0.0000015  -0.0000004   0.0000039   0.0000084  -0.0000025   0.0000081
           19          20          21          22
    1  -0.0000013  -0.0000251   0.0000062   0.0000170
    2   0.0000033   0.0000372  -0.0000075  -0.0000279
    3   0.0000002   0.0000035   0.0000001  -0.0000006
 Max gradient component =       1.001E-04
 RMS gradient           =       2.362E-05
 Gradient time:  CPU 122.03 s  wall 7.72 s
 Geometry Optimization Parameters
   NAtoms,    NIC,     NZ,  NCons,   NDum,   NFix, NCnnct, MaxDiis
       22     172       0       0       0       0       0       0

 Cartesian Hessian Update
 Hessian updated using BFGS update


** GEOMETRY OPTIMIZATION IN DELOCALIZED INTERNAL COORDINATES **
   Searching for a Minimum

   Optimization Cycle:   4

                       Coordinates (Angstroms)
     ATOM                X               Y               Z
      1  C         1.9836978020    2.8310233131   -0.6517996967
      2  C         2.0911726688    1.3365375908   -0.2974708653
      3  C         3.4046423117    0.7311995513   -0.8235314778
      4  C         4.6271755079    1.5211935399   -0.3269815062
      5  C         4.5201730890    3.0134762924   -0.6782934980
      6  C         3.2078259179    3.6174600558   -0.1540654510
      7  H         3.4703689454   -0.3196936903   -0.5156318335
      8  H         2.0568637109    1.2261862496    0.7915017152
      9  H         1.9032733542    2.9348290694   -1.7458404845
     10  H         1.0596702021    3.2394541991   -0.2245202851
     11  H         4.7082968298    1.4099991279    0.7646123804
     12  H         5.5438210425    1.0923757067   -0.7520974989
     13  H         5.3793827826    3.5607706152   -0.2692546638
     14  H         4.5641619120    3.1334935458   -1.7718008209
     15  H         3.2182920608    3.6095075490    0.9461229671
     16  H         3.1225034861    4.6691452670   -0.4565027880
     17  H         3.3885913184    0.7408239509   -1.9255286231
     18  N         0.9342404314    0.5898088144   -0.7942795690
     19  H         0.8072252169    0.5143250073   -1.7968997194
     20  C        -0.0039581510    0.0064878338    0.0000867073
     21  H        -0.7942105707   -0.4998150141   -0.5870830804
     22  O        -0.0088027837    0.0144781658    1.2238621978
   Point Group: c1    Number of degrees of freedom:    60


   Energy is   -404.587030753

 Hessian updated using BFGS update

 60 Hessian modes will be used to form the next step
  Hessian Eigenvalues:
     0.000141    0.006013    0.006061    0.006965    0.011947    0.019624
     0.019789    0.021152    0.037214    0.038527    0.041513    0.042188
     0.048126    0.048634    0.048910    0.055296    0.055644    0.058770
     0.060014    0.067871    0.078953    0.081492    0.081654    0.081872
     0.082051    0.083992    0.084345    0.109303    0.121176    0.123750
     0.140065    0.159990    0.160000    0.160759    0.196878    0.210967
     0.219933    0.220006    0.272398    0.274225    0.281978    0.286869
     0.287050    0.302595    0.329126    0.334497    0.334722    0.335812
     0.336531    0.336656    0.339350    0.339442    0.339463    0.340189
     0.342251    0.342518    0.365772    0.454002    0.528077    0.937196

 Minimum search - taking simple RFO step
 Searching for Lamda that Minimizes Along All modes
 Value Taken    Lamda =  -0.00000616
 Step Taken.  Stepsize is  0.200764

                             Maximum     Tolerance    Cnvgd?
         Gradient           0.000113      0.000100      NO
         Displacement       0.119690      0.000100      NO
         Energy change     -0.000000      0.000000      NO


 New Cartesian Coordinates Obtained by Inverse Iteration

 Displacement from previous Coordinates is:  0.375801
 ----------------------------------------------------------------
             Standard Nuclear Orientation (Angstroms)
    I     Atom           X                Y                Z
 ----------------------------------------------------------------
    1      C       1.9804669631     2.8122417172    -0.6396819878
    2      C       2.1049421713     1.3157419934    -0.2963604000
    3      C       3.4206069024     0.7275538359    -0.8338538174
    4      C       4.6370935550     1.5272370684    -0.3379999273
    5      C       4.5139890948     3.0205966483    -0.6786592080
    6      C       3.1986849198     3.6085034187    -0.1432821671
    7      H       3.5000169983    -0.3244615001    -0.5331717549
    8      H       2.0778009664     1.1985707788     0.7921500999
    9      H       1.8932372099     2.9216664871    -1.7325822610
   10      H       1.0541074187     3.2075081219    -0.2051173578
   11      H       4.7245403026     1.4094385369     0.7524182708
   12      H       5.5558979957     1.1101732800    -0.7702429825
   13      H       5.3706063512     3.5725797187    -0.2705318987
   14      H       4.5509153591     3.1484595295    -1.7715447127
   15      H       3.2153011479     3.5938093236     0.9567713544
   16      H       3.1011465003     4.6610345366    -0.4387542632
   17      H       3.3992162549     0.7442800671    -1.9357386451
   18      N       0.9558703051     0.5564737704    -0.7924226701
   19      H       0.8502605929     0.4477183610    -1.7944726663
   20      C      -0.0300432795     0.0514857579    -0.0021782067
   21      H      -0.8133105031    -0.4666567236    -0.5883983872
   22      O      -0.0769401418     0.1291120130     1.2182576950
 ----------------------------------------------------------------
 Nuclear Repulsion Energy =         466.75786995 hartrees
 There are       35 alpha and       35 beta electrons
 Applying Cartesian multipole field
    Component          Value
    ---------          -----
     (2,0,0)        1.00000E-12
     (0,2,0)        2.00000E-11
     (0,0,2)       -3.00000E-11
 Nucleus-field energy     =     0.0000000183 hartrees
 Requested basis set is 6-31+G(d)
 There are 71 shells and 197 basis functions
 A cutoff of  1.0D-14 yielded   2411 shell pairs
 There are     19001 function pairs
 Smallest overlap matrix eigenvalue = 2.49E-05
 Guess MOs from SCF MO coefficient file

 -----------------------------------------------------------------------
  General SCF calculation program by
  Eric Jon Sundstrom, Paul Horn, Yuezhi Mao, Dmitri Zuev, Alec White,
  David Stuck, Shaama M.S., Shane Yost, Joonho Lee, David Small,
  Daniel Levine, Susi Lehtola, Hugh Burton, Evgeny Epifanovsky,
  Bang C. Huynh
 -----------------------------------------------------------------------
 Exchange:     0.2000 Hartree-Fock + 0.0800 Slater + 0.7200 B88
 Correlation:  0.1900 VWN1RPA + 0.8100 LYP
 Using Euler-Maclaurin-Lebedev (99,590) quadrature formula
 using 16 threads for integral computing
 -------------------------------------------------------
 OpenMP Integral computing Module                
 Release: version 2.0, May 2017, Q-Chem Inc. Pleasanton 
 -------------------------------------------------------
 A restricted SCF calculation will be
 performed using DIIS
 SCF converges when DIIS error is below 1.0e-09
 ---------------------------------------
  Cycle       Energy         DIIS error
 ---------------------------------------
    1    -404.5810837165      7.85e-04  
    2    -404.5869472166      1.08e-04  
    3    -404.5870146851      7.10e-05  
    4    -404.5870281449      4.32e-05  
    5    -404.5870344778      1.19e-05  
    6    -404.5870349888      4.53e-06  
    7    -404.5870350749      1.01e-06  
    8    -404.5870350795      2.35e-07  
    9    -404.5870350797      4.46e-08  
   10    -404.5870350797      1.04e-08  
   11    -404.5870350797      4.49e-09  
   12    -404.5870350797      1.22e-09  
   13    -404.5870350797      4.73e-10  Convergence criterion met
 ---------------------------------------
 SCF time:   CPU 629.97s  wall 40.00s 
 SCF   energy in the final basis set =     -404.5870350797
 Total energy in the final basis set =     -404.5870350797
 
 --------------------------------------------------------------
 
                    Orbital Energies (a.u.)
 --------------------------------------------------------------
 
 Alpha MOs
 -- Occupied --
-19.1269 -14.3743 -10.2916 -10.2326 -10.1956 -10.1931 -10.1927 -10.1915
-10.1907  -1.0380  -0.9352  -0.8347  -0.7530  -0.7510  -0.6439  -0.6230
 -0.5992  -0.5735  -0.5322  -0.4891  -0.4673  -0.4528  -0.4471  -0.4223
 -0.4166  -0.4042  -0.3899  -0.3784  -0.3576  -0.3556  -0.3338  -0.3239
 -0.3190  -0.2627  -0.2599
 -- Virtual --
 -0.0052   0.0044   0.0124   0.0173   0.0213   0.0311   0.0419   0.0469
  0.0512   0.0611   0.0622   0.0780   0.0828   0.0857   0.0931   0.0958
  0.1027   0.1112   0.1179   0.1285   0.1331   0.1434   0.1486   0.1571
  0.1669   0.1733   0.1772   0.1801   0.1909   0.1958   0.2053   0.2065
  0.2148   0.2175   0.2294   0.2381   0.2445   0.2469   0.2583   0.2620
  0.2763   0.2797   0.2809   0.2855   0.2896   0.3043   0.3109   0.3209
  0.3223   0.3277   0.3555   0.3620   0.3773   0.3842   0.4065   0.4122
  0.4319   0.4514   0.4927   0.6000   0.6317   0.6461   0.6563   0.6592
  0.6758   0.6900   0.7193   0.7241   0.7378   0.7479   0.7690   0.7792
  0.7943   0.8003   0.8113   0.8411   0.8517   0.9015   0.9465   0.9653
  0.9681   0.9811   1.0105   1.0189   1.0266   1.0454   1.0788   1.0868
  1.1060   1.1106   1.1157   1.1454   1.1510   1.1595   1.1682   1.1822
  1.2309   1.2589   1.2934   1.3381   1.3397   1.3660   1.3844   1.4084
  1.4681   1.4857   1.4935   1.5604   1.5675   1.6092   1.6989   1.7212
  1.7252   1.7519   1.7668   1.8055   1.8515   1.8696   1.8929   1.8985
  1.9030   1.9344   1.9737   2.0033   2.0085   2.0370   2.0478   2.0793
  2.0866   2.1227   2.1917   2.2082   2.2813   2.3031   2.3078   2.3401
  2.3937   2.4023   2.4091   2.4141   2.4441   2.5581   2.5796   2.6219
  2.6627   2.6789   2.6994   2.7518   2.7689   2.8247   2.8650   3.0145
  3.1891   4.0850   4.1907   4.2379   4.2849   4.3254   4.4171   4.5921
  4.5989   4.6635
 --------------------------------------------------------------
 
          Ground-State Mulliken Net Atomic Charges

     Atom                 Charge (a.u.)
  ----------------------------------------
      1 C                    -0.223780
      2 C                    -0.536378
      3 C                    -0.271904
      4 C                    -0.421757
      5 C                    -0.386037
      6 C                    -0.429470
      7 H                     0.212278
      8 H                     0.241757
      9 H                     0.195320
     10 H                     0.213092
     11 H                     0.204654
     12 H                     0.198344
     13 H                     0.196816
     14 H                     0.195750
     15 H                     0.205088
     16 H                     0.198580
     17 H                     0.193559
     18 N                    -0.372635
     19 H                     0.394056
     20 C                     0.332573
     21 H                     0.143008
     22 O                    -0.482914
  ----------------------------------------
  Sum of atomic charges =     0.000000

 -----------------------------------------------------------------
                    Cartesian Multipole Moments
 -----------------------------------------------------------------
    Charge (ESU x 10^10)
                 0.0000
    Dipole Moment (Debye)
         X       1.8420      Y       0.8874      Z      -3.6363
       Tot       4.1717
    Quadrupole Moments (Debye-Ang)
        XX     -51.6134     XY       3.4223     YY     -54.7998
        XZ       0.1418     YZ      -0.3688     ZZ     -57.8163
    Octopole Moments (Debye-Ang^2)
       XXX    -392.4915    XXY     -81.6084    XYY    -130.1404
       YYY    -265.2357    XXZ      18.0224    XYZ      -0.3283
       YYZ      18.7241    XZZ    -132.3057    YZZ     -88.9855
       ZZZ      42.4815
    Hexadecapole Moments (Debye-Ang^3)
      XXXX   -2993.8051   XXXY    -846.2721   XXYY    -745.1398
      XYYY    -858.0792   YYYY   -1506.5850   XXXZ     214.6097
      XXYZ      44.7644   XYYZ      72.7687   YYYZ     121.5833
      XXZZ    -548.9754   XYZZ    -287.4137   YYZZ    -299.7613
      XZZZ     207.8062   YZZZ     118.6888   ZZZZ    -257.6273
 -----------------------------------------------------------------
 Calculating analytic gradient of the SCF energy
 Gradient of SCF Energy
            1           2           3           4           5           6
    1   0.0001995  -0.0000763  -0.0000609  -0.0001575   0.0000453  -0.0001188
    2   0.0000052   0.0000413  -0.0001195   0.0002008  -0.0000930   0.0002282
    3   0.0000844  -0.0000316  -0.0001014   0.0001143  -0.0000224  -0.0000807
            7           8           9          10          11          12
    1   0.0000356  -0.0000036   0.0000142  -0.0000608   0.0000091   0.0000031
    2   0.0000549  -0.0000635   0.0000317   0.0000152  -0.0000223  -0.0000503
    3   0.0000106  -0.0000276  -0.0000148  -0.0000159   0.0000010  -0.0000208
           13          14          15          16          17          18
    1   0.0000250  -0.0000051   0.0000016   0.0000262  -0.0000148   0.0002810
    2  -0.0000658   0.0000099  -0.0000151  -0.0000223  -0.0000268  -0.0003602
    3  -0.0000058  -0.0000069   0.0000127   0.0000181   0.0000044   0.0000859
           19          20          21          22
    1  -0.0000571  -0.0002205   0.0000630   0.0000717
    2   0.0000942   0.0004173  -0.0000800  -0.0001800
    3   0.0000080  -0.0000347   0.0000101   0.0000132
 Max gradient component =       4.173E-04
 RMS gradient           =       1.082E-04
 Gradient time:  CPU 122.52 s  wall 7.77 s
 Geometry Optimization Parameters
   NAtoms,    NIC,     NZ,  NCons,   NDum,   NFix, NCnnct, MaxDiis
       22     172       0       0       0       0       0       0

 Cartesian Hessian Update
 Hessian updated using BFGS update


** GEOMETRY OPTIMIZATION IN DELOCALIZED INTERNAL COORDINATES **
   Searching for a Minimum

   Optimization Cycle:   5

                       Coordinates (Angstroms)
     ATOM                X               Y               Z
      1  C         1.9804669631    2.8122417172   -0.6396819878
      2  C         2.1049421713    1.3157419934   -0.2963604000
      3  C         3.4206069024    0.7275538359   -0.8338538174
      4  C         4.6370935550    1.5272370684   -0.3379999273
      5  C         4.5139890948    3.0205966483   -0.6786592080
      6  C         3.1986849198    3.6085034187   -0.1432821671
      7  H         3.5000169983   -0.3244615001   -0.5331717549
      8  H         2.0778009664    1.1985707788    0.7921500999
      9  H         1.8932372099    2.9216664871   -1.7325822610
     10  H         1.0541074187    3.2075081219   -0.2051173578
     11  H         4.7245403026    1.4094385369    0.7524182708
     12  H         5.5558979957    1.1101732800   -0.7702429825
     13  H         5.3706063512    3.5725797187   -0.2705318987
     14  H         4.5509153591    3.1484595295   -1.7715447127
     15  H         3.2153011479    3.5938093236    0.9567713544
     16  H         3.1011465003    4.6610345366   -0.4387542632
     17  H         3.3992162549    0.7442800671   -1.9357386451
     18  N         0.9558703051    0.5564737704   -0.7924226701
     19  H         0.8502605929    0.4477183610   -1.7944726663
     20  C        -0.0300432795    0.0514857579   -0.0021782067
     21  H        -0.8133105031   -0.4666567236   -0.5883983872
     22  O        -0.0769401418    0.1291120130    1.2182576950
   Point Group: c1    Number of degrees of freedom:    60


   Energy is   -404.587035080

 Hessian updated using BFGS update

 60 Hessian modes will be used to form the next step
  Hessian Eigenvalues:
     0.000074    0.006018    0.006067    0.006965    0.013358    0.019772
     0.019904    0.021239    0.037214    0.038537    0.041602    0.042356
     0.048125    0.048635    0.048925    0.055298    0.055728    0.058998
     0.060227    0.068368    0.079149    0.081513    0.081728    0.081895
     0.082051    0.083982    0.084414    0.113585    0.121178    0.124571
     0.139286    0.159992    0.160005    0.160829    0.207260    0.211615
     0.220005    0.221882    0.272478    0.274389    0.283338    0.286978
     0.287034    0.323445    0.329262    0.334498    0.334800    0.335836
     0.336542    0.336693    0.339352    0.339445    0.339572    0.340190
     0.342338    0.351154    0.373609    0.454040    0.528085    0.937197
**WARNING** Magnitude of eigenvalue   1 too small.  Replaced by     0.000100

 Minimum search - taking simple RFO step
 Searching for Lamda that Minimizes Along All modes
 Value Taken    Lamda =  -0.00000416
 Step Taken.  Stepsize is  0.151904

                             Maximum     Tolerance    Cnvgd?
         Gradient           0.000197      0.000100      NO
         Displacement       0.094160      0.000100      NO
         Energy change     -0.000004      0.000000      NO


 New Cartesian Coordinates Obtained by Inverse Iteration

 Displacement from previous Coordinates is:  0.289077
 ----------------------------------------------------------------
             Standard Nuclear Orientation (Angstroms)
    I     Atom           X                Y                Z
 ----------------------------------------------------------------
    1      C       1.9776390019     2.7981883756    -0.6297580315
    2      C       2.1149641783     1.3006360735    -0.2942165088
    3      C       3.4318030021     0.7249599605    -0.8407335992
    4      C       4.6445136774     1.5315074079    -0.3467493845
    5      C       4.5089480313     3.0256211523    -0.6792953812
    6      C       3.1919244736     3.6012362009    -0.1348316901
    7      H       3.5211868895    -0.3278404296    -0.5455348461
    8      H       2.0938850249     1.1793655177     0.7940552490
    9      H       1.8846789959     2.9114733799    -1.7217082378
   10      H       1.0501750226     3.1838794000    -0.1891131488
   11      H       4.7379869490     1.4089580434     0.7426557980
   12      H       5.5642684958     1.1232953453    -0.7853681964
   13      H       5.3636193984     3.5815014510    -0.2723866685
   14      H       4.5398115911     3.1592830536    -1.7716762480
   15      H       3.2137185056     3.5813480569     0.9650375839
   16      H       3.0852132859     4.6544158324    -0.4247325057
   17      H       3.4054985251     0.7468790175    -1.9424860670
   18      N       0.9714869368     0.5319812194    -0.7890431290
   19      H       0.8841253178     0.3944203265    -1.7893283119
   20      C      -0.0483469085     0.0857810223    -0.0064804895
   21      H      -0.8254814333    -0.4433168131    -0.5911255435
   22      O      -0.1272118761     0.2194931467     1.2074234628
 ----------------------------------------------------------------
 Nuclear Repulsion Energy =         466.89517919 hartrees
 There are       35 alpha and       35 beta electrons
 Applying Cartesian multipole field
    Component          Value
    ---------          -----
     (2,0,0)        1.00000E-12
     (0,2,0)        2.00000E-11
     (0,0,2)       -3.00000E-11
 Nucleus-field energy     =     0.0000000183 hartrees
 Requested basis set is 6-31+G(d)
 There are 71 shells and 197 basis functions
 A cutoff of  1.0D-14 yielded   2410 shell pairs
 There are     18997 function pairs
 Smallest overlap matrix eigenvalue = 2.50E-05
 Guess MOs from SCF MO coefficient file

 -----------------------------------------------------------------------
  General SCF calculation program by
  Eric Jon Sundstrom, Paul Horn, Yuezhi Mao, Dmitri Zuev, Alec White,
  David Stuck, Shaama M.S., Shane Yost, Joonho Lee, David Small,
  Daniel Levine, Susi Lehtola, Hugh Burton, Evgeny Epifanovsky,
  Bang C. Huynh
 -----------------------------------------------------------------------
 Exchange:     0.2000 Hartree-Fock + 0.0800 Slater + 0.7200 B88
 Correlation:  0.1900 VWN1RPA + 0.8100 LYP
 Using Euler-Maclaurin-Lebedev (99,590) quadrature formula
 using 16 threads for integral computing
 -------------------------------------------------------
 OpenMP Integral computing Module                
 Release: version 2.0, May 2017, Q-Chem Inc. Pleasanton 
 -------------------------------------------------------
 A restricted SCF calculation will be
 performed using DIIS
 SCF converges when DIIS error is below 1.0e-09
 ---------------------------------------
  Cycle       Energy         DIIS error
 ---------------------------------------
    1    -404.5834494957      6.10e-04  
    2    -404.5869846499      8.44e-05  
    3    -404.5870246535      5.83e-05  
    4    -404.5870329125      3.78e-05  
    5    -404.5870378376      9.31e-06  
    6    -404.5870381619      3.34e-06  
    7    -404.5870382088      7.69e-07  
    8    -404.5870382113      1.87e-07  
    9    -404.5870382115      3.46e-08  
   10    -404.5870382115      7.25e-09  
   11    -404.5870382115      2.49e-09  
   12    -404.5870382115      8.12e-10  Convergence criterion met
 ---------------------------------------
 SCF time:   CPU 587.34s  wall 37.00s 
 SCF   energy in the final basis set =     -404.5870382115
 Total energy in the final basis set =     -404.5870382115
 
 --------------------------------------------------------------
 
                    Orbital Energies (a.u.)
 --------------------------------------------------------------
 
 Alpha MOs
 -- Occupied --
-19.1270 -14.3742 -10.2915 -10.2327 -10.1960 -10.1929 -10.1926 -10.1912
-10.1907  -1.0381  -0.9353  -0.8346  -0.7531  -0.7508  -0.6438  -0.6232
 -0.5988  -0.5735  -0.5323  -0.4890  -0.4674  -0.4529  -0.4472  -0.4222
 -0.4165  -0.4041  -0.3898  -0.3783  -0.3577  -0.3554  -0.3337  -0.3239
 -0.3189  -0.2632  -0.2596
 -- Virtual --
 -0.0051   0.0044   0.0122   0.0172   0.0214   0.0312   0.0419   0.0471
  0.0511   0.0609   0.0624   0.0783   0.0829   0.0857   0.0933   0.0958
  0.1023   0.1113   0.1187   0.1283   0.1332   0.1427   0.1494   0.1572
  0.1674   0.1732   0.1774   0.1803   0.1903   0.1965   0.2050   0.2066
  0.2145   0.2178   0.2296   0.2373   0.2430   0.2462   0.2598   0.2623
  0.2758   0.2796   0.2814   0.2857   0.2900   0.3045   0.3106   0.3199
  0.3223   0.3276   0.3553   0.3627   0.3772   0.3863   0.4061   0.4133
  0.4304   0.4505   0.4922   0.5994   0.6334   0.6454   0.6562   0.6595
  0.6761   0.6896   0.7179   0.7236   0.7345   0.7491   0.7684   0.7806
  0.7939   0.8017   0.8091   0.8410   0.8537   0.9027   0.9468   0.9660
  0.9680   0.9813   1.0101   1.0184   1.0265   1.0458   1.0784   1.0875
  1.1054   1.1106   1.1162   1.1460   1.1505   1.1597   1.1674   1.1831
  1.2293   1.2587   1.2938   1.3362   1.3407   1.3639   1.3861   1.4078
  1.4639   1.4854   1.4970   1.5602   1.5677   1.6076   1.7000   1.7216
  1.7257   1.7526   1.7665   1.8076   1.8513   1.8715   1.8925   1.8991
  1.9034   1.9318   1.9730   2.0035   2.0098   2.0367   2.0490   2.0780
  2.0878   2.1219   2.1903   2.2032   2.2882   2.3020   2.3081   2.3400
  2.3943   2.4021   2.4102   2.4150   2.4441   2.5576   2.5798   2.6219
  2.6624   2.6789   2.7017   2.7516   2.7684   2.8241   2.8664   3.0149
  3.1886   4.0856   4.1910   4.2384   4.2863   4.3252   4.4161   4.5922
  4.6010   4.6622
 --------------------------------------------------------------
 
          Ground-State Mulliken Net Atomic Charges

     Atom                 Charge (a.u.)
  ----------------------------------------
      1 C                    -0.215920
      2 C                    -0.531581
      3 C                    -0.280720
      4 C                    -0.420602
      5 C                    -0.386129
      6 C                    -0.431654
      7 H                     0.212368
      8 H                     0.240751
      9 H                     0.195627
     10 H                     0.213776
     11 H                     0.204570
     12 H                     0.198329
     13 H                     0.196801
     14 H                     0.195755
     15 H                     0.205189
     16 H                     0.198668
     17 H                     0.193329
     18 N                    -0.374836
     19 H                     0.393862
     20 C                     0.331158
     21 H                     0.143015
     22 O                    -0.481756
  ----------------------------------------
  Sum of atomic charges =     0.000000

 -----------------------------------------------------------------
                    Cartesian Multipole Moments
 -----------------------------------------------------------------
    Charge (ESU x 10^10)
                 0.0000
    Dipole Moment (Debye)
         X       1.9380      Y       0.7222      Z      -3.6177
       Tot       4.1671
    Quadrupole Moments (Debye-Ang)
        XX     -51.6112     XY       3.4505     YY     -54.8748
        XZ       0.2437     YZ      -0.5734     ZZ     -57.7593
    Octopole Moments (Debye-Ang^2)
[...]

 Mode:                40                     41                     42
 Frequency:      1411.55                1504.91                1508.75
 Force Cnst:      1.7054                 1.4493                 1.4659
 Red. Mass:       1.4527                 1.0861                 1.0930
 IR Active:          YES                    YES                    YES
 IR Intens:        0.839                  0.320                  3.690
 Raman Active:       YES                    YES                    YES
               X      Y      Z        X      Y      Z        X      Y      Z
 C          0.044  0.100  0.026   -0.043  0.017 -0.033    0.014 -0.022  0.010
 C         -0.071 -0.082 -0.010   -0.009  0.011  0.000    0.008  0.009  0.005
 C          0.102  0.020  0.001    0.005  0.031  0.031   -0.015  0.022  0.021
 C         -0.010  0.029  0.003    0.020 -0.004  0.017    0.004  0.006 -0.003
 C         -0.005 -0.002  0.006    0.003 -0.016  0.003    0.047  0.037 -0.040
 C          0.033 -0.021 -0.003   -0.006 -0.019 -0.020    0.005 -0.011 -0.015
 H         -0.381 -0.049 -0.050   -0.002 -0.089 -0.368    0.023 -0.057 -0.262
 H          0.335  0.467  0.051    0.030 -0.047 -0.007   -0.016 -0.029  0.002
 H         -0.165 -0.331 -0.009    0.430 -0.176 -0.082   -0.155  0.129  0.036
 H         -0.171 -0.289 -0.082    0.159 -0.105  0.447   -0.054  0.056 -0.183
 H          0.019  0.008 -0.004   -0.226  0.070  0.043   -0.001 -0.043 -0.008
 H         -0.112 -0.174 -0.027   -0.084  0.056 -0.224    0.022  0.012  0.022
 H         -0.026 -0.016  0.055    0.012  0.021 -0.063   -0.127 -0.166  0.555
 H         -0.042 -0.058  0.004    0.022  0.086  0.015   -0.484 -0.330 -0.080
 H         -0.039  0.037  0.002    0.010  0.248 -0.005   -0.047  0.165 -0.003
 H         -0.220 -0.047  0.007   -0.008  0.059  0.242    0.023  0.046  0.168
 H         -0.287 -0.099  0.003    0.012 -0.365  0.005    0.078 -0.255  0.001
 N         -0.031 -0.013 -0.014   -0.000  0.000  0.000    0.004  0.002 -0.001
 H          0.118  0.067 -0.038    0.006 -0.002  0.001   -0.028 -0.016  0.004
 C          0.024  0.014  0.005    0.001 -0.000 -0.002   -0.003 -0.001  0.001
 H          0.032  0.019  0.018   -0.000  0.000 -0.000   -0.003 -0.002 -0.002
 O         -0.003 -0.004 -0.005   -0.000  0.000  0.001    0.001  0.000 -0.001
 TransDip   0.024 -0.004  0.016    0.017 -0.007 -0.001   -0.049 -0.022  0.030

 Mode:                43                     44                     45
 Frequency:      1511.46                1515.99                1527.60
 Force Cnst:      1.4745                 1.4712                 1.5594
 Red. Mass:       1.0955                 1.0865                 1.1342
 IR Active:          YES                    YES                    YES
 IR Intens:        5.514                 13.270                 11.844
 Raman Active:       YES                    YES                    YES
               X      Y      Z        X      Y      Z        X      Y      Z
 C         -0.027  0.012 -0.012   -0.023  0.012 -0.017   -0.028  0.019 -0.015
 C          0.003 -0.006  0.000   -0.011 -0.006 -0.000    0.007  0.000 -0.015
 C         -0.006  0.028  0.018    0.003 -0.030 -0.026    0.009 -0.030 -0.022
 C         -0.045  0.019 -0.026   -0.032  0.021 -0.022    0.027 -0.020  0.014
 C          0.006  0.003 -0.005    0.004  0.005 -0.010    0.033  0.025 -0.018
 C         -0.000  0.042  0.030    0.007 -0.034 -0.029   -0.008  0.029  0.020
 H         -0.010 -0.050 -0.250   -0.015  0.075  0.325    0.000  0.069  0.315
 H         -0.011  0.027  0.004    0.010  0.008 -0.002   -0.047 -0.027 -0.021
 H          0.222 -0.103 -0.040    0.239 -0.103 -0.048    0.257 -0.151 -0.055
 H          0.077 -0.035  0.228    0.081 -0.073  0.245    0.096 -0.051  0.277
 H          0.407 -0.173 -0.080    0.344 -0.162 -0.073   -0.239  0.129  0.051
 H          0.146 -0.076  0.412    0.119 -0.095  0.350   -0.077  0.063 -0.255
 H         -0.031  0.005  0.066   -0.033 -0.038  0.106   -0.066 -0.085  0.321
 H         -0.053 -0.042 -0.010   -0.089 -0.065 -0.019   -0.284 -0.199 -0.046
 H          0.031 -0.409  0.003   -0.054  0.391 -0.005    0.049 -0.272  0.002
 H         -0.014 -0.081 -0.393   -0.011  0.084  0.378    0.003 -0.050 -0.269
 H          0.043 -0.257 -0.001   -0.032  0.329 -0.005   -0.072  0.315 -0.002
 N          0.003  0.003 -0.001    0.012  0.006 -0.002   -0.043 -0.020  0.014
 H         -0.012 -0.010  0.003   -0.039 -0.017  0.005    0.209  0.109 -0.024
 C         -0.002 -0.001 -0.001   -0.005 -0.003 -0.000    0.024  0.010 -0.008
 H         -0.002 -0.002 -0.001   -0.006 -0.004 -0.003    0.024  0.018  0.016
 O          0.000  0.000  0.001    0.001  0.001  0.002   -0.003 -0.002  0.001
 TransDip   0.032 -0.068  0.000    0.008 -0.002  0.116    0.102  0.033 -0.025

 Mode:                46                     47                     48
 Frequency:      1538.57                1750.09                2199.06
 Force Cnst:      2.3032                15.8494                 6.9152
 Red. Mass:       1.6514                 8.7830                 2.4271
 IR Active:          YES                    YES                    YES
 IR Intens:      152.606                427.058                101.271
 Raman Active:       YES                    YES                    YES
               X      Y      Z        X      Y      Z        X      Y      Z
 C          0.009 -0.002  0.008   -0.013 -0.003 -0.009   -0.000 -0.000  0.000
 C          0.071  0.033 -0.041    0.019  0.015  0.021    0.002  0.001  0.000
 C          0.002  0.018  0.013   -0.010 -0.009 -0.011   -0.000 -0.000  0.000
 C         -0.021  0.001 -0.007   -0.000  0.005  0.004    0.000  0.000 -0.000
 C         -0.007 -0.007  0.006   -0.001  0.000 -0.001   -0.000 -0.000 -0.000
 C         -0.003 -0.017 -0.007    0.005 -0.003  0.001    0.000  0.000  0.000
 H          0.003 -0.014 -0.107    0.021  0.001  0.013    0.001 -0.000 -0.001
 H         -0.275 -0.195 -0.076   -0.084 -0.040  0.035    0.012  0.003  0.001
 H         -0.098 -0.015  0.010    0.034  0.023 -0.008   -0.002  0.001  0.000
 H         -0.017  0.055 -0.097    0.002 -0.007  0.036    0.001  0.002 -0.002
 H          0.159 -0.038 -0.028    0.000 -0.003  0.005   -0.000 -0.000  0.000
 H          0.052 -0.013  0.148   -0.015 -0.020 -0.012    0.000 -0.000 -0.000
 H          0.016  0.033 -0.098    0.001 -0.004  0.006    0.000  0.000  0.000
 H          0.079  0.057  0.014    0.000 -0.001 -0.002    0.000  0.000 -0.000
 H          0.008  0.147 -0.001   -0.010 -0.003  0.004    0.000  0.000 -0.000
 H          0.004  0.024  0.135   -0.025 -0.007 -0.012   -0.000  0.000  0.000
 H         -0.055 -0.107  0.002    0.032  0.001 -0.013   -0.000 -0.000  0.001
 N         -0.157 -0.076  0.052    0.035 -0.003 -0.088    0.012  0.007  0.002
 H          0.718  0.362 -0.074    0.318  0.116 -0.129   -0.068 -0.035  0.003
 C          0.081  0.036 -0.020   -0.196  0.070  0.628   -0.127 -0.102 -0.119
 H          0.087  0.062  0.057    0.402  0.246  0.092    0.680  0.504  0.486
 O         -0.009 -0.007 -0.006    0.048 -0.088 -0.404    0.002  0.008  0.026
 TransDip   0.342  0.151 -0.131   -0.382 -0.073  0.536   -0.189 -0.160 -0.206

 Mode:                49                     50                     51
 Frequency:      2998.75                3010.99                3013.57
 Force Cnst:      5.6676                 5.7113                 5.7322
 Red. Mass:       1.0697                 1.0692                 1.0713
 IR Active:          YES                    YES                    YES
 IR Intens:       22.844                 23.291                 23.063
 Raman Active:       YES                    YES                    YES
               X      Y      Z        X      Y      Z        X      Y      Z
 C          0.005 -0.003  0.013   -0.022  0.014 -0.062   -0.005  0.003 -0.019
 C         -0.001 -0.000  0.005   -0.000 -0.002  0.008   -0.000 -0.000  0.001
 C         -0.000 -0.016 -0.070    0.000 -0.003 -0.012   -0.000  0.000 -0.007
 C         -0.001  0.000  0.013   -0.001  0.001 -0.006   -0.001 -0.002  0.021
 C         -0.002 -0.001  0.004   -0.008 -0.009  0.022    0.016  0.018 -0.059
 C         -0.000  0.000 -0.005    0.001 -0.001  0.014    0.001 -0.003  0.028
 H         -0.023  0.225 -0.083   -0.006  0.043 -0.015    0.001  0.000  0.000
 H          0.000  0.007 -0.066    0.000  0.012 -0.105    0.000  0.003 -0.022
 H         -0.015  0.017 -0.183    0.070 -0.093  0.857    0.023 -0.027  0.255
 H         -0.041  0.015  0.026    0.188 -0.074 -0.114    0.040 -0.014 -0.023
 H         -0.015  0.019 -0.148    0.007 -0.009  0.076   -0.025  0.031 -0.249
 H          0.033 -0.018 -0.015    0.007 -0.005 -0.006    0.031 -0.010 -0.011
 H          0.020  0.011  0.011    0.093  0.062  0.054   -0.177 -0.114 -0.102
 H          0.001  0.005 -0.059   -0.000  0.040 -0.317   -0.006 -0.104  0.817
 H          0.002 -0.002  0.060   -0.004  0.006 -0.170   -0.010  0.011 -0.344
 H          0.001 -0.001 -0.001   -0.005  0.003  0.002    0.000  0.020  0.000
 H          0.030 -0.041  0.928    0.003 -0.007  0.164    0.004 -0.002  0.090
 N          0.000 -0.000  0.000    0.000  0.000  0.000    0.000  0.000 -0.000
 H          0.005  0.001  0.001    0.002  0.003  0.000    0.001  0.001 -0.000
 C          0.000  0.000  0.000    0.000  0.000  0.000   -0.000 -0.000  0.000
 H          0.000  0.000 -0.000    0.000  0.000  0.000    0.000  0.000  0.000
 O         -0.000 -0.000  0.000   -0.000 -0.000 -0.000    0.000 -0.000 -0.000
 TransDip   0.006 -0.093 -0.122   -0.111  0.005 -0.108    0.067  0.082 -0.111

 Mode:                52                     53                     54
 Frequency:      3022.84                3025.07                3065.53
 Force Cnst:      5.7271                 5.7228                 6.0452
 Red. Mass:       1.0638                 1.0614                 1.0918
 IR Active:          YES                    YES                    YES
 IR Intens:       14.986                 53.663                 79.468
 Raman Active:       YES                    YES                    YES
               X      Y      Z        X      Y      Z        X      Y      Z
 C          0.009 -0.005  0.009   -0.009  0.005 -0.007   -0.006  0.003  0.006
 C          0.000 -0.000 -0.001    0.000 -0.000  0.004    0.000  0.001 -0.013
 C          0.001 -0.009 -0.003    0.001 -0.009 -0.002    0.004 -0.028  0.016
 C         -0.027  0.015 -0.042   -0.026  0.014 -0.029   -0.020  0.008  0.012
 C          0.001  0.000  0.000    0.022  0.016 -0.007   -0.050 -0.031 -0.040
 C         -0.001  0.021  0.041    0.002 -0.026 -0.038    0.003 -0.024  0.005
 H         -0.015  0.115 -0.034   -0.013  0.104 -0.031   -0.035  0.337 -0.093
 H         -0.001  0.001  0.012   -0.001  0.005 -0.049    0.001 -0.018  0.163
 H         -0.011  0.016 -0.158    0.010 -0.013  0.132   -0.004  0.004 -0.033
 H         -0.093  0.040  0.051    0.096 -0.041 -0.052    0.077 -0.032 -0.039
 H          0.054 -0.074  0.649    0.040 -0.058  0.495   -0.007  0.004 -0.030
 H          0.260 -0.109 -0.147    0.266 -0.112 -0.145    0.243 -0.105 -0.122
 H         -0.015 -0.004 -0.006   -0.259 -0.170 -0.132    0.603  0.396  0.291
 H          0.001 -0.001  0.000    0.003 -0.024  0.215   -0.011 -0.032  0.197
 H         -0.019  0.027 -0.570    0.016 -0.027  0.553   -0.000 -0.004  0.012
 H          0.031 -0.270  0.086   -0.039  0.337 -0.103   -0.034  0.289 -0.078
 H          0.003 -0.006  0.063    0.003 -0.004  0.056   -0.003 -0.001 -0.100
 N         -0.000  0.000 -0.000   -0.000 -0.000  0.000   -0.000  0.000  0.000
 H          0.001 -0.001  0.000    0.001  0.001  0.001    0.000 -0.001 -0.002
 C          0.000  0.000 -0.000    0.000  0.000 -0.000    0.000  0.000 -0.000
 H         -0.000 -0.000 -0.000    0.000 -0.000  0.000   -0.000 -0.000 -0.000
 O         -0.000  0.000  0.000   -0.000 -0.000  0.000    0.000  0.000  0.000
 TransDip  -0.075  0.098  0.017   -0.042 -0.010 -0.231   -0.207 -0.195 -0.023

 Mode:                55                     56                     57
 Frequency:      3067.11                3069.42                3071.41
 Force Cnst:      6.0844                 6.0537                 6.1254
 Red. Mass:       1.0978                 1.0906                 1.1021
 IR Active:          YES                    YES                    YES
 IR Intens:       61.466                 13.574                 57.754
 Raman Active:       YES                    YES                    YES
               X      Y      Z        X      Y      Z        X      Y      Z
 C          0.003 -0.002  0.005   -0.007  0.003 -0.000    0.003 -0.002  0.006
 C         -0.001  0.001 -0.003   -0.001  0.002 -0.029    0.000  0.002 -0.013
 C          0.001 -0.013 -0.001    0.007 -0.063  0.032   -0.001  0.009  0.001
 C          0.045 -0.017 -0.046    0.006 -0.004  0.012   -0.031  0.012  0.042
 C          0.002  0.001  0.001    0.022  0.014  0.019    0.019  0.009  0.037
 C          0.006 -0.048  0.035   -0.002  0.017 -0.006    0.006 -0.044  0.040
 H         -0.015  0.154 -0.043   -0.075  0.757 -0.210    0.012 -0.112  0.031
 H         -0.001 -0.003  0.037    0.002 -0.040  0.355    0.001 -0.016  0.150
 H         -0.007  0.007 -0.071    0.001 -0.004  0.039   -0.010  0.007 -0.086
 H         -0.033  0.013  0.017    0.079 -0.031 -0.040   -0.026  0.011  0.013
 H          0.034 -0.036  0.273   -0.015  0.019 -0.161   -0.035  0.042 -0.301
 H         -0.567  0.240  0.282   -0.051  0.021  0.027    0.410 -0.175 -0.204
 H         -0.025 -0.018 -0.013   -0.260 -0.172 -0.126   -0.235 -0.155 -0.112
 H          0.002 -0.002  0.001    0.005  0.018 -0.108    0.009  0.045 -0.318
 H         -0.008  0.001 -0.262    0.002  0.002  0.018   -0.007  0.003 -0.340
 H         -0.064  0.569 -0.150    0.024 -0.204  0.055   -0.061  0.527 -0.139
 H          0.003 -0.003  0.044   -0.007 -0.005 -0.173   -0.004  0.001 -0.042
 N          0.000  0.000 -0.000   -0.000  0.000  0.000   -0.000 -0.000  0.000
 H          0.000 -0.001 -0.000    0.000 -0.001 -0.004   -0.001 -0.000 -0.002
 C          0.000 -0.000 -0.000    0.000 -0.000 -0.000    0.000 -0.000 -0.000
 H         -0.000  0.000 -0.000   -0.000  0.000 -0.000   -0.000 -0.000 -0.000
 O          0.000  0.000  0.000    0.000  0.000  0.000    0.000  0.000  0.000
 TransDip   0.149 -0.201 -0.023    0.059 -0.068  0.076   -0.031 -0.042  0.238

 Mode:                58                     59                     60
 Frequency:      3080.07                3091.65                3590.79
 Force Cnst:      6.0949                 6.1528                 8.1870
 Red. Mass:       1.0904                 1.0925                 1.0777
 IR Active:          YES                    YES                    YES
 IR Intens:       28.311                 35.425                 14.786
 Raman Active:       YES                    YES                    YES
               X      Y      Z        X      Y      Z        X      Y      Z
 C         -0.054  0.021  0.040    0.035 -0.013 -0.037    0.000  0.000  0.000
 C         -0.001  0.005 -0.040    0.001  0.008 -0.064    0.001  0.001 -0.001
 C         -0.002  0.022 -0.017   -0.002  0.018 -0.016   -0.000 -0.000  0.000
 C          0.004 -0.001 -0.010    0.001 -0.000 -0.008   -0.000  0.000  0.000
 C          0.001  0.000 -0.001   -0.003 -0.001 -0.005    0.000  0.000  0.000
 C         -0.001  0.006  0.003   -0.001  0.002 -0.010    0.000 -0.000  0.000
 H          0.028 -0.266  0.072    0.024 -0.215  0.058   -0.001  0.001 -0.000
 H         -0.001 -0.053  0.480   -0.002 -0.087  0.749    0.002 -0.001  0.010
 H         -0.023  0.019 -0.152    0.027 -0.032  0.229   -0.000 -0.001  0.000
 H          0.665 -0.264 -0.330   -0.440  0.178  0.218    0.001 -0.000 -0.000
 H          0.011 -0.010  0.086    0.011 -0.010  0.088    0.000  0.000 -0.000
 H         -0.056  0.024  0.028   -0.026  0.012  0.014   -0.000 -0.000 -0.000
 H         -0.005 -0.002 -0.002    0.036  0.023  0.017    0.000  0.000 -0.000
 H          0.001 -0.003  0.017   -0.003 -0.007  0.049   -0.000  0.000 -0.000
 H         -0.002  0.002 -0.045    0.006 -0.001  0.116    0.000  0.000 -0.000
 H          0.008 -0.070  0.019    0.004 -0.025  0.007   -0.000  0.000 -0.000
 H          0.002 -0.001  0.130   -0.001 -0.000  0.138   -0.002  0.001 -0.000
 N         -0.000 -0.000  0.000   -0.001 -0.001  0.001   -0.001 -0.017 -0.071
 H          0.001  0.001 -0.005    0.003  0.003 -0.007    0.025  0.239  0.968
 C          0.000  0.000 -0.000    0.001 -0.000 -0.002   -0.002 -0.001  0.000
 H         -0.001 -0.000 -0.000   -0.001 -0.000 -0.000    0.003  0.001  0.000
 O          0.000  0.000  0.000    0.000  0.000  0.001   -0.000  0.000  0.001
 TransDip  -0.131  0.107 -0.020    0.012  0.007 -0.190   -0.043  0.010  0.115

 STANDARD THERMODYNAMIC QUANTITIES AT   298.18 K  AND     1.00 ATM

   This Molecule has  0 Imaginary Frequencies
   Zero point vibrational energy:      122.006 kcal/mol

   Atom    1 Element C  Has Mass   12.00000
   Atom    2 Element C  Has Mass   12.00000
   Atom    3 Element C  Has Mass   12.00000
   Atom    4 Element C  Has Mass   12.00000
   Atom    5 Element C  Has Mass   12.00000
   Atom    6 Element C  Has Mass   12.00000
   Atom    7 Element H  Has Mass    1.00783
   Atom    8 Element H  Has Mass    1.00783
   Atom    9 Element H  Has Mass    1.00783
   Atom   10 Element H  Has Mass    1.00783
   Atom   11 Element H  Has Mass    1.00783
   Atom   12 Element H  Has Mass    1.00783
   Atom   13 Element H  Has Mass    1.00783
   Atom   14 Element H  Has Mass    1.00783
   Atom   15 Element H  Has Mass    1.00783
   Atom   16 Element H  Has Mass    1.00783
   Atom   17 Element H  Has Mass    1.00783
   Atom   18 Element N  Has Mass   14.00307
   Atom   19 Element H  Has Mass    1.00783
   Atom   20 Element C  Has Mass   12.00000
   Atom   21 Element H  Has Mass    2.01410
   Atom   22 Element O  Has Mass   15.99491
   Molecular Mass:   128.106042 amu
   Principal axes and moments of inertia in amu*Bohr^2:
                             1           2           3
    Eigenvalues --      540.57837  1983.93329  2223.16179
          X               0.85978    -0.43715     0.26397
          Y               0.48348     0.86324    -0.14514
          Z              -0.16442     0.25242     0.95355
   Rotational Symmetry Number is   1
   The Molecule is an Asymmetric Top
   Translational Enthalpy:        0.889 kcal/mol
   Rotational Enthalpy:           0.889 kcal/mol
   Vibrational Enthalpy:        125.889 kcal/mol
   gas constant (RT):             0.593 kcal/mol
   Translational Entropy:        40.457  cal/mol.K
   Rotational Entropy:           29.257  cal/mol.K
   Vibrational Entropy:          24.945  cal/mol.K

   Total Enthalpy:              128.259 kcal/mol
   Total Entropy:                94.659  cal/mol.K
Archival summary:
1\1\node029\FREQ\ProcedureUnspecified\6-31+G*\11713\ymao90\SunMar703:17:542021SunMar703:17:542021\0\\#,FREQ,ProcedureUnspecified,6-31+G*,\\0,1\N\H,1,1.01332\C,1,1.36022,2,117.458\H,3,1.10718,1,112.374,2,3.3525,0\O,3,1.22392,1,125.513,2,-177.207,0\C,1,1.46459,2,118.324,3,-175.627,0\H,6,1.09563,1,105.456,2,-162.708,0\C,6,1.53707,1,110.412,2,-44.8715,0\H,8,1.09736,6,109.555,1,-57.9104,0\H,8,1.10248,6,109.096,1,58.7752,0\C,8,1.53805,6,111.432,1,179.34,0\H,11,1.09763,8,109.716,6,-177.502,0\H,11,1.10019,8,109.052,6,66.2545,0\C,11,1.53702,8,111.769,6,-54.6532,0\H,14,1.09778,11,110.082,8,177.088,0\H,14,1.10093,11,109.263,8,-66.2566,0\C,14,1.5368,11,111.308,8,54.5113,0\H,17,1.0976,14,110.409,11,-177.114,0\H,17,1.10029,14,109.316,11,66.1278,0\C,17,1.53755,14,111.542,11,-54.6945,0\H,20,1.09648,17,110.774,14,176.832,0\H,20,1.10137,17,109.525,14,-65.3719,0\\\@

 Total job time:  769.86s(wall), 12109.20s(cpu) 
 Sun Mar  7 03:17:54 2021

        *************************************************************
        *                                                           *
        *  Thank you very much for using Q-Chem.  Have a nice day.  *
        *                                                           *
        *************************************************************


