                  Welcome to Q-Chem
     A Quantum Leap Into The Future Of Chemistry


 Q-Chem 5.2 (devel), Q-Chem, Inc., Pleasanton, CA (2019)

 Yihan Shao,  Zhengting Gan,  E. Epifanovsky,  A. T. B. Gilbert,  M. Wormit,  
 J. Kussmann,  A. W. Lange,  A. Behn,  Jia Deng,  Xintian Feng,  D. Ghosh,  
 M. Goldey,  P. R. Horn,  L. D. Jacobson,  I. Kaliman,  T. Kus,  A. Landau,  
 Jie Liu,  E. I. Proynov,  R. M. Richard,  R. P. Steele,  E. J. Sundstrom,  
 H. L. Woodcock III,  P. M. Zimmerman,  D. Zuev,  B. Alam,  B. Albrecht,  
 E. Alguire,  S. A. Baeppler,  D. Barton,  Z. Benda,  Y. A. Bernard,  
 E. J. Berquist,  K. B. Bravaya,  H. Burton,  K. Carter-Fenk,  D. Casanova,  
 Chun-Min Chang,  Yunqing Chen,  A. Chien,  K. D. Closser,  M. P. Coons,  
 S. Coriani,  S. Dasgupta,  A. L. Dempwolff,  M. Diedenhofen,  Hainam Do,  
 R. G. Edgar,  Po-Tung Fang,  S. Faraji,  S. Fatehi,  Qingguo Feng,  
 J. Fosso-Tande,  J. Gayvert,  Qinghui Ge,  A. Ghysels,  G. Gidofalvi,  
 J. Gomes,  J. Gonthier,  A. Gunina,  D. Hait,  M. W. D. Hanson-Heine,  
 P. H. P. Harbach,  A. W. Hauser,  M. F. Herbst,  J. E. Herr,  
 E. G. Hohenstein,  Z. C. Holden,  Kerwin Hui,  B. C. Huynh,  T.-C. Jagau,  
 Hyunjun Ji,  B. Kaduk,  K. Khistyaev,  Jaehoon Kim,  P. Klunzinger,  K. Koh,  
 D. Kosenkov,  L. Koulias,  T. Kowalczyk,  C. M. Krauter,  A. Kunitsa,  
 Ka Un Lao,  A. Laurent,  K. V. Lawler,  Joonho Lee,  D. Lefrancois,  
 S. Lehtola,  D. S. Levine,  Yi-Pei Li,  You-Sheng Lin,  Fenglai Liu,  
 Kuan-Yu Liu,  E. Livshits,  M. Loipersberger,  A. Luenser,  P. Manohar,  
 E. Mansoor,  S. F. Manzer,  Shan-Ping Mao,  Yuezhi Mao,  N. Mardirossian,  
 A. V. Marenich,  T. Markovich,  L. A. Martinez-Martinez,  S. A. Maurer,  
 N. J. Mayhall,  S. C. McKenzie,  J.-M. Mewes,  P. Morgante,  A. F. Morrison,  
 J. W. Mullinax,  K. Nanda,  T. S. Nguyen-Beck,  R. Olivares-Amaya,  
 J. A. Parkhill,  S. K. Paul,  F. Pavosevic,  Zheng Pei,  T. M. Perrine,  
 F. Plasser,  P. Pokhilko,  S. Prager,  A. Prociuk,  E. Ramos,  B. Rana,  
 D. R. Rehn,  F. Rob,  M. Scheurer,  M. Schneider,  N. Sergueev,  
 S. M. Sharada,  S. Sharma,  D. W. Small,  T. Stauch,  C. J. Stein,  
 T. Stein,  Yu-Chuan Su,  S. P. Veccham,  Zhen Tao,  A. J. W. Thom,  
 A. Tkatchenko,  T. Tsuchimochi,  N. M. Tubman,  L. Vogt,  M. L. Vidal,  
 O. Vydrov,  M. A. Watson,  J. Wenzel,  M. de Wergifosse,  T. A. Wesolowski,  
 A. White,  J. Witte,  A. Yamada,  Jun Yang,  K. Yao,  S. Yeganeh,  
 S. R. Yost,  Zhi-Qiang You,  A. Zech,  Igor Ying Zhang,  Xing Zhang,  
 Yan Zhao,  Ying Zhu,  B. R. Brooks,  G. K. L. Chan,  C. J. Cramer,  
 M. S. Gordon,  W. J. Hehre,  A. Klamt,  M. W. Schmidt,  C. D. Sherrill,  
 D. G. Truhlar,  A. Aspuru-Guzik,  R. Baer,  A. T. Bell,  N. A. Besley,  
 Jeng-Da Chai,  A. E. DePrince, III,  R. A. DiStasio Jr.,  A. Dreuw,  
 B. D. Dunietz,  T. R. Furlani,  Chao-Ping Hsu,  Yousung Jung,  Jing Kong,  
 D. S. Lambrecht,  WanZhen Liang,  C. Ochsenfeld,  V. A. Rassolov,  
 L. V. Slipchenko,  J. E. Subotnik,  T. Van Voorhis,  J. M. Herbert,  
 A. I. Krylov,  P. M. W. Gill,  M. Head-Gordon

 Contributors to earlier versions of Q-Chem not listed above: 
 R. D. Adamson,  B. Austin,  J. Baker,  G. J. O. Beran,  K. Brandhorst,  
 S. T. Brown,  E. F. C. Byrd,  A. K. Chakraborty,  C.-L. Cheng,  
 Siu Hung Chien,  D. M. Chipman,  D. L. Crittenden,  H. Dachsel,  
 R. J. Doerksen,  A. D. Dutoi,  L. Fusti-Molnar,  W. A. Goddard III,  
 A. Golubeva-Zadorozhnaya,  S. R. Gwaltney,  G. Hawkins,  A. Heyden,  
 S. Hirata,  G. Kedziora,  F. J. Keil,  C. Kelley,  Jihan Kim,  R. A. King,  
 R. Z. Khaliullin,  P. P. Korambath,  W. Kurlancheek,  A. M. Lee,  M. S. Lee,  
 S. V. Levchenko,  Ching Yeh Lin,  D. Liotard,  R. C. Lochan,  I. Lotan,  
 P. E. Maslen,  N. Nair,  D. P. O'Neill,  D. Neuhauser,  E. Neuscamman,  
 C. M. Oana,  R. Olson,  B. Peters,  R. Peverati,  P. A. Pieniazek,  
 Y. M. Rhee,  J. Ritchie,  M. A. Rohrdanz,  E. Rosta,  N. J. Russ,  
 H. F. Schaefer III,  N. E. Schultz,  N. Shenvi,  A. C. Simmonett,  A. Sodt,  
 D. Stuck,  K. S. Thanthiriwatte,  V. Vanovschi,  Tao Wang,  A. Warshel,  
 C. F. Williams,  Q. Wu,  X. Xu,  W. Zhang

 Please cite Q-Chem as follows:
 Y. Shao et al., Mol. Phys. 113, 184-215 (2015)
 DOI: 10.1080/00268976.2014.952696

 Q-Chem 5.2.2 for Intel X86 EM64T Linux

 Parts of Q-Chem use Armadillo 9.800.1 (Horizon Scraper).
 http://arma.sourceforge.net/

 Q-Chem begins on Sun Mar  7 02:56:11 2021  

Host: node028
0

     Scratch files written to /home/ymao90/scratch/CCX_CO_-12020210307025610//

Checking the input file for inconsistencies... 	...done.

--------------------------------------------------------------
User input:
--------------------------------------------------------------
$molecule
0 1
C      1.9839655798    2.8343873569   -0.6530035790
C      2.0889665948    1.3399289492   -0.2973932582
C      3.4017166944    0.7321441035   -0.8222227424
C      4.6254659785    1.5200300416   -0.3255741318
C      4.5210827926    3.0122209378   -0.6783481608
C      3.2094896156    3.6188525050   -0.1554554411
H      3.4653882129   -0.3186255299   -0.5134835234
H      2.0538505535    1.2303619181    0.7916336585
H      1.9041773336    2.9373830819   -1.7471760654
H      1.0604862058    3.2447823031   -0.2264495779
H      4.7056113531    1.4098609561    0.7662015896
H      5.5416784391    1.0893334561   -0.7496610014
H      5.3807748665    3.5587419877   -0.2692766409
H      4.5659637339    3.1311627355   -1.7719372538
H      3.2192612515    3.6121018079    0.9447339030
H      3.1260878858    4.6703627905   -0.4590864625
H      3.3863457527    0.7409636912   -1.9242196110
N      0.9315723625    0.5939302253   -0.7942938700
H      0.8024957372    0.5217251348   -1.7968919912
C      0.0000000000    0.0000000000    0.0000000000
H     -0.7899738588   -0.5065817117   -0.5873052394
O     -0.0000000000    0.0000000000    1.2238135054
$end

$rem
JOBTYPE  OPT
METHOD  B3LYP
BASIS  6-31+G(D)
SYMMETRY  FALSE
SYM_IGNORE  TRUE
MEM_TOTAL  8000
MEM_STATIC  2000
MAX_SUB_FILE_NUM  16000
BASIS_LIN_DEP_THRESH  6
THRESH  14
SCF_CONVERGENCE  9
GEN_SCFMAN  TRUE
SCF_GUESS  SAD
FD_MAT_VEC_PROD  FALSE
XC_GRID  000099000590
NL_GRID  1
MAX_SCF_CYCLES  200
GEOM_OPT_TOL_GRADIENT  100
GEOM_OPT_TOL_DISPLACEMENT  100
GEOM_OPT_TOL_ENERGY  10
$end

$multipole_field
Z   0.023337
$end


--------------------------------------------------------------
 ----------------------------------------------------------------
             Standard Nuclear Orientation (Angstroms)
    I     Atom           X                Y                Z
 ----------------------------------------------------------------
    1      C       1.9839655798     2.8343873569    -0.6530035790
    2      C       2.0889665948     1.3399289492    -0.2973932582
    3      C       3.4017166944     0.7321441035    -0.8222227424
    4      C       4.6254659785     1.5200300416    -0.3255741318
    5      C       4.5210827926     3.0122209378    -0.6783481608
    6      C       3.2094896156     3.6188525050    -0.1554554411
    7      H       3.4653882129    -0.3186255299    -0.5134835234
    8      H       2.0538505535     1.2303619181     0.7916336585
    9      H       1.9041773336     2.9373830819    -1.7471760654
   10      H       1.0604862058     3.2447823031    -0.2264495779
   11      H       4.7056113531     1.4098609561     0.7662015896
   12      H       5.5416784391     1.0893334561    -0.7496610014
   13      H       5.3807748665     3.5587419877    -0.2692766409
   14      H       4.5659637339     3.1311627355    -1.7719372538
   15      H       3.2192612515     3.6121018079     0.9447339030
   16      H       3.1260878858     4.6703627905    -0.4590864625
   17      H       3.3863457527     0.7409636912    -1.9242196110
   18      N       0.9315723625     0.5939302253    -0.7942938700
   19      H       0.8024957372     0.5217251348    -1.7968919912
   20      C       0.0000000000     0.0000000000     0.0000000000
   21      H      -0.7899738588    -0.5065817117    -0.5873052394
   22      O       0.0000000000     0.0000000000     1.2238135054
 ----------------------------------------------------------------
 Nuclear Repulsion Energy =         466.63298041 hartrees
 There are       35 alpha and       35 beta electrons
 Requested basis set is 6-31+G(d)
 There are 71 shells and 197 basis functions

 Total QAlloc Memory Limit   8000 MB
 Mega-Array Size      1956 MB
 MEM_STATIC part      2000 MB
 Applying Cartesian multipole field
    Component          Value
    ---------          -----
     (0,0,1)        2.33370E-02
 Nucleus-field energy     =    -0.9218975541 hartrees
 A cutoff of  1.0D-14 yielded   2413 shell pairs
 There are     18998 function pairs
 Smallest overlap matrix eigenvalue = 2.48E-05
 Guess from superposition of atomic densities
 Warning:  Energy on first SCF cycle will be non-variational
 SAD guess density has 70.000000 electrons

 -----------------------------------------------------------------------
  General SCF calculation program by
  Eric Jon Sundstrom, Paul Horn, Yuezhi Mao, Dmitri Zuev, Alec White,
  David Stuck, Shaama M.S., Shane Yost, Joonho Lee, David Small,
  Daniel Levine, Susi Lehtola, Hugh Burton, Evgeny Epifanovsky,
  Bang C. Huynh
 -----------------------------------------------------------------------
 Exchange:     0.2000 Hartree-Fock + 0.0800 Slater + 0.7200 B88
 Correlation:  0.1900 VWN1RPA + 0.8100 LYP
 Using Euler-Maclaurin-Lebedev (99,590) quadrature formula
 using 16 threads for integral computing
 -------------------------------------------------------
 OpenMP Integral computing Module                
 Release: version 2.0, May 2017, Q-Chem Inc. Pleasanton 
 -------------------------------------------------------
 A restricted SCF calculation will be
 performed using DIIS
 SCF converges when DIIS error is below 1.0e-09
 ---------------------------------------
  Cycle       Energy         DIIS error
 ---------------------------------------
    1    -406.2319506857      5.08e-02  
    2    -404.4005357546      7.16e-03  
    3    -403.8727135147      1.35e-02  
    4    -404.6130927827      2.66e-03  
    5    -404.6410048002      7.89e-04  
    6    -404.6434342850      2.80e-04  
    7    -404.6437629045      8.20e-05  
    8    -404.6437905510      1.68e-05  
    9    -404.6437917634      5.13e-06  
   10    -404.6437918709      1.15e-06  
   11    -404.6437918768      3.31e-07  
   12    -404.6437918773      8.62e-08  
   13    -404.6437918773      2.02e-08  
   14    -404.6437918773      3.87e-09  
   15    -404.6437918773      1.02e-09  
   16    -404.6437918773      3.79e-10  Convergence criterion met
 ---------------------------------------
 SCF time:   CPU 751.10s  wall 48.00s 
 SCF   energy in the final basis set =     -404.6437918773
 Total energy in the final basis set =     -404.6437918773
 
 --------------------------------------------------------------
 
                    Orbital Energies (a.u.)
 --------------------------------------------------------------
 
 Alpha MOs
 -- Occupied --
-19.1365 -14.3603 -10.2897 -10.2209 -10.1837 -10.1795 -10.1732 -10.1698
-10.1686  -1.0456  -0.9227  -0.8183  -0.7362  -0.7351  -0.6277  -0.6064
 -0.5837  -0.5596  -0.5181  -0.4797  -0.4569  -0.4374  -0.4338  -0.4175
 -0.4146  -0.3905  -0.3731  -0.3715  -0.3385  -0.3378  -0.3167  -0.3063
 -0.3044  -0.2712  -0.2528
 -- Virtual --
 -0.0469  -0.0129  -0.0071   0.0151   0.0205   0.0326   0.0394   0.0537
  0.0694   0.0717   0.0803   0.0859   0.0976   0.1012   0.1182   0.1262
  0.1353   0.1389   0.1444   0.1467   0.1494   0.1661   0.1759   0.1811
  0.1858   0.1877   0.1937   0.1997   0.2081   0.2123   0.2201   0.2229
  0.2311   0.2390   0.2426   0.2521   0.2565   0.2653   0.2676   0.2828
  0.2922   0.2968   0.2982   0.3035   0.3108   0.3136   0.3218   0.3396
  0.3398   0.3535   0.3692   0.3880   0.3909   0.4060   0.4287   0.4295
  0.4504   0.4688   0.4954   0.6196   0.6473   0.6669   0.6713   0.6762
  0.6866   0.7007   0.7340   0.7448   0.7542   0.7608   0.7845   0.7859
  0.8077   0.8149   0.8282   0.8559   0.8738   0.9180   0.9604   0.9785
  0.9906   0.9981   1.0232   1.0291   1.0409   1.0691   1.0985   1.1237
  1.1311   1.1343   1.1395   1.1486   1.1607   1.1858   1.1919   1.1974
  1.2405   1.2447   1.2790   1.3207   1.3485   1.3752   1.3987   1.4247
  1.4882   1.4949   1.4979   1.5726   1.5784   1.6145   1.7032   1.7368
  1.7402   1.7567   1.7756   1.8074   1.8553   1.8730   1.9078   1.9133
  1.9176   1.9423   1.9888   2.0182   2.0242   2.0526   2.0617   2.0941
  2.0992   2.1354   2.2088   2.2286   2.2833   2.3185   2.3197   2.3562
  2.4079   2.4176   2.4256   2.4276   2.4554   2.5679   2.5945   2.6274
  2.6789   2.6911   2.7110   2.7675   2.7835   2.8410   2.8739   3.0077
  3.1876   4.1012   4.1964   4.2334   4.3004   4.3408   4.4212   4.6082
  4.6145   4.6806
 --------------------------------------------------------------
 
          Ground-State Mulliken Net Atomic Charges

     Atom                 Charge (a.u.)
  ----------------------------------------
      1 C                    -0.222573
      2 C                    -0.427009
      3 C                    -0.237124
      4 C                    -0.504471
      5 C                    -0.289775
      6 C                    -0.514437
      7 H                     0.196335
      8 H                     0.179052
      9 H                     0.273946
     10 H                     0.186483
     11 H                     0.127284
     12 H                     0.232904
     13 H                     0.172226
     14 H                     0.279259
     15 H                     0.125414
     16 H                     0.221777
     17 H                     0.275342
     18 N                    -0.405993
     19 H                     0.464741
     20 C                     0.294850
     21 H                     0.188722
     22 O                    -0.616952
  ----------------------------------------
  Sum of atomic charges =     0.000000

 -----------------------------------------------------------------
                    Cartesian Multipole Moments
 -----------------------------------------------------------------
    Charge (ESU x 10^10)
                -0.0000
    Dipole Moment (Debye)
         X       1.9764      Y       1.2491      Z      -8.7254
       Tot       9.0332
    Quadrupole Moments (Debye-Ang)
        XX     -50.8806     XY       3.7262     YY     -54.5776
        XZ     -11.9081     YZ      -7.8433     ZZ     -55.2243
    Octopole Moments (Debye-Ang^2)
       XXX    -390.6600    XXY     -80.6512    XYY    -129.8485
       YYY    -263.5216    XXZ     -29.3043    XYZ     -26.2607
       YYZ      -6.4495    XZZ    -122.3387    YZZ     -80.9459
       ZZZ      20.7643
    Hexadecapole Moments (Debye-Ang^3)
      XXXX   -2972.4931   XXXY    -847.8410   XXYY    -744.6454
      XYYY    -859.9573   YYYY   -1516.9079   XXXZ      10.6655
      XXYZ     -54.1479   XYYZ      -7.9737   YYYZ      43.4783
      XXZZ    -508.6253   XYZZ    -267.1010   YYZZ    -282.9088
      XZZZ     154.3457   YZZZ      90.8954   ZZZZ    -237.7693
 -----------------------------------------------------------------
 Calculating analytic gradient of the SCF energy
 Gradient of SCF Energy
            1           2           3           4           5           6
    1   0.0003118  -0.0012688   0.0002449   0.0001766   0.0002760   0.0000311
    2   0.0001517  -0.0005639   0.0000440  -0.0004483   0.0002386  -0.0001387
    3   0.0033161   0.0019663   0.0033568   0.0053415   0.0020426   0.0055394
            7           8           9          10          11          12
    1  -0.0000641  -0.0000759  -0.0000152   0.0011817   0.0000787   0.0010765
    2   0.0007465   0.0001460  -0.0008539  -0.0005721   0.0003556  -0.0004600
    3   0.0009736  -0.0024069  -0.0025139   0.0005854  -0.0061710   0.0009771
           13          14          15          16          17          18
    1  -0.0011704  -0.0003875  -0.0000730   0.0000590  -0.0010551   0.0094200
    2  -0.0008382  -0.0000365   0.0007201   0.0006102   0.0007640   0.0055438
    3   0.0006924  -0.0024427  -0.0064195   0.0011755  -0.0024227  -0.0124445
           19          20          21          22
    1   0.0007082  -0.0079361  -0.0022544   0.0007359
    2   0.0006087  -0.0050638  -0.0014325   0.0004787
    3   0.0041398   0.0399819  -0.0014308  -0.0338362
 Max gradient component =       3.998E-02
 RMS gradient           =       7.117E-03
 Gradient time:  CPU 118.53 s  wall 7.55 s
 Geometry Optimization Parameters
   NAtoms,    NIC,     NZ,  NCons,   NDum,   NFix, NCnnct, MaxDiis
       22     172       0       0       0       0       0       0


** GEOMETRY OPTIMIZATION IN DELOCALIZED INTERNAL COORDINATES **
   Searching for a Minimum

   Optimization Cycle:   1

                       Coordinates (Angstroms)
     ATOM                X               Y               Z
      1  C         1.9839655798    2.8343873569   -0.6530035790
      2  C         2.0889665948    1.3399289492   -0.2973932582
      3  C         3.4017166944    0.7321441035   -0.8222227424
      4  C         4.6254659785    1.5200300416   -0.3255741318
      5  C         4.5210827926    3.0122209378   -0.6783481608
      6  C         3.2094896156    3.6188525050   -0.1554554411
      7  H         3.4653882129   -0.3186255299   -0.5134835234
      8  H         2.0538505535    1.2303619181    0.7916336585
      9  H         1.9041773336    2.9373830819   -1.7471760654
     10  H         1.0604862058    3.2447823031   -0.2264495779
     11  H         4.7056113531    1.4098609561    0.7662015896
     12  H         5.5416784391    1.0893334561   -0.7496610014
     13  H         5.3807748665    3.5587419877   -0.2692766409
     14  H         4.5659637339    3.1311627355   -1.7719372538
     15  H         3.2192612515    3.6121018079    0.9447339030
     16  H         3.1260878858    4.6703627905   -0.4590864625
     17  H         3.3863457527    0.7409636912   -1.9242196110
     18  N         0.9315723625    0.5939302253   -0.7942938700
     19  H         0.8024957372    0.5217251348   -1.7968919912
     20  C         0.0000000000    0.0000000000    0.0000000000
     21  H        -0.7899738588   -0.5065817117   -0.5873052394
     22  O         0.0000000000    0.0000000000    1.2238135054
   Point Group: c1    Number of degrees of freedom:    60


   Energy is   -404.643791877


 Attempting to generate delocalized internal coordinates
 Initial Hessian constructed with Jon Baker's OPTIMIZE code

 60 Hessian modes will be used to form the next step
  Hessian Eigenvalues:
     0.005967    0.006024    0.006964    0.007193    0.012605    0.019501
     0.019786    0.020845    0.020845    0.037215    0.038526    0.039417
     0.041724    0.048166    0.048450    0.048891    0.055292    0.055631
     0.055746    0.059934    0.066958    0.081508    0.081536    0.081616
     0.082032    0.082133    0.084029    0.087513    0.120967    0.121178
     0.142989    0.159989    0.160000    0.160554    0.174868    0.210947
     0.220000    0.220003    0.272263    0.272658    0.275535    0.286789
     0.287121    0.287175    0.329119    0.334466    0.334727    0.335769
     0.336541    0.336553    0.339301    0.339441    0.339454    0.340119
     0.340274    0.342312    0.364811    0.454000    0.528079    0.937134

 Minimum search - taking simple RFO step
 Searching for Lamda that Minimizes Along All modes
 Value Taken    Lamda =  -0.00250963
 Step Taken.  Stepsize is  0.213518

                             Maximum     Tolerance    Cnvgd?
         Gradient           0.018407      0.000100      NO
         Displacement       0.077174      0.000100      NO
         Energy change     *********      0.000000      NO


 New Cartesian Coordinates Obtained by Inverse Iteration

 Displacement from previous Coordinates is:  0.410818
 ----------------------------------------------------------------
             Standard Nuclear Orientation (Angstroms)
    I     Atom           X                Y                Z
 ----------------------------------------------------------------
    1      C       1.9832709477     2.8336461928    -0.6919206325
    2      C       2.0910170891     1.3408674911    -0.3274364762
    3      C       3.4018869061     0.7349257130    -0.8621321530
    4      C       4.6163340528     1.5113302641    -0.3256761617
    5      C       4.5240831703     3.0126333655    -0.6461602802
    6      C       3.1957920854     3.6124677385    -0.1546359959
    7      H       3.4608384621    -0.3245141656    -0.5809584909
    8      H       2.0721373803     1.2416586910     0.7665695995
    9      H       1.9327575102     2.9451726216    -1.7831906804
   10      H       1.0459343519     3.2433616309    -0.2919249840
   11      H       4.6742476944     1.3746111717     0.7744570883
   12      H       5.5362152169     1.0902563914    -0.7483868927
   13      H       5.3750152827     3.5518375110    -0.2053474911
   14      H       4.6038623290     3.1546804082    -1.7308053265
   15      H       3.1730829784     3.5928523352     0.9554808326
   16      H       3.1201781585     4.6643997682    -0.4570919560
   17      H       3.4063369399     0.7662023660    -1.9599680799
   18      N       0.9220310387     0.5868003974    -0.7832365650
   19      H       0.7689654606     0.4922458768    -1.7858340976
   20      C       0.0187279753     0.0142202717     0.0379180798
   21      H      -0.7774848258    -0.5000799086    -0.5253839936
   22      O       0.0391768805     0.0334906089     1.2802687633
 ----------------------------------------------------------------
 Nuclear Repulsion Energy =         466.49914358 hartrees
 There are       35 alpha and       35 beta electrons
 Applying Cartesian multipole field
    Component          Value
    ---------          -----
     (0,0,1)        2.33370E-02
 Nucleus-field energy     =    -0.9099331175 hartrees
 Requested basis set is 6-31+G(d)
 There are 71 shells and 197 basis functions
 A cutoff of  1.0D-14 yielded   2413 shell pairs
 There are     19013 function pairs
 Smallest overlap matrix eigenvalue = 2.56E-05
 Guess MOs from SCF MO coefficient file

 -----------------------------------------------------------------------
  General SCF calculation program by
  Eric Jon Sundstrom, Paul Horn, Yuezhi Mao, Dmitri Zuev, Alec White,
  David Stuck, Shaama M.S., Shane Yost, Joonho Lee, David Small,
  Daniel Levine, Susi Lehtola, Hugh Burton, Evgeny Epifanovsky,
  Bang C. Huynh
 -----------------------------------------------------------------------
 Exchange:     0.2000 Hartree-Fock + 0.0800 Slater + 0.7200 B88
 Correlation:  0.1900 VWN1RPA + 0.8100 LYP
 Using Euler-Maclaurin-Lebedev (99,590) quadrature formula
 using 16 threads for integral computing
 -------------------------------------------------------
 OpenMP Integral computing Module                
 Release: version 2.0, May 2017, Q-Chem Inc. Pleasanton 
 -------------------------------------------------------
 A restricted SCF calculation will be
 performed using DIIS
 SCF converges when DIIS error is below 1.0e-09
 ---------------------------------------
  Cycle       Energy         DIIS error
 ---------------------------------------
    1    -404.6426685552      5.56e-04  
    2    -404.6452587657      1.02e-04  
    3    -404.6452589002      1.14e-04  
    4    -404.6453138733      2.44e-05  
    5    -404.6453157037      1.20e-05  
    6    -404.6453162199      3.00e-06  
    7    -404.6453162514      1.30e-06  
    8    -404.6453162587      1.73e-07  
    9    -404.6453162588      7.59e-08  
   10    -404.6453162588      7.57e-09  
   11    -404.6453162588      3.12e-09  
   12    -404.6453162588      8.68e-10  Convergence criterion met
 ---------------------------------------
 SCF time:   CPU 568.12s  wall 36.00s 
 SCF   energy in the final basis set =     -404.6453162588
 Total energy in the final basis set =     -404.6453162588
 
 --------------------------------------------------------------
 
                    Orbital Energies (a.u.)
 --------------------------------------------------------------
 
 Alpha MOs
 -- Occupied --
-19.1359 -14.3649 -10.2910 -10.2217 -10.1854 -10.1812 -10.1733 -10.1700
-10.1700  -1.0369  -0.9261  -0.8195  -0.7368  -0.7361  -0.6307  -0.6058
 -0.5854  -0.5600  -0.5194  -0.4805  -0.4554  -0.4382  -0.4340  -0.4161
 -0.4133  -0.3907  -0.3734  -0.3696  -0.3389  -0.3382  -0.3172  -0.3080
 -0.3046  -0.2707  -0.2551
 -- Virtual --
 -0.0458  -0.0127  -0.0066   0.0122   0.0208   0.0329   0.0394   0.0530
  0.0676   0.0713   0.0805   0.0856   0.0982   0.1001   0.1180   0.1251
  0.1344   0.1377   0.1447   0.1461   0.1504   0.1656   0.1759   0.1802
  0.1847   0.1864   0.1917   0.1995   0.2077   0.2102   0.2223   0.2235
  0.2299   0.2377   0.2421   0.2515   0.2559   0.2652   0.2687   0.2816
  0.2901   0.2944   0.2978   0.3042   0.3082   0.3132   0.3199   0.3401
  0.3416   0.3516   0.3670   0.3884   0.3911   0.4075   0.4274   0.4293
  0.4462   0.4713   0.4870   0.6191   0.6464   0.6682   0.6714   0.6773
  0.6863   0.7005   0.7331   0.7427   0.7560   0.7599   0.7800   0.7852
  0.8060   0.8146   0.8283   0.8567   0.8740   0.9184   0.9609   0.9772
  0.9899   0.9975   1.0208   1.0284   1.0371   1.0640   1.0966   1.1199
  1.1256   1.1302   1.1391   1.1507   1.1593   1.1866   1.1931   1.2005
  1.2405   1.2450   1.2780   1.3231   1.3510   1.3787   1.3969   1.4290
  1.4813   1.4896   1.4989   1.5703   1.5739   1.6150   1.7098   1.7372
  1.7389   1.7515   1.7769   1.8077   1.8516   1.8686   1.9072   1.9095
  1.9190   1.9426   1.9921   2.0146   2.0243   2.0525   2.0602   2.0877
  2.0929   2.1342   2.2108   2.2259   2.2831   2.3123   2.3198   2.3495
  2.4014   2.4149   2.4220   2.4232   2.4542   2.5671   2.5937   2.6200
  2.6788   2.6879   2.7047   2.7681   2.7844   2.8401   2.8704   2.9903
  3.1834   4.1017   4.1957   4.2296   4.2976   4.3384   4.4173   4.6100
  4.6158   4.6810
 --------------------------------------------------------------
 
          Ground-State Mulliken Net Atomic Charges

     Atom                 Charge (a.u.)
  ----------------------------------------
      1 C                    -0.218147
      2 C                    -0.462560
      3 C                    -0.236827
      4 C                    -0.499978
      5 C                    -0.285507
      6 C                    -0.510190
      7 H                     0.199259
      8 H                     0.182980
      9 H                     0.276655
     10 H                     0.189408
     11 H                     0.126451
     12 H                     0.232757
     13 H                     0.170189
     14 H                     0.279323
     15 H                     0.124396
     16 H                     0.221527
     17 H                     0.278514
     18 N                    -0.383274
     19 H                     0.465709
     20 C                     0.296084
     21 H                     0.187598
     22 O                    -0.634369
  ----------------------------------------
  Sum of atomic charges =     0.000000

 -----------------------------------------------------------------
                    Cartesian Multipole Moments
 -----------------------------------------------------------------
    Charge (ESU x 10^10)
                -0.0000
    Dipole Moment (Debye)
         X       1.9916      Y       1.2321      Z      -9.0233
       Tot       9.3223
    Quadrupole Moments (Debye-Ang)
        XX     -50.6752     XY       3.8245     YY     -54.4574
        XZ     -12.3123     YZ      -8.1035     ZZ     -55.7032
    Octopole Moments (Debye-Ang^2)
       XXX    -390.2021    XXY     -80.3877    XYY    -129.6427
       YYY    -263.4484    XXZ     -30.6077    XYZ     -26.5966
       YYZ      -7.3713    XZZ    -122.4750    YZZ     -81.2501
       ZZZ      18.6227
    Hexadecapole Moments (Debye-Ang^3)
      XXXX   -2964.1177   XXXY    -843.9204   XXYY    -741.9023
      XYYY    -856.9796   YYYY   -1512.6417   XXXZ       6.4270
      XXYZ     -55.8509   XYYZ      -9.5111   YYYZ      41.1380
      XXZZ    -508.1295   XYZZ    -266.1554   YYZZ    -283.5985
      XZZZ     154.1982   YZZZ      90.6259   ZZZZ    -247.7602
 -----------------------------------------------------------------
 Calculating analytic gradient of the SCF energy
 Gradient of SCF Energy
            1           2           3           4           5           6
    1   0.0006873  -0.0009787   0.0009868  -0.0004662   0.0007193  -0.0004271
    2   0.0005786  -0.0004433   0.0003338  -0.0003131   0.0005068  -0.0004255
    3   0.0001237  -0.0000540   0.0001581   0.0002548   0.0001476   0.0003467
            7           8           9          10          11          12
    1  -0.0001507  -0.0007690  -0.0000972  -0.0000692   0.0000035   0.0000551
    2   0.0000370  -0.0004553  -0.0000165  -0.0001285   0.0000263  -0.0001172
    3   0.0001825  -0.0000498  -0.0000509   0.0001478  -0.0000604   0.0002466
           13          14          15          16          17          18
    1  -0.0001069  -0.0000160  -0.0000147  -0.0001170  -0.0000313   0.0032960
    2  -0.0000622  -0.0000405   0.0000217   0.0000821  -0.0000671   0.0019043
    3   0.0001575   0.0003645  -0.0001253   0.0002239  -0.0000533  -0.0044794
           19          20          21          22
    1   0.0000924  -0.0029616   0.0003138   0.0000515
    2   0.0001655  -0.0017584   0.0001458   0.0000259
    3  -0.0000303   0.0132251  -0.0020067  -0.0086689
 Max gradient component =       1.323E-02
 RMS gradient           =       2.156E-03
 Gradient time:  CPU 119.68 s  wall 7.57 s
 Geometry Optimization Parameters
   NAtoms,    NIC,     NZ,  NCons,   NDum,   NFix, NCnnct, MaxDiis
       22     172       0       0       0       0       0       0

 Cartesian Hessian Update
 Hessian updated using BFGS update


** GEOMETRY OPTIMIZATION IN DELOCALIZED INTERNAL COORDINATES **
   Searching for a Minimum

   Optimization Cycle:   2

                       Coordinates (Angstroms)
     ATOM                X               Y               Z
      1  C         1.9832709477    2.8336461928   -0.6919206325
      2  C         2.0910170891    1.3408674911   -0.3274364762
      3  C         3.4018869061    0.7349257130   -0.8621321530
      4  C         4.6163340528    1.5113302641   -0.3256761617
      5  C         4.5240831703    3.0126333655   -0.6461602802
      6  C         3.1957920854    3.6124677385   -0.1546359959
      7  H         3.4608384621   -0.3245141656   -0.5809584909
      8  H         2.0721373803    1.2416586910    0.7665695995
      9  H         1.9327575102    2.9451726216   -1.7831906804
     10  H         1.0459343519    3.2433616309   -0.2919249840
     11  H         4.6742476944    1.3746111717    0.7744570883
     12  H         5.5362152169    1.0902563914   -0.7483868927
     13  H         5.3750152827    3.5518375110   -0.2053474911
     14  H         4.6038623290    3.1546804082   -1.7308053265
     15  H         3.1730829784    3.5928523352    0.9554808326
     16  H         3.1201781585    4.6643997682   -0.4570919560
     17  H         3.4063369399    0.7662023660   -1.9599680799
     18  N         0.9220310387    0.5868003974   -0.7832365650
     19  H         0.7689654606    0.4922458768   -1.7858340976
     20  C         0.0187279753    0.0142202717    0.0379180798
     21  H        -0.7774848258   -0.5000799086   -0.5253839936
     22  O         0.0391768805    0.0334906089    1.2802687633
   Point Group: c1    Number of degrees of freedom:    60


   Energy is   -404.645316259

 Hessian updated using BFGS update

 60 Hessian modes will be used to form the next step
  Hessian Eigenvalues:
     0.005873    0.005976    0.006927    0.007194    0.012603    0.019500
     0.019807    0.020845    0.020847    0.037118    0.038555    0.039416
     0.041734    0.048206    0.048450    0.048892    0.055295    0.055727
     0.055943    0.060175    0.066958    0.081173    0.081534    0.081607
     0.082033    0.082133    0.084248    0.087503    0.120967    0.121278
     0.142952    0.159945    0.160181    0.162235    0.174882    0.210747
     0.219614    0.222887    0.272017    0.272673    0.275535    0.286862
     0.287033    0.287552    0.328189    0.334529    0.334840    0.335680
     0.336544    0.339173    0.339394    0.339436    0.339697    0.340138
     0.341050    0.345326    0.366107    0.453599    0.485779    0.813686

 Minimum search - taking simple RFO step
 Searching for Lamda that Minimizes Along All modes
 Value Taken    Lamda =  -0.00032507
 Step Taken.  Stepsize is  0.134181

                             Maximum     Tolerance    Cnvgd?
         Gradient           0.005647      0.000100      NO
         Displacement       0.055341      0.000100      NO
         Energy change     -0.001524      0.000000      NO


 New Cartesian Coordinates Obtained by Inverse Iteration

 Displacement from previous Coordinates is:  0.224398
 ----------------------------------------------------------------
             Standard Nuclear Orientation (Angstroms)
    I     Atom           X                Y                Z
 ----------------------------------------------------------------
    1      C       1.9841177823     2.8320989003    -0.7119810000
    2      C       2.0932080139     1.3425066127    -0.3385587032
    3      C       3.3997018882     0.7382445782    -0.8822322595
    4      C       4.6114768313     1.5061370761    -0.3262739564
    5      C       4.5240757677     3.0114833121    -0.6284401245
    6      C       3.1887782145     3.6106648616    -0.1556071174
    7      H       3.4575526060    -0.3257183841    -0.6184571263
    8      H       2.0912523367     1.2538600631     0.7565399574
    9      H       1.9521767397     2.9410786166    -1.8039127051
   10      H       1.0406514837     3.2433932418    -0.3285935149
   11      H       4.6576286404     1.3544803853     0.7734686631
   12      H       5.5348575793     1.0902611126    -0.7459653943
   13      H       5.3675555735     3.5439392007    -0.1646181654
   14      H       4.6258633571     3.1678019475    -1.7093045355
   15      H       3.1478916002     3.5867302622     0.9550197427
   16      H       3.1192193900     4.6632935816    -0.4564008630
   17      H       3.4089959870     0.7879484730    -1.9790263435
   18      N       0.9179719713     0.5835118525    -0.7746921395
   19      H       0.7559185372     0.4799748235    -1.7756171812
   20      C       0.0264169048     0.0178364864     0.0535296399
   21      H      -0.7801213455    -0.5022863500    -0.4867769935
   22      O       0.0592172259     0.0458260869     1.3025042262
 ----------------------------------------------------------------
 Nuclear Repulsion Energy =         466.61172515 hartrees
 There are       35 alpha and       35 beta electrons
 Applying Cartesian multipole field
    Component          Value
    ---------          -----
     (0,0,1)        2.33370E-02
 Nucleus-field energy     =    -0.9051122545 hartrees
 Requested basis set is 6-31+G(d)
 There are 71 shells and 197 basis functions
 A cutoff of  1.0D-14 yielded   2413 shell pairs
 There are     19013 function pairs
 Smallest overlap matrix eigenvalue = 2.57E-05
 Guess MOs from SCF MO coefficient file

 -----------------------------------------------------------------------
  General SCF calculation program by
  Eric Jon Sundstrom, Paul Horn, Yuezhi Mao, Dmitri Zuev, Alec White,
  David Stuck, Shaama M.S., Shane Yost, Joonho Lee, David Small,
  Daniel Levine, Susi Lehtola, Hugh Burton, Evgeny Epifanovsky,
  Bang C. Huynh
 -----------------------------------------------------------------------
 Exchange:     0.2000 Hartree-Fock + 0.0800 Slater + 0.7200 B88
 Correlation:  0.1900 VWN1RPA + 0.8100 LYP
 Using Euler-Maclaurin-Lebedev (99,590) quadrature formula
 using 16 threads for integral computing
 -------------------------------------------------------
 OpenMP Integral computing Module                
 Release: version 2.0, May 2017, Q-Chem Inc. Pleasanton 
 -------------------------------------------------------
 A restricted SCF calculation will be
 performed using DIIS
 SCF converges when DIIS error is below 1.0e-09
 ---------------------------------------
  Cycle       Energy         DIIS error
 ---------------------------------------
    1    -404.6447592082      2.87e-04  
    2    -404.6454759126      5.38e-05  
    3    -404.6454653795      8.24e-05  
    4    -404.6454886182      2.04e-05  
    5    -404.6454902222      6.14e-06  
    6    -404.6454903861      1.09e-06  
    7    -404.6454903904      4.83e-07  
    8    -404.6454903914      7.15e-08  
    9    -404.6454903914      2.21e-08  
   10    -404.6454903914      5.21e-09  
   11    -404.6454903914      1.01e-09  
   12    -404.6454903914      4.87e-10  Convergence criterion met
 ---------------------------------------
 SCF time:   CPU 568.64s  wall 36.00s 
 SCF   energy in the final basis set =     -404.6454903914
 Total energy in the final basis set =     -404.6454903914
 
 --------------------------------------------------------------
 
                    Orbital Energies (a.u.)
 --------------------------------------------------------------
 
 Alpha MOs
 -- Occupied --
-19.1349 -14.3666 -10.2912 -10.2221 -10.1858 -10.1816 -10.1732 -10.1707
-10.1700  -1.0337  -0.9273  -0.8204  -0.7375  -0.7363  -0.6316  -0.6058
 -0.5861  -0.5605  -0.5206  -0.4814  -0.4548  -0.4387  -0.4341  -0.4154
 -0.4128  -0.3912  -0.3738  -0.3686  -0.3390  -0.3382  -0.3173  -0.3085
 -0.3047  -0.2700  -0.2559
 -- Virtual --
 -0.0455  -0.0126  -0.0064   0.0114   0.0207   0.0330   0.0393   0.0525
  0.0670   0.0713   0.0805   0.0855   0.0986   0.0997   0.1180   0.1246
  0.1341   0.1371   0.1452   0.1459   0.1511   0.1657   0.1762   0.1796
  0.1838   0.1860   0.1912   0.1996   0.2065   0.2100   0.2229   0.2240
  0.2291   0.2376   0.2419   0.2511   0.2562   0.2651   0.2695   0.2807
  0.2893   0.2935   0.2975   0.3050   0.3074   0.3134   0.3191   0.3411
  0.3431   0.3512   0.3663   0.3893   0.3910   0.4077   0.4272   0.4296
  0.4450   0.4734   0.4846   0.6188   0.6460   0.6687   0.6711   0.6776
  0.6863   0.7007   0.7324   0.7415   0.7571   0.7599   0.7786   0.7854
  0.8060   0.8148   0.8281   0.8581   0.8754   0.9181   0.9596   0.9774
  0.9896   0.9972   1.0199   1.0294   1.0357   1.0618   1.0950   1.1187
  1.1243   1.1293   1.1394   1.1496   1.1609   1.1867   1.1935   1.2024
  1.2401   1.2450   1.2780   1.3243   1.3530   1.3808   1.3954   1.4317
  1.4787   1.4880   1.5001   1.5673   1.5736   1.6132   1.7092   1.7365
  1.7392   1.7507   1.7786   1.8077   1.8512   1.8678   1.9063   1.9092
  1.9211   1.9438   1.9941   2.0129   2.0259   2.0529   2.0591   2.0870
  2.0904   2.1349   2.2113   2.2247   2.2848   2.3123   2.3214   2.3477
  2.3987   2.4146   2.4205   2.4239   2.4551   2.5661   2.5940   2.6169
  2.6799   2.6872   2.7024   2.7688   2.7870   2.8400   2.8679   2.9835
  3.1841   4.1023   4.1950   4.2286   4.2968   4.3382   4.4143   4.6121
  4.6174   4.6813
 --------------------------------------------------------------
 
          Ground-State Mulliken Net Atomic Charges

     Atom                 Charge (a.u.)
  ----------------------------------------
      1 C                    -0.213850
      2 C                    -0.482915
      3 C                    -0.233053
      4 C                    -0.495754
      5 C                    -0.287794
      6 C                    -0.506083
      7 H                     0.200852
      8 H                     0.184729
      9 H                     0.277553
     10 H                     0.191010
     11 H                     0.126861
     12 H                     0.232624
     13 H                     0.168345
     14 H                     0.279182
     15 H                     0.124736
     16 H                     0.221508
     17 H                     0.279523
     18 N                    -0.374567
     19 H                     0.465894
     20 C                     0.295411
     21 H                     0.187454
     22 O                    -0.641664
  ----------------------------------------
  Sum of atomic charges =     0.000000

 -----------------------------------------------------------------
                    Cartesian Multipole Moments
 -----------------------------------------------------------------
    Charge (ESU x 10^10)
                -0.0000
    Dipole Moment (Debye)
         X       1.9935      Y       1.2296      Z      -9.1253
       Tot       9.4211
    Quadrupole Moments (Debye-Ang)
        XX     -50.5288     XY       3.8965     YY     -54.3743
        XZ     -12.4314     YZ      -8.1657     ZZ     -55.9456
    Octopole Moments (Debye-Ang^2)
       XXX    -389.9128    XXY     -80.2749    XYY    -129.5228
       YYY    -263.2503    XXZ     -30.8105    XYZ     -26.5926
       YYZ      -7.5752    XZZ    -122.5211    YZZ     -81.3035
       ZZZ      17.8236
    Hexadecapole Moments (Debye-Ang^3)
      XXXX   -2959.2092   XXXY    -842.9109   XXYY    -740.8160
      XYYY    -855.5454   YYYY   -1509.8827   XXXZ       6.2328
      XXYZ     -55.9213   XYYZ      -9.6459   YYYZ      41.0548
      XXZZ    -507.6315   XYZZ    -265.5058   YYZZ    -283.7593
      XZZZ     154.1786   YZZZ      90.6964   ZZZZ    -252.2763
 -----------------------------------------------------------------
 Calculating analytic gradient of the SCF energy
 Gradient of SCF Energy
            1           2           3           4           5           6
    1   0.0006404  -0.0003239   0.0003035  -0.0001729   0.0001315  -0.0002161
    2  -0.0000092  -0.0001642   0.0005823  -0.0001463   0.0000722  -0.0000387
    3  -0.0001635  -0.0001388  -0.0000917  -0.0003083   0.0003172  -0.0003413
            7           8           9          10          11          12
    1  -0.0000884  -0.0000452   0.0000549  -0.0001530  -0.0001222  -0.0000114
    2  -0.0000805  -0.0000362   0.0000962  -0.0000371  -0.0000563  -0.0000353
    3  -0.0000122   0.0001684   0.0001183  -0.0000294   0.0005934   0.0002437
           13          14          15          16          17          18
    1  -0.0000536   0.0001196  -0.0000924  -0.0000498   0.0001292   0.0005376
    2  -0.0000222   0.0000609  -0.0001470   0.0000176  -0.0000187   0.0003076
    3   0.0002255   0.0003815   0.0005722   0.0002132   0.0001301  -0.0004173
           19          20          21          22
    1  -0.0001629  -0.0004755   0.0000080   0.0000428
    2  -0.0000740  -0.0004123   0.0000569   0.0000842
    3  -0.0003491   0.0008383  -0.0006734  -0.0012767
 Max gradient component =       1.277E-03
 RMS gradient           =       3.151E-04
 Gradient time:  CPU 121.43 s  wall 7.70 s
 Geometry Optimization Parameters
   NAtoms,    NIC,     NZ,  NCons,   NDum,   NFix, NCnnct, MaxDiis
       22     172       0       0       0       0       0       0

 Cartesian Hessian Update
 Hessian updated using BFGS update


** GEOMETRY OPTIMIZATION IN DELOCALIZED INTERNAL COORDINATES **
   Searching for a Minimum

   Optimization Cycle:   3

                       Coordinates (Angstroms)
     ATOM                X               Y               Z
      1  C         1.9841177823    2.8320989003   -0.7119810000
      2  C         2.0932080139    1.3425066127   -0.3385587032
      3  C         3.3997018882    0.7382445782   -0.8822322595
      4  C         4.6114768313    1.5061370761   -0.3262739564
      5  C         4.5240757677    3.0114833121   -0.6284401245
      6  C         3.1887782145    3.6106648616   -0.1556071174
      7  H         3.4575526060   -0.3257183841   -0.6184571263
      8  H         2.0912523367    1.2538600631    0.7565399574
      9  H         1.9521767397    2.9410786166   -1.8039127051
     10  H         1.0406514837    3.2433932418   -0.3285935149
     11  H         4.6576286404    1.3544803853    0.7734686631
     12  H         5.5348575793    1.0902611126   -0.7459653943
     13  H         5.3675555735    3.5439392007   -0.1646181654
     14  H         4.6258633571    3.1678019475   -1.7093045355
     15  H         3.1478916002    3.5867302622    0.9550197427
     16  H         3.1192193900    4.6632935816   -0.4564008630
     17  H         3.4089959870    0.7879484730   -1.9790263435
     18  N         0.9179719713    0.5835118525   -0.7746921395
     19  H         0.7559185372    0.4799748235   -1.7756171812
     20  C         0.0264169048    0.0178364864    0.0535296399
     21  H        -0.7801213455   -0.5022863500   -0.4867769935
     22  O         0.0592172259    0.0458260869    1.3025042262
   Point Group: c1    Number of degrees of freedom:    60


   Energy is   -404.645490391

 Hessian updated using BFGS update

 60 Hessian modes will be used to form the next step
  Hessian Eigenvalues:
     0.005894    0.005975    0.007041    0.007194    0.012597    0.019500
     0.019887    0.020840    0.020881    0.037434    0.038582    0.039419
     0.041744    0.048293    0.048451    0.048976    0.055295    0.055731
     0.055940    0.060174    0.066957    0.080503    0.081534    0.081605
     0.082033    0.082133    0.084125    0.087503    0.120361    0.120968
     0.142931    0.154198    0.160567    0.162155    0.174888    0.210605
     0.218195    0.225082    0.271578    0.272643    0.275533    0.286375
     0.286904    0.288285    0.327800    0.334530    0.334839    0.335967
     0.336544    0.338999    0.339429    0.339437    0.339897    0.340168
     0.341427    0.348542    0.365750    0.454781    0.475597    0.787982

 Minimum search - taking simple RFO step
 Searching for Lamda that Minimizes Along All modes
 Value Taken    Lamda =  -0.00001007
 Step Taken.  Stepsize is  0.014863

                             Maximum     Tolerance    Cnvgd?
         Gradient           0.000766      0.000100      NO
         Displacement       0.005792      0.000100      NO
         Energy change     -0.000174      0.000000      NO


 New Cartesian Coordinates Obtained by Inverse Iteration

 Displacement from previous Coordinates is:  0.017201
 ----------------------------------------------------------------
             Standard Nuclear Orientation (Angstroms)
    I     Atom           X                Y                Z
 ----------------------------------------------------------------
    1      C       1.9834158594     2.8323643382    -0.7124767193
    2      C       2.0933848227     1.3428589845    -0.3382767097
    3      C       3.3992751005     0.7376882105    -0.8828803590
    4      C       4.6114522619     1.5055851022    -0.3266797226
    5      C       4.5239193685     3.0111796622    -0.6273359394
    6      C       3.1884078807     3.6109403347    -0.1558860831
    7      H       3.4579598790    -0.3264572191    -0.6206237472
    8      H       2.0915640252     1.2543179763     0.7564357294
    9      H       1.9530813893     2.9403986843    -1.8047165318
   10      H       1.0400809632     3.2446085720    -0.3303772663
   11      H       4.6583112634     1.3521467526     0.7721683070
   12      H       5.5348847798     1.0908800816    -0.7474508768
   13      H       5.3667364172     3.5428308110    -0.1610179911
   14      H       4.6276064617     3.1687272089    -1.7080152211
   15      H       3.1461325974     3.5886349555     0.9541077899
   16      H       3.1200129945     4.6632129874    -0.4580436413
   17      H       3.4083792042     0.7894559130    -1.9797485796
   18      N       0.9177478524     0.5839152073    -0.7732836411
   19      H       0.7578569635     0.4802345761    -1.7744068197
   20      C       0.0260997572     0.0186842652     0.0542373663
   21      H      -0.7792828169    -0.5035391074    -0.4853543047
   22      O       0.0573800604     0.0443984435     1.3042290676
 ----------------------------------------------------------------
 Nuclear Repulsion Energy =         466.55410936 hartrees
 There are       35 alpha and       35 beta electrons
 Applying Cartesian multipole field
    Component          Value
    ---------          -----
     (0,0,1)        2.33370E-02
 Nucleus-field energy     =    -0.9041485849 hartrees
 Requested basis set is 6-31+G(d)
 There are 71 shells and 197 basis functions
 A cutoff of  1.0D-14 yielded   2413 shell pairs
 There are     19013 function pairs
 Smallest overlap matrix eigenvalue = 2.57E-05
 Guess MOs from SCF MO coefficient file

 -----------------------------------------------------------------------
  General SCF calculation program by
  Eric Jon Sundstrom, Paul Horn, Yuezhi Mao, Dmitri Zuev, Alec White,
  David Stuck, Shaama M.S., Shane Yost, Joonho Lee, David Small,
  Daniel Levine, Susi Lehtola, Hugh Burton, Evgeny Epifanovsky,
  Bang C. Huynh
 -----------------------------------------------------------------------
 Exchange:     0.2000 Hartree-Fock + 0.0800 Slater + 0.7200 B88
 Correlation:  0.1900 VWN1RPA + 0.8100 LYP
 Using Euler-Maclaurin-Lebedev (99,590) quadrature formula
 using 16 threads for integral computing
 -------------------------------------------------------
 OpenMP Integral computing Module                
 Release: version 2.0, May 2017, Q-Chem Inc. Pleasanton 
 -------------------------------------------------------
 A restricted SCF calculation will be
 performed using DIIS
 SCF converges when DIIS error is below 1.0e-09
 ---------------------------------------
  Cycle       Energy         DIIS error
 ---------------------------------------
    1    -404.6454869985      3.05e-05  
    2    -404.6454943150      9.48e-06  
    3    -404.6454936455      1.63e-05  
    4    -404.6454946762      2.40e-06  
    5    -404.6454946981      6.14e-07  
    6    -404.6454946998      1.29e-07  
    7    -404.6454946999      5.65e-08  
    8    -404.6454946999      1.28e-08  
    9    -404.6454946999      3.89e-09  
   10    -404.6454946999      1.09e-09  
   11    -404.6454946999      2.69e-10  Convergence criterion met
 ---------------------------------------
 SCF time:   CPU 528.39s  wall 33.00s 
 SCF   energy in the final basis set =     -404.6454946999
 Total energy in the final basis set =     -404.6454946999
 
 --------------------------------------------------------------
 
                    Orbital Energies (a.u.)
 --------------------------------------------------------------
 
 Alpha MOs
 -- Occupied --
-19.1348 -14.3668 -10.2913 -10.2222 -10.1857 -10.1816 -10.1733 -10.1709
-10.1701  -1.0332  -0.9275  -0.8204  -0.7376  -0.7363  -0.6317  -0.6059
 -0.5863  -0.5605  -0.5207  -0.4814  -0.4547  -0.4388  -0.4342  -0.4153
 -0.4128  -0.3912  -0.3740  -0.3685  -0.3391  -0.3383  -0.3173  -0.3086
 -0.3048  -0.2699  -0.2561
 -- Virtual --
 -0.0455  -0.0126  -0.0064   0.0114   0.0208   0.0330   0.0392   0.0525
  0.0669   0.0713   0.0805   0.0855   0.0986   0.0997   0.1179   0.1245
  0.1340   0.1370   0.1452   0.1459   0.1512   0.1658   0.1762   0.1795
  0.1837   0.1859   0.1912   0.1996   0.2063   0.2100   0.2229   0.2240
  0.2290   0.2375   0.2418   0.2511   0.2561   0.2650   0.2695   0.2806
  0.2892   0.2934   0.2976   0.3050   0.3073   0.3133   0.3190   0.3410
  0.3431   0.3513   0.3663   0.3892   0.3908   0.4076   0.4272   0.4297
  0.4448   0.4735   0.4844   0.6186   0.6460   0.6686   0.6711   0.6776
  0.6861   0.7007   0.7323   0.7413   0.7572   0.7598   0.7784   0.7853
  0.8058   0.8147   0.8278   0.8580   0.8754   0.9185   0.9595   0.9776
  0.9896   0.9971   1.0198   1.0293   1.0356   1.0617   1.0951   1.1188
  1.1243   1.1294   1.1394   1.1495   1.1612   1.1866   1.1934   1.2026
  1.2398   1.2450   1.2780   1.3245   1.3529   1.3800   1.3951   1.4315
  1.4783   1.4879   1.5001   1.5675   1.5736   1.6139   1.7087   1.7360
  1.7391   1.7508   1.7785   1.8076   1.8511   1.8674   1.9063   1.9091
  1.9209   1.9439   1.9932   2.0130   2.0260   2.0527   2.0592   2.0867
  2.0902   2.1346   2.2114   2.2244   2.2842   2.3124   2.3210   2.3474
  2.3980   2.4148   2.4200   2.4236   2.4549   2.5659   2.5939   2.6168
  2.6800   2.6869   2.7022   2.7686   2.7870   2.8398   2.8676   2.9823
  3.1845   4.1023   4.1949   4.2283   4.2968   4.3381   4.4144   4.6121
  4.6171   4.6809
 --------------------------------------------------------------
 
          Ground-State Mulliken Net Atomic Charges

     Atom                 Charge (a.u.)
  ----------------------------------------
      1 C                    -0.213947
      2 C                    -0.482543
      3 C                    -0.233869
      4 C                    -0.495263
      5 C                    -0.288533
      6 C                    -0.505627
      7 H                     0.201062
      8 H                     0.184582
      9 H                     0.277519
     10 H                     0.191196
     11 H                     0.127025
     12 H                     0.232731
     13 H                     0.168136
     14 H                     0.279180
     15 H                     0.124874
     16 H                     0.221645
     17 H                     0.279477
     18 N                    -0.374056
     19 H                     0.466049
     20 C                     0.295353
     21 H                     0.187487
     22 O                    -0.642479
  ----------------------------------------
  Sum of atomic charges =     0.000000

 -----------------------------------------------------------------
                    Cartesian Multipole Moments
 -----------------------------------------------------------------
    Charge (ESU x 10^10)
                -0.0000
    Dipole Moment (Debye)
         X       2.0084      Y       1.2373      Z      -9.1334
       Tot       9.4331
    Quadrupole Moments (Debye-Ang)
        XX     -50.5017     XY       3.9038     YY     -54.3587
        XZ     -12.4302     YZ      -8.1584     ZZ     -55.9636
    Octopole Moments (Debye-Ang^2)
       XXX    -389.7415    XXY     -80.2567    XYY    -129.4803
       YYY    -263.1862    XXZ     -30.8243    XYZ     -26.5826
       YYZ      -7.5907    XZZ    -122.4541    YZZ     -81.2784
       ZZZ      17.7449
    Hexadecapole Moments (Debye-Ang^3)
      XXXX   -2958.5540   XXXY    -842.7930   XXYY    -740.7553
      XYYY    -855.4018   YYYY   -1509.7845   XXXZ       6.3582
      XXYZ     -55.8697   XYYZ      -9.5997   YYYZ      41.1263
      XXZZ    -507.4708   XYZZ    -265.3870   YYZZ    -283.7363
      XZZZ     154.2434   YZZZ      90.7475   ZZZZ    -252.5017
 -----------------------------------------------------------------
 Calculating analytic gradient of the SCF energy
 Gradient of SCF Energy
            1           2           3           4           5           6
    1   0.0000583  -0.0000813   0.0001033  -0.0000621   0.0000389  -0.0000716
    2   0.0000295  -0.0000648   0.0000651  -0.0000383   0.0000153  -0.0000389
    3   0.0000171  -0.0001338   0.0000488   0.0000285   0.0002835   0.0000141
            7           8           9          10          11          12
    1   0.0000287  -0.0001366   0.0001294  -0.0000556  -0.0001261   0.0000206
    2  -0.0000447  -0.0000713   0.0000903   0.0000357  -0.0000728   0.0000155
    3  -0.0000659  -0.0001160   0.0000134  -0.0000911   0.0002548   0.0002545
           13          14          15          16          17          18
    1  -0.0000178   0.0001303  -0.0001336  -0.0000006   0.0001585   0.0001941
    2  -0.0000135   0.0000705  -0.0000938  -0.0000141   0.0000695   0.0000422
    3   0.0003356   0.0002570   0.0002390   0.0002189   0.0000361  -0.0002684
           19          20          21          22
    1   0.0001219  -0.0001728   0.0000807  -0.0002066
    2   0.0000527   0.0003444  -0.0000913  -0.0002871
    3  -0.0002802  -0.0003920  -0.0004467  -0.0002071
 Max gradient component =       4.467E-04
 RMS gradient           =       1.574E-04
 Gradient time:  CPU 121.35 s  wall 7.67 s
 Geometry Optimization Parameters
   NAtoms,    NIC,     NZ,  NCons,   NDum,   NFix, NCnnct, MaxDiis
       22     172       0       0       0       0       0       0

 Cartesian Hessian Update
 Hessian updated using BFGS update


** GEOMETRY OPTIMIZATION IN DELOCALIZED INTERNAL COORDINATES **
   Searching for a Minimum

   Optimization Cycle:   4

                       Coordinates (Angstroms)
     ATOM                X               Y               Z
      1  C         1.9834158594    2.8323643382   -0.7124767193
      2  C         2.0933848227    1.3428589845   -0.3382767097
      3  C         3.3992751005    0.7376882105   -0.8828803590
      4  C         4.6114522619    1.5055851022   -0.3266797226
      5  C         4.5239193685    3.0111796622   -0.6273359394
      6  C         3.1884078807    3.6109403347   -0.1558860831
      7  H         3.4579598790   -0.3264572191   -0.6206237472
      8  H         2.0915640252    1.2543179763    0.7564357294
      9  H         1.9530813893    2.9403986843   -1.8047165318
     10  H         1.0400809632    3.2446085720   -0.3303772663
     11  H         4.6583112634    1.3521467526    0.7721683070
     12  H         5.5348847798    1.0908800816   -0.7474508768
     13  H         5.3667364172    3.5428308110   -0.1610179911
     14  H         4.6276064617    3.1687272089   -1.7080152211
     15  H         3.1461325974    3.5886349555    0.9541077899
     16  H         3.1200129945    4.6632129874   -0.4580436413
     17  H         3.4083792042    0.7894559130   -1.9797485796
     18  N         0.9177478524    0.5839152073   -0.7732836411
     19  H         0.7578569635    0.4802345761   -1.7744068197
     20  C         0.0260997572    0.0186842652    0.0542373663
     21  H        -0.7792828169   -0.5035391074   -0.4853543047
     22  O         0.0573800604    0.0443984435    1.3042290676
   Point Group: c1    Number of degrees of freedom:    60


   Energy is   -404.645494700

 Hessian updated using BFGS update

 60 Hessian modes will be used to form the next step
  Hessian Eigenvalues:
     0.005591    0.005974    0.006987    0.007176    0.012615    0.019499
     0.019815    0.020848    0.024002    0.037528    0.039182    0.039462
     0.041885    0.048318    0.048480    0.048885    0.055294    0.055738
     0.055979    0.060126    0.066966    0.081216    0.081531    0.081615
     0.082047    0.082154    0.083816    0.087505    0.119124    0.120970
     0.142973    0.151354    0.160496    0.161776    0.174990    0.210908
     0.219812    0.245921    0.271480    0.272998    0.275506    0.281990
     0.286895    0.290159    0.325662    0.329423    0.334530    0.334842
     0.336543    0.336731    0.339274    0.339450    0.339486    0.340009
     0.340228    0.344298    0.370409    0.454313    0.470825    0.806491

 Minimum search - taking simple RFO step
 Searching for Lamda that Minimizes Along All modes
 Value Taken    Lamda =  -0.00000299
 Step Taken.  Stepsize is  0.011448

                             Maximum     Tolerance    Cnvgd?
         Gradient           0.000204      0.000100      NO
         Displacement       0.007182      0.000100      NO
         Energy change     -0.000004      0.000000      NO


 New Cartesian Coordinates Obtained by Inverse Iteration

 Displacement from previous Coordinates is:  0.014351
 ----------------------------------------------------------------
             Standard Nuclear Orientation (Angstroms)
    I     Atom           X                Y                Z
 ----------------------------------------------------------------
    1      C       1.9831224884     2.8316050317    -0.7123756762
    2      C       2.0938723683     1.3421632556    -0.3381551999
    3      C       3.3996726530     0.7374718146    -0.8834121165
    4      C       4.6118785424     1.5056217947    -0.3270567099
    5      C       4.5237252551     3.0113542751    -0.6267559012
    6      C       3.1879344714     3.6107428951    -0.1556897999
    7      H       3.4589026566    -0.3266604307    -0.6216545939
    8      H       2.0923467018     1.2534623138     0.7564765526
    9      H       1.9529672827     2.9394363786    -1.8047105670
   10      H       1.0397663900     3.2434765792    -0.3302789287
   11      H       4.6593706505     1.3512010587     0.7713372587
   12      H       5.5353308698     1.0917439068    -0.7486552479
   13      H       5.3660736506     3.5428880513    -0.1593563376
   14      H       4.6280070947     3.1696519618    -1.7072972212
   15      H       3.1452499845     3.5890626555     0.9540034785
   16      H       3.1194717125     4.6628625298    -0.4584106161
   17      H       3.4084266092     0.7900905706    -1.9803182982
   18      N       0.9183405289     0.5827009051    -0.7730333653
   19      H       0.7590512415     0.4791050444    -1.7742007634
   20      C       0.0267533882     0.0176912647     0.0543778186
   21      H      -0.7811797269    -0.5010602181    -0.4847063242
   22      O       0.0553222716     0.0484551024     1.3044766652
 ----------------------------------------------------------------
 Nuclear Repulsion Energy =         466.55328108 hartrees
 There are       35 alpha and       35 beta electrons
 Applying Cartesian multipole field
    Component          Value
    ---------          -----
     (0,0,1)        2.33370E-02
 Nucleus-field energy     =    -0.9039550829 hartrees
 Requested basis set is 6-31+G(d)
 There are 71 shells and 197 basis functions
 A cutoff of  1.0D-14 yielded   2413 shell pairs
 There are     19013 function pairs
 Smallest overlap matrix eigenvalue = 2.57E-05
 Guess MOs from SCF MO coefficient file

 -----------------------------------------------------------------------
  General SCF calculation program by
  Eric Jon Sundstrom, Paul Horn, Yuezhi Mao, Dmitri Zuev, Alec White,
  David Stuck, Shaama M.S., Shane Yost, Joonho Lee, David Small,
  Daniel Levine, Susi Lehtola, Hugh Burton, Evgeny Epifanovsky,
  Bang C. Huynh
 -----------------------------------------------------------------------
 Exchange:     0.2000 Hartree-Fock + 0.0800 Slater + 0.7200 B88
 Correlation:  0.1900 VWN1RPA + 0.8100 LYP
 Using Euler-Maclaurin-Lebedev (99,590) quadrature formula
 using 16 threads for integral computing
 -------------------------------------------------------
 OpenMP Integral computing Module                
 Release: version 2.0, May 2017, Q-Chem Inc. Pleasanton 
 -------------------------------------------------------
 A restricted SCF calculation will be
 performed using DIIS
 SCF converges when DIIS error is below 1.0e-09
 ---------------------------------------
  Cycle       Energy         DIIS error
 ---------------------------------------
    1    -404.6454788888      4.04e-05  
    2    -404.6454928889      5.60e-06  
    3    -404.6454930118      4.37e-06  
    4    -404.6454930471      3.28e-06  
    5    -404.6454930889      2.72e-07  
    6    -404.6454930891      1.32e-07  
    7    -404.6454930892      2.74e-08  
    8    -404.6454930892      8.13e-09  
    9    -404.6454930892      3.64e-09  
   10    -404.6454930892      7.69e-10  Convergence criterion met
 ---------------------------------------
 SCF time:   CPU 488.15s  wall 31.00s 
 SCF   energy in the final basis set =     -404.6454930892
 Total energy in the final basis set =     -404.6454930892
 
 --------------------------------------------------------------
 
                    Orbital Energies (a.u.)
 --------------------------------------------------------------
 
 Alpha MOs
 -- Occupied --
-19.1348 -14.3668 -10.2913 -10.2222 -10.1857 -10.1816 -10.1733 -10.1709
-10.1701  -1.0332  -0.9275  -0.8204  -0.7376  -0.7363  -0.6317  -0.6060
 -0.5864  -0.5605  -0.5208  -0.4813  -0.4547  -0.4388  -0.4342  -0.4153
 -0.4127  -0.3912  -0.3739  -0.3685  -0.3391  -0.3383  -0.3173  -0.3086
 -0.3048  -0.2699  -0.2561
 -- Virtual --
 -0.0455  -0.0126  -0.0064   0.0114   0.0208   0.0330   0.0392   0.0525
  0.0670   0.0713   0.0805   0.0855   0.0986   0.0997   0.1179   0.1245
  0.1340   0.1370   0.1452   0.1460   0.1512   0.1658   0.1761   0.1795
  0.1837   0.1859   0.1912   0.1995   0.2062   0.2100   0.2229   0.2241
  0.2290   0.2374   0.2419   0.2510   0.2562   0.2651   0.2694   0.2805
  0.2892   0.2935   0.2976   0.3050   0.3072   0.3133   0.3190   0.3410
  0.3431   0.3513   0.3662   0.3893   0.3908   0.4076   0.4273   0.4297
  0.4448   0.4735   0.4843   0.6185   0.6461   0.6686   0.6710   0.6776
  0.6861   0.7007   0.7323   0.7413   0.7568   0.7600   0.7784   0.7853
  0.8058   0.8147   0.8277   0.8579   0.8754   0.9185   0.9594   0.9777
  0.9896   0.9971   1.0198   1.0293   1.0357   1.0617   1.0951   1.1189
  1.1243   1.1294   1.1395   1.1494   1.1614   1.1866   1.1933   1.2027
  1.2400   1.2447   1.2781   1.3245   1.3528   1.3800   1.3949   1.4314
  1.4786   1.4873   1.5001   1.5679   1.5734   1.6138   1.7088   1.7361
  1.7391   1.7509   1.7784   1.8076   1.8509   1.8677   1.9063   1.9091
  1.9208   1.9438   1.9930   2.0129   2.0261   2.0528   2.0592   2.0868
  2.0902   2.1346   2.2115   2.2244   2.2844   2.3124   2.3208   2.3472
  2.3979   2.4150   2.4200   2.4235   2.4548   2.5657   2.5939   2.6167
  2.6801   2.6868   2.7022   2.7686   2.7870   2.8397   2.8675   2.9822
  3.1846   4.1023   4.1948   4.2283   4.2968   4.3381   4.4143   4.6121
  4.6170   4.6808
 --------------------------------------------------------------
 
          Ground-State Mulliken Net Atomic Charges

     Atom                 Charge (a.u.)
  ----------------------------------------
      1 C                    -0.214544
      2 C                    -0.482264
      3 C                    -0.233493
      4 C                    -0.495043
      5 C                    -0.288897
      6 C                    -0.505511
      7 H                     0.201077
      8 H                     0.184569
      9 H                     0.277487
     10 H                     0.191285
     11 H                     0.127076
     12 H                     0.232795
     13 H                     0.168032
     14 H                     0.279174
     15 H                     0.124940
     16 H                     0.221697
     17 H                     0.279443
     18 N                    -0.374066
     19 H                     0.466076
     20 C                     0.295247
     21 H                     0.187529
     22 O                    -0.642607
  ----------------------------------------
  Sum of atomic charges =     0.000000

 -----------------------------------------------------------------
                    Cartesian Multipole Moments
 -----------------------------------------------------------------
    Charge (ESU x 10^10)
                -0.0000
    Dipole Moment (Debye)
         X       2.0146      Y       1.2289      Z      -9.1338
       Tot       9.4337
    Quadrupole Moments (Debye-Ang)
        XX     -50.4977     XY       3.9054     YY     -54.3569
        XZ     -12.4183     YZ      -8.1722     ZZ     -55.9659
    Octopole Moments (Debye-Ang^2)
       XXX    -389.7444    XXY     -80.2600    XYY    -129.4721
       YYY    -263.1802    XXZ     -30.8151    XYZ     -26.5716
       YYZ      -7.5806    XZZ    -122.4243    YZZ     -81.2973
       ZZZ      17.7321
    Hexadecapole Moments (Debye-Ang^3)
      XXXX   -2958.8507   XXXY    -842.7424   XXYY    -740.7633
      XYYY    -855.3085   YYYY   -1509.4465   XXXZ       6.4995
      XXYZ     -55.8897   XYYZ      -9.5360   YYYZ      41.0095
      XXZZ    -507.4431   XYZZ    -265.3256   YYZZ    -283.6764
      XZZZ     154.3316   YZZZ      90.5856   ZZZZ    -252.5364
 -----------------------------------------------------------------
 Calculating analytic gradient of the SCF energy
 Gradient of SCF Energy
            1           2           3           4           5           6
    1  -0.0000798  -0.0000295   0.0000082  -0.0000078   0.0000044  -0.0000052
    2   0.0000316   0.0000253  -0.0001053   0.0000105  -0.0000016  -0.0000201
    3   0.0000495  -0.0001032   0.0000632   0.0002295   0.0002545   0.0002064
            7           8           9          10          11          12
    1   0.0000384  -0.0001373   0.0001456   0.0000057  -0.0001183   0.0000354
    2   0.0000133  -0.0000838   0.0000776   0.0000157  -0.0000721   0.0000253
    3  -0.0000631  -0.0001545  -0.0000362  -0.0000994   0.0000987   0.0002476
           13          14          15          16          17          18
    1  -0.0000170   0.0001257  -0.0001385   0.0000192   0.0001508  -0.0000991
    2  -0.0000172   0.0000710  -0.0000676  -0.0000088   0.0001040   0.0001318
    3   0.0003787   0.0002305   0.0000813   0.0002144  -0.0000139  -0.0001806
           19          20          21          22
    1   0.0001519   0.0005374  -0.0001506  -0.0004397
    2   0.0001532  -0.0006661   0.0002340   0.0001490
    3  -0.0002408  -0.0006681  -0.0004131  -0.0000812
 Max gradient component =       6.681E-04
 RMS gradient           =       1.956E-04
 Gradient time:  CPU 121.69 s  wall 7.71 s
 Geometry Optimization Parameters
   NAtoms,    NIC,     NZ,  NCons,   NDum,   NFix, NCnnct, MaxDiis
       22     172       0       0       0       0       0       0

 Cartesian Hessian Update
 Hessian updated using BFGS update


** GEOMETRY OPTIMIZATION IN DELOCALIZED INTERNAL COORDINATES **
   Searching for a Minimum

   Optimization Cycle:   5

                       Coordinates (Angstroms)
     ATOM                X               Y               Z
      1  C         1.9831224884    2.8316050317   -0.7123756762
      2  C         2.0938723683    1.3421632556   -0.3381551999
      3  C         3.3996726530    0.7374718146   -0.8834121165
      4  C         4.6118785424    1.5056217947   -0.3270567099
      5  C         4.5237252551    3.0113542751   -0.6267559012
      6  C         3.1879344714    3.6107428951   -0.1556897999
      7  H         3.4589026566   -0.3266604307   -0.6216545939
      8  H         2.0923467018    1.2534623138    0.7564765526
      9  H         1.9529672827    2.9394363786   -1.8047105670
     10  H         1.0397663900    3.2434765792   -0.3302789287
     11  H         4.6593706505    1.3512010587    0.7713372587
     12  H         5.5353308698    1.0917439068   -0.7486552479
     13  H         5.3660736506    3.5428880513   -0.1593563376
     14  H         4.6280070947    3.1696519618   -1.7072972212
     15  H         3.1452499845    3.5890626555    0.9540034785
     16  H         3.1194717125    4.6628625298   -0.4584106161
     17  H         3.4084266092    0.7900905706   -1.9803182982
     18  N         0.9183405289    0.5827009051   -0.7730333653
     19  H         0.7590512415    0.4791050444   -1.7742007634
     20  C         0.0267533882    0.0176912647    0.0543778186
     21  H        -0.7811797269   -0.5010602181   -0.4847063242
     22  O         0.0553222716    0.0484551024    1.3044766652
   Point Group: c1    Number of degrees of freedom:    60


   Energy is   -404.645493089

 Hessian updated using BFGS update

 60 Hessian modes will be used to form the next step
  Hessian Eigenvalues:
     0.005675    0.005973    0.006933    0.007213    0.012615    0.019499
     0.019901    0.020834    0.037251    0.038705    0.039422    0.041472
     0.048001    0.048451    0.048867    0.055290    0.055731    0.055944
     0.060025    0.066904    0.080649    0.081518    0.081579    0.081907
     0.082119    0.083810    0.086292    0.087952    0.119349    0.120970
     0.143221    0.152369    0.160441    0.161025    0.175394    0.210397
     0.219912    0.224915    0.271751    0.272722    0.275486    0.280193
     0.286904    0.288725    0.325608    0.328218    0.334539    0.334858
     0.336541    0.336925    0.339157    0.339440    0.339498    0.339952
     0.340228    0.344114    0.364405    0.454374    0.471935    0.796553

 Minimum search - taking simple RFO step
 Searching for Lamda that Minimizes Along All modes
 Value Taken    Lamda =  -0.00000470
 Step Taken.  Stepsize is  0.007512

                             Maximum     Tolerance    Cnvgd?
         Gradient           0.000478      0.000100      NO
         Displacement       0.004943      0.000100      NO
         Energy change      0.000002      0.000000      NO


 New Cartesian Coordinates Obtained by Inverse Iteration

 Displacement from previous Coordinates is:  0.010585
 ----------------------------------------------------------------
             Standard Nuclear Orientation (Angstroms)
    I     Atom           X                Y                Z
 ----------------------------------------------------------------
    1      C       1.9833866115     2.8320591578    -0.7125379257
    2      C       2.0934497259     1.3426539663    -0.3382134536
    3      C       3.3992183452     0.7377413156    -0.8831055020
    4      C       4.6115403671     1.5055457287    -0.3267038356
    5      C       4.5239214327     3.0112222816    -0.6268819361
    6      C       3.1882754458     3.6109943310    -0.1558877722
    7      H       3.4578753718    -0.3263094218    -0.6208192881
    8      H       2.0918272852     1.2541131374     0.7565330210
    9      H       1.9530046473     2.9398922270    -1.8048304677
   10      H       1.0400958578     3.2439972948    -0.3302720292
   11      H       4.6587280713     1.3515575209     0.7718738925
   12      H       5.5348790008     1.0910827201    -0.7479817209
   13      H       5.3664656764     3.5427054355    -0.1598604243
   14      H       4.6280871423     3.1691117389    -1.7074459418
   15      H       3.1456769263     3.5893026321     0.9539130728
   16      H       3.1199135351     4.6631236062    -0.4586596399
   17      H       3.4081285963     0.7897766029    -1.9800022034
   18      N       0.9177363286     0.5834965020    -0.7733888964
   19      H       0.7579598640     0.4799619757    -1.7745119303
   20      C       0.0263481181     0.0181995377     0.0542058886
   21      H      -0.7801451802    -0.5028799293    -0.4848962692
   22      O       0.0580339157     0.0457183794     1.3040774678
 ----------------------------------------------------------------
 Nuclear Repulsion Energy =         466.56865064 hartrees
 There are       35 alpha and       35 beta electrons
 Applying Cartesian multipole field
    Component          Value
    ---------          -----
     (0,0,1)        2.33370E-02
 Nucleus-field energy     =    -0.9041849493 hartrees
 Requested basis set is 6-31+G(d)
 There are 71 shells and 197 basis functions
 A cutoff of  1.0D-14 yielded   2413 shell pairs
 There are     19013 function pairs
 Smallest overlap matrix eigenvalue = 2.57E-05
 Guess MOs from SCF MO coefficient file

 -----------------------------------------------------------------------
  General SCF calculation program by
  Eric Jon Sundstrom, Paul Horn, Yuezhi Mao, Dmitri Zuev, Alec White,
  David Stuck, Shaama M.S., Shane Yost, Joonho Lee, David Small,
  Daniel Levine, Susi Lehtola, Hugh Burton, Evgeny Epifanovsky,
  Bang C. Huynh
 -----------------------------------------------------------------------
 Exchange:     0.2000 Hartree-Fock + 0.0800 Slater + 0.7200 B88
 Correlation:  0.1900 VWN1RPA + 0.8100 LYP
 Using Euler-Maclaurin-Lebedev (99,590) quadrature formula
 using 16 threads for integral computing
 -------------------------------------------------------
 OpenMP Integral computing Module                
 Release: version 2.0, May 2017, Q-Chem Inc. Pleasanton 
 -------------------------------------------------------
 A restricted SCF calculation will be
 performed using DIIS
 SCF converges when DIIS error is below 1.0e-09
 ---------------------------------------
  Cycle       Energy         DIIS error
 ---------------------------------------
    1    -404.6454869647      3.11e-05  
    2    -404.6454952583      4.62e-06  
    3    -404.6454952701      5.40e-06  
    4    -404.6454953643      2.42e-06  
    5    -404.6454953871      3.14e-07  
    6    -404.6454953875      1.11e-07  
    7    -404.6454953875      3.44e-08  
    8    -404.6454953875      8.25e-09  
    9    -404.6454953875      2.71e-09  
   10    -404.6454953875      9.17e-10  Convergence criterion met
 ---------------------------------------
 SCF time:   CPU 490.20s  wall 31.00s 
 SCF   energy in the final basis set =     -404.6454953875
 Total energy in the final basis set =     -404.6454953875
 
 --------------------------------------------------------------
 
                    Orbital Energies (a.u.)
 --------------------------------------------------------------
 
 Alpha MOs
 -- Occupied --
-19.1348 -14.3667 -10.2913 -10.2222 -10.1857 -10.1816 -10.1733 -10.1708
-10.1701  -1.0333  -0.9274  -0.8204  -0.7376  -0.7363  -0.6317  -0.6059
 -0.5863  -0.5605  -0.5207  -0.4813  -0.4547  -0.4388  -0.4342  -0.4153
 -0.4128  -0.3912  -0.3739  -0.3685  -0.3391  -0.3383  -0.3173  -0.3085
 -0.3048  -0.2699  -0.2561
 -- Virtual --
 -0.0455  -0.0126  -0.0064   0.0114   0.0208   0.0330   0.0392   0.0525
  0.0670   0.0713   0.0805   0.0855   0.0986   0.0997   0.1179   0.1245
  0.1340   0.1370   0.1452   0.1459   0.1512   0.1658   0.1762   0.1795
  0.1837   0.1859   0.1912   0.1996   0.2063   0.2100   0.2229   0.2241
  0.2290   0.2375   0.2419   0.2511   0.2562   0.2651   0.2695   0.2806
  0.2892   0.2935   0.2976   0.3050   0.3073   0.3133   0.3190   0.3411
  0.3431   0.3513   0.3662   0.3893   0.3908   0.4076   0.4272   0.4297
  0.4449   0.4735   0.4843   0.6186   0.6461   0.6686   0.6711   0.6776
  0.6861   0.7007   0.7323   0.7413   0.7571   0.7599   0.7785   0.7853
  0.8058   0.8148   0.8277   0.8579   0.8754   0.9184   0.9595   0.9777
  0.9896   0.9972   1.0199   1.0294   1.0357   1.0618   1.0951   1.1189
  1.1244   1.1294   1.1395   1.1494   1.1614   1.1866   1.1934   1.2026
  1.2400   1.2449   1.2780   1.3245   1.3528   1.3802   1.3950   1.4314
  1.4784   1.4878   1.5001   1.5676   1.5735   1.6137   1.7089   1.7363
  1.7392   1.7508   1.7785   1.8076   1.8511   1.8677   1.9064   1.9091
  1.9209   1.9438   1.9931   2.0129   2.0260   2.0529   2.0592   2.0869
  2.0903   2.1347   2.2115   2.2245   2.2846   2.3124   2.3210   2.3473
  2.3980   2.4150   2.4201   2.4236   2.4549   2.5657   2.5939   2.6167
  2.6800   2.6870   2.7022   2.7686   2.7871   2.8397   2.8675   2.9825
  3.1844   4.1023   4.1949   4.2284   4.2968   4.3382   4.4142   4.6121
  4.6171   4.6809
 --------------------------------------------------------------
 
          Ground-State Mulliken Net Atomic Charges

     Atom                 Charge (a.u.)
  ----------------------------------------
      1 C                    -0.214022
      2 C                    -0.482608
      3 C                    -0.233664
      4 C                    -0.495149
      5 C                    -0.288760
      6 C                    -0.505546
      7 H                     0.201049
      8 H                     0.184654
      9 H                     0.277495
     10 H                     0.191201
     11 H                     0.127050
     12 H                     0.232765
     13 H                     0.168062
     14 H                     0.279175
     15 H                     0.124903
     16 H                     0.221692
     17 H                     0.279454
     18 N                    -0.374172
     19 H                     0.466033
     20 C                     0.295314
     21 H                     0.187526
     22 O                    -0.642452
  ----------------------------------------
  Sum of atomic charges =     0.000000

 -----------------------------------------------------------------
                    Cartesian Multipole Moments
 -----------------------------------------------------------------
    Charge (ESU x 10^10)
                 0.0000
    Dipole Moment (Debye)
         X       2.0060      Y       1.2338      Z      -9.1317
       Tot       9.4305
    Quadrupole Moments (Debye-Ang)
        XX     -50.5038     XY       3.9040     YY     -54.3610
        XZ     -12.4269     YZ      -8.1606     ZZ     -55.9614
    Octopole Moments (Debye-Ang^2)
       XXX    -389.7853    XXY     -80.2640    XYY    -129.4901
       YYY    -263.1985    XXZ     -30.8042    XYZ     -26.5744
       YYZ      -7.5794    XZZ    -122.4543    YZZ     -81.2796
       ZZZ      17.7510
    Hexadecapole Moments (Debye-Ang^3)
      XXXX   -2958.7530   XXXY    -842.8412   XXYY    -740.7920
[...]

 Mode:                40                     41                     42
 Frequency:      1415.99                1499.23                1504.88
 Force Cnst:      1.6975                 1.4445                 1.4492
 Red. Mass:       1.4369                 1.0908                 1.0861
 IR Active:          YES                    YES                    YES
 IR Intens:        2.340                  0.513                 10.475
 Raman Active:       YES                    YES                    YES
               X      Y      Z        X      Y      Z        X      Y      Z
 C          0.053  0.096  0.017   -0.015  0.002 -0.015    0.008 -0.018  0.008
 C         -0.085 -0.063 -0.009   -0.009  0.013  0.001    0.008  0.004  0.004
 C          0.110  0.014  0.008    0.004  0.012  0.015   -0.014  0.006  0.005
 C         -0.013  0.024  0.007    0.039 -0.015  0.032   -0.020  0.022 -0.024
 C          0.000 -0.001  0.006    0.006 -0.007 -0.002    0.042  0.032 -0.028
 C          0.018 -0.021  0.003   -0.002 -0.043 -0.041    0.011 -0.022 -0.026
 H         -0.360 -0.038 -0.070    0.016 -0.044 -0.179    0.009 -0.010 -0.065
 H          0.424  0.327  0.018    0.033 -0.053 -0.005   -0.030 -0.018  0.001
 H         -0.221 -0.331 -0.021    0.188 -0.062 -0.023   -0.102  0.110  0.019
 H         -0.168 -0.294 -0.090    0.052 -0.055  0.185   -0.029  0.033 -0.130
 H          0.041  0.018  0.002   -0.384  0.150  0.052    0.250 -0.160 -0.048
 H         -0.110 -0.153 -0.029   -0.121  0.101 -0.408    0.093 -0.075  0.298
 H         -0.024 -0.017  0.056    0.008 -0.023  0.012   -0.156 -0.144  0.477
 H         -0.066 -0.044 -0.001   -0.039  0.031 -0.000   -0.450 -0.300 -0.114
 H          0.029  0.035  0.004   -0.006  0.476 -0.007   -0.059  0.273 -0.010
 H         -0.183 -0.040 -0.017   -0.021  0.118  0.484   -0.009  0.074  0.286
 H         -0.381 -0.091 -0.005   -0.009 -0.182  0.002    0.063 -0.061  0.000
 N         -0.020 -0.011 -0.016    0.001 -0.000 -0.000    0.003  0.002 -0.000
 H          0.095  0.064 -0.045   -0.000 -0.003  0.000   -0.019 -0.012  0.005
 C          0.016  0.010  0.012   -0.000 -0.000 -0.000   -0.003 -0.002  0.001
 H          0.029  0.018  0.008   -0.001  0.001 -0.000   -0.003 -0.002 -0.002
 O         -0.003 -0.002 -0.007    0.000 -0.000  0.000    0.000  0.000 -0.001
 TransDip  -0.027 -0.024  0.033    0.009 -0.021  0.001   -0.069 -0.046  0.062

 Mode:                43                     44                     45
 Frequency:      1507.57                1510.33                1528.48
 Force Cnst:      1.4632                 1.4713                 1.5064
 Red. Mass:       1.0927                 1.0948                 1.0944
 IR Active:          YES                    YES                    YES
 IR Intens:        8.351                  8.526                  2.590
 Raman Active:       YES                    YES                    YES
               X      Y      Z        X      Y      Z        X      Y      Z
 C          0.045 -0.021  0.028   -0.016  0.017 -0.014   -0.035  0.026 -0.022
 C          0.001 -0.001 -0.000   -0.010 -0.007 -0.004   -0.012 -0.008 -0.007
 C          0.002 -0.044 -0.032    0.009 -0.026 -0.021    0.010 -0.040 -0.028
 C          0.023 -0.015  0.012   -0.033  0.020 -0.024    0.016 -0.012  0.007
 C         -0.007  0.007  0.002   -0.032 -0.021  0.015    0.033  0.023 -0.014
 C          0.003 -0.020 -0.009    0.005 -0.034 -0.026   -0.004  0.018  0.009
 H         -0.000  0.083  0.427   -0.031  0.059  0.283   -0.017  0.075  0.391
 H         -0.007  0.011  0.001    0.017  0.016 -0.006    0.024  0.019 -0.006
 H         -0.435  0.198  0.052    0.202 -0.131 -0.030    0.361 -0.200 -0.048
 H         -0.115  0.081 -0.434    0.049 -0.068  0.211    0.091 -0.081  0.368
 H         -0.195  0.112  0.029    0.331 -0.145 -0.048   -0.133  0.076  0.019
 H         -0.059  0.042 -0.217    0.088 -0.111  0.352   -0.036  0.036 -0.153
 H          0.019 -0.014 -0.019    0.074  0.071 -0.268   -0.088 -0.082  0.299
 H          0.040 -0.024  0.001    0.255  0.161  0.061   -0.291 -0.190 -0.071
 H         -0.024  0.157  0.000   -0.016  0.347 -0.006    0.020 -0.153  0.000
 H          0.006  0.029  0.153   -0.040  0.077  0.346    0.007 -0.029 -0.157
 H         -0.028  0.454  0.003   -0.050  0.303 -0.000   -0.055  0.421  0.001
 N         -0.000 -0.002  0.000    0.007  0.005 -0.001   -0.002 -0.001  0.002
 H         -0.000  0.010 -0.001   -0.021 -0.012  0.004    0.026  0.017 -0.005
 C          0.001  0.000  0.001   -0.003 -0.002  0.000    0.003  0.002 -0.005
 H          0.001  0.001  0.000   -0.005 -0.003 -0.002    0.001  0.001  0.003
 O         -0.000  0.000 -0.001    0.001  0.000  0.001   -0.000 -0.000  0.003
 TransDip  -0.048  0.079  0.001    0.037  0.026  0.082    0.020  0.010  0.046

 Mode:                46                     47                     48
 Frequency:      1572.54                1665.74                2258.03
 Force Cnst:      2.4588                15.6293                 7.2195
 Red. Mass:       1.6876                 9.5604                 2.4032
 IR Active:          YES                    YES                    YES
 IR Intens:      118.010                569.469                 41.971
 Raman Active:       YES                    YES                    YES
               X      Y      Z        X      Y      Z        X      Y      Z
 C          0.004  0.005  0.004   -0.020 -0.008 -0.016   -0.000 -0.000  0.000
 C          0.056  0.036 -0.045    0.018  0.011  0.033    0.002  0.001 -0.000
 C          0.006  0.004  0.005   -0.016 -0.014 -0.017   -0.000 -0.000  0.000
 C         -0.007 -0.003 -0.001    0.002  0.007  0.006    0.000  0.000  0.000
 C          0.000 -0.000  0.001   -0.001 -0.000 -0.002   -0.000 -0.000  0.000
 C         -0.005 -0.005 -0.001    0.008 -0.002  0.005    0.000  0.000  0.000
 H          0.007  0.005 -0.004    0.032 -0.001  0.032    0.001  0.000 -0.001
 H         -0.268 -0.175 -0.066   -0.063 -0.041  0.064    0.008  0.005 -0.000
 H         -0.019 -0.070 -0.006    0.046  0.050 -0.012   -0.001  0.000  0.001
 H          0.008  0.011 -0.002    0.011  0.020  0.042    0.001  0.001 -0.001
 H          0.043  0.005 -0.004   -0.013 -0.005  0.012   -0.000 -0.000 -0.000
 H          0.010 -0.000  0.034   -0.028 -0.026 -0.032    0.000 -0.000  0.000
 H          0.003  0.005 -0.012   -0.002 -0.004  0.012    0.000  0.000  0.000
 H          0.006  0.004  0.002    0.000 -0.000 -0.002    0.000  0.000  0.000
 H          0.019  0.036 -0.002   -0.010 -0.014  0.012   -0.000  0.000 -0.000
 H          0.003  0.005  0.031   -0.036 -0.013 -0.033    0.000  0.000  0.000
 H         -0.075  0.003  0.000    0.062  0.017 -0.016    0.000 -0.000  0.001
 N         -0.153 -0.098  0.061    0.088  0.056 -0.156    0.014  0.009 -0.002
 H          0.746  0.475 -0.133    0.265  0.167 -0.204   -0.053 -0.034  0.004
 C          0.077  0.049  0.004   -0.155 -0.096  0.701   -0.143 -0.093 -0.097
 H          0.119  0.076  0.060    0.290  0.187 -0.066    0.726  0.469  0.459
 O         -0.010 -0.007 -0.027   -0.007 -0.006 -0.379    0.005  0.004  0.017
 TransDip   0.288  0.183 -0.069   -0.356 -0.230  0.636   -0.130 -0.084 -0.139

 Mode:                49                     50                     51
 Frequency:      2886.76                2897.97                3018.88
 Force Cnst:      5.2696                 5.3095                 5.7490
 Red. Mass:       1.0733                 1.0730                 1.0707
 IR Active:          YES                    YES                    YES
 IR Intens:       43.227                241.593                 83.312
 Raman Active:       YES                    YES                    YES
               X      Y      Z        X      Y      Z        X      Y      Z
 C         -0.002  0.001  0.003   -0.001  0.001  0.002   -0.000  0.001  0.000
 C         -0.000  0.001  0.001    0.000 -0.000  0.003    0.000 -0.000  0.003
 C         -0.000  0.001 -0.001    0.001 -0.003  0.003    0.001 -0.000  0.000
 C          0.004 -0.006  0.036   -0.007  0.012 -0.066    0.004 -0.001 -0.007
 C          0.001  0.002  0.002    0.005  0.003  0.006   -0.062 -0.041 -0.011
 C          0.003 -0.004 -0.068    0.002 -0.002 -0.036   -0.000  0.006 -0.007
 H          0.003 -0.012  0.002   -0.006  0.031 -0.007   -0.002  0.007 -0.002
 H          0.002 -0.004 -0.011   -0.004  0.002 -0.037   -0.000  0.003 -0.038
 H         -0.005  0.003 -0.038   -0.001  0.001 -0.017    0.001 -0.000  0.002
 H          0.025 -0.016 -0.010    0.018 -0.010 -0.008    0.005 -0.004 -0.003
 H         -0.015  0.059 -0.462    0.028 -0.118  0.862    0.004 -0.008  0.050
 H         -0.031  0.011  0.030    0.056 -0.023 -0.052   -0.052  0.020  0.024
 H         -0.015 -0.017 -0.010   -0.065 -0.039 -0.035    0.722  0.454  0.415
 H          0.005  0.001 -0.018    0.009  0.012 -0.057    0.008  0.028 -0.277
 H         -0.031 -0.029  0.873   -0.020 -0.013  0.461   -0.003  0.001  0.050
 H         -0.003  0.064 -0.046   -0.003  0.033 -0.022    0.002 -0.076  0.023
 H          0.001  0.001  0.023   -0.002 -0.000 -0.038    0.000  0.000  0.003
 N         -0.000 -0.000  0.000   -0.000 -0.000  0.000   -0.000 -0.000  0.000
 H         -0.000  0.001  0.000    0.002  0.001  0.001    0.000  0.000  0.000
 C          0.000  0.000 -0.000    0.000  0.000 -0.001    0.000  0.000 -0.000
 H         -0.000  0.000  0.000    0.000 -0.000  0.000   -0.000 -0.000 -0.000
 O          0.000 -0.000  0.000   -0.000 -0.000  0.000   -0.000 -0.000  0.000
 TransDip   0.061 -0.115 -0.166   -0.072  0.040 -0.491   -0.234 -0.146 -0.098

 Mode:                52                     53                     54
 Frequency:      3032.95                3041.58                3047.61
 Force Cnst:      5.8679                 5.7925                 5.8118
 Red. Mass:       1.0827                 1.0627                 1.0621
 IR Active:          YES                    YES                    YES
 IR Intens:       34.985                 33.422                 22.986
 Raman Active:       YES                    YES                    YES
               X      Y      Z        X      Y      Z        X      Y      Z
 C         -0.006  0.001  0.014   -0.059  0.030 -0.018   -0.010  0.005 -0.000
 C         -0.001  0.006 -0.079   -0.001 -0.001  0.001   -0.001 -0.000 -0.005
 C          0.000 -0.004  0.014   -0.000  0.009  0.006    0.004 -0.060 -0.032
 C          0.000 -0.000 -0.002    0.001 -0.000  0.000   -0.008  0.004  0.005
 C         -0.002 -0.001 -0.001   -0.000 -0.001 -0.000   -0.000  0.000  0.000
 C         -0.000  0.000 -0.001    0.001 -0.011  0.005    0.000 -0.003  0.002
 H          0.000  0.037 -0.007    0.006 -0.117  0.033   -0.044  0.753 -0.203
 H          0.004 -0.074  0.964    0.001  0.000 -0.008    0.000 -0.004  0.066
 H         -0.005  0.012 -0.141   -0.005 -0.042  0.515   -0.002 -0.005  0.056
 H          0.073 -0.029 -0.027    0.703 -0.308 -0.303    0.123 -0.055 -0.052
 H          0.003 -0.002  0.021   -0.000  0.000 -0.004   -0.001  0.003 -0.009
 H         -0.004  0.002  0.004   -0.008  0.004  0.004    0.101 -0.049 -0.050
 H          0.026  0.017  0.015    0.005  0.004  0.003    0.004  0.001  0.003
 H         -0.000  0.000 -0.007   -0.000  0.000 -0.000    0.001  0.000 -0.006
 H          0.001  0.001  0.020    0.002 -0.002 -0.018    0.001 -0.000 -0.008
 H          0.001 -0.002  0.002   -0.012  0.140 -0.043   -0.003  0.038 -0.011
 H         -0.002  0.009 -0.169    0.000  0.008 -0.100   -0.004 -0.048  0.581
 N         -0.001 -0.001  0.001    0.000  0.000 -0.000    0.000  0.000 -0.000
 H         -0.000  0.001 -0.011   -0.000  0.002 -0.001    0.002 -0.000 -0.001
 C          0.001  0.000 -0.003    0.000  0.000  0.000    0.000  0.000  0.000
 H         -0.001 -0.000  0.000    0.000 -0.000 -0.000   -0.000  0.000 -0.000
 O          0.001  0.000  0.001   -0.000 -0.000 -0.000    0.000  0.000 -0.000
 TransDip  -0.077 -0.021 -0.172   -0.166  0.074  0.033   -0.045 -0.147  0.004

 Mode:                55                     56                     57
 Frequency:      3073.34                3083.28                3087.31
 Force Cnst:      6.0444                 6.0927                 6.1973
 Red. Mass:       1.0861                 1.0878                 1.1035
 IR Active:          YES                    YES                    YES
 IR Intens:       42.256                 35.396                 10.649
 Raman Active:       YES                    YES                    YES
               X      Y      Z        X      Y      Z        X      Y      Z
 C          0.012 -0.006 -0.003   -0.006  0.001  0.016    0.027 -0.007 -0.069
 C          0.000  0.001 -0.001    0.001 -0.000  0.001    0.001 -0.000 -0.004
 C         -0.000 -0.001  0.004   -0.001  0.013 -0.004    0.001 -0.028  0.044
 C         -0.000  0.001 -0.001   -0.064  0.028  0.032   -0.016  0.006  0.011
 C         -0.007 -0.004 -0.014   -0.007 -0.002 -0.028   -0.001 -0.000  0.002
 C          0.005 -0.077  0.026    0.000  0.003 -0.002    0.000  0.006 -0.006
 H         -0.001  0.012 -0.003    0.007 -0.157  0.039   -0.018  0.312 -0.074
 H          0.000 -0.000  0.004   -0.000  0.002 -0.018    0.003 -0.009  0.044
 H          0.001  0.000 -0.019   -0.004  0.016 -0.154    0.020 -0.067  0.676
 H         -0.145  0.062  0.059    0.078 -0.034 -0.030   -0.348  0.153  0.137
 H          0.000 -0.002  0.012   -0.009  0.007 -0.031   -0.005  0.005 -0.044
 H         -0.000 -0.001  0.000    0.765 -0.341 -0.355    0.191 -0.085 -0.088
 H          0.093  0.057  0.049    0.104  0.068  0.054    0.004  0.002  0.002
 H         -0.012 -0.019  0.125   -0.027 -0.041  0.286    0.000  0.005 -0.019
 H          0.002 -0.008 -0.041   -0.003 -0.000  0.014    0.002  0.001  0.050
 H         -0.059  0.923 -0.273    0.002 -0.036  0.011    0.004 -0.075  0.022
 H          0.001  0.002 -0.042   -0.000  0.001  0.020    0.002  0.020 -0.445
 N         -0.000 -0.000  0.000   -0.000 -0.000  0.000   -0.000  0.000  0.000
 H         -0.000 -0.000 -0.000   -0.000 -0.000 -0.000   -0.000  0.001 -0.000
 C          0.000  0.000 -0.000    0.000  0.000 -0.000    0.000 -0.000 -0.000
 H         -0.000 -0.000  0.000   -0.000 -0.000 -0.000    0.000 -0.000  0.000
 O         -0.000 -0.000  0.000   -0.000 -0.000  0.000    0.000  0.000  0.000
 TransDip   0.006 -0.208  0.003   -0.174  0.076  0.018    0.054 -0.086 -0.024

 Mode:                58                     59                     60
 Frequency:      3090.67                3095.64                3536.74
 Force Cnst:      6.1832                 6.2020                 7.9572
 Red. Mass:       1.0987                 1.0984                 1.0797
 IR Active:          YES                    YES                    YES
 IR Intens:        5.487                 19.408                 87.421
 Raman Active:       YES                    YES                    YES
               X      Y      Z        X      Y      Z        X      Y      Z
 C         -0.012  0.004  0.028    0.014 -0.003 -0.038   -0.000 -0.000  0.000
 C         -0.000 -0.001  0.013    0.000  0.001 -0.014    0.001  0.000 -0.000
 C          0.002 -0.032  0.045   -0.001  0.026 -0.044   -0.000 -0.000  0.000
 C          0.016 -0.007 -0.008    0.013 -0.005 -0.014   -0.000  0.000  0.000
 C         -0.004  0.002 -0.059   -0.005  0.002 -0.057   -0.000 -0.000  0.000
 C         -0.001  0.008 -0.004   -0.001  0.008 -0.008    0.000 -0.000  0.000
 H         -0.021  0.366 -0.088    0.017 -0.287  0.070   -0.000  0.001 -0.000
 H          0.002  0.012 -0.155   -0.002 -0.014  0.160    0.004  0.002  0.011
 H         -0.008  0.030 -0.274    0.013 -0.039  0.380   -0.000 -0.001 -0.000
 H          0.158 -0.070 -0.062   -0.174  0.077  0.070    0.001 -0.001 -0.000
 H         -0.001 -0.008  0.014    0.007 -0.014  0.085    0.000  0.000 -0.001
 H         -0.190  0.087  0.088   -0.169  0.077  0.079    0.000 -0.000 -0.000
 H          0.113  0.071  0.055    0.116  0.073  0.059    0.000  0.000  0.000
 H         -0.060 -0.092  0.644   -0.060 -0.091  0.619    0.000  0.000 -0.000
 H         -0.006 -0.000  0.020   -0.004  0.002  0.072    0.000  0.000 -0.001
 H          0.008 -0.097  0.028    0.008 -0.101  0.030    0.000  0.000 -0.000
 H          0.007  0.019 -0.452   -0.004 -0.018  0.458   -0.001  0.000 -0.001
 N          0.000  0.000 -0.000   -0.000 -0.000  0.000   -0.011 -0.007 -0.073
 H         -0.002 -0.002  0.001    0.003  0.002 -0.001    0.156  0.101  0.980
 C         -0.000 -0.000  0.001    0.000  0.000 -0.001   -0.002 -0.001  0.000
 H          0.000  0.000 -0.000   -0.000 -0.000  0.000    0.002  0.001  0.000
 O         -0.000 -0.000 -0.000    0.000  0.000  0.000   -0.000 -0.000  0.001
 TransDip  -0.022 -0.070  0.015    0.006  0.024 -0.139    0.002  0.004  0.299

 STANDARD THERMODYNAMIC QUANTITIES AT   298.18 K  AND     1.00 ATM

   This Molecule has  0 Imaginary Frequencies
   Zero point vibrational energy:      122.171 kcal/mol

   Atom    1 Element C  Has Mass   12.00000
   Atom    2 Element C  Has Mass   12.00000
   Atom    3 Element C  Has Mass   12.00000
   Atom    4 Element C  Has Mass   12.00000
   Atom    5 Element C  Has Mass   12.00000
   Atom    6 Element C  Has Mass   12.00000
   Atom    7 Element H  Has Mass    1.00783
   Atom    8 Element H  Has Mass    1.00783
   Atom    9 Element H  Has Mass    1.00783
   Atom   10 Element H  Has Mass    1.00783
   Atom   11 Element H  Has Mass    1.00783
   Atom   12 Element H  Has Mass    1.00783
   Atom   13 Element H  Has Mass    1.00783
   Atom   14 Element H  Has Mass    1.00783
   Atom   15 Element H  Has Mass    1.00783
   Atom   16 Element H  Has Mass    1.00783
   Atom   17 Element H  Has Mass    1.00783
   Atom   18 Element N  Has Mass   14.00307
   Atom   19 Element H  Has Mass    1.00783
   Atom   20 Element C  Has Mass   12.00000
   Atom   21 Element H  Has Mass    2.01410
   Atom   22 Element O  Has Mass   15.99491
   Molecular Mass:   128.106042 amu
   Principal axes and moments of inertia in amu*Bohr^2:
                             1           2           3
    Eigenvalues --      553.73820  2003.44618  2190.36288
          X               0.82339    -0.52557     0.21400
          Y               0.53814     0.84286    -0.00057
          Z              -0.18008     0.11563     0.97683
   Rotational Symmetry Number is   1
   The Molecule is an Asymmetric Top
   Translational Enthalpy:        0.889 kcal/mol
   Rotational Enthalpy:           0.889 kcal/mol
   Vibrational Enthalpy:        125.845 kcal/mol
   gas constant (RT):             0.593 kcal/mol
   Translational Entropy:        40.457  cal/mol.K
   Rotational Entropy:           29.276  cal/mol.K
   Vibrational Entropy:          21.702  cal/mol.K

   Total Enthalpy:              128.215 kcal/mol
   Total Entropy:                91.434  cal/mol.K
Archival summary:
1\1\node028\FREQ\ProcedureUnspecified\6-31+G*\11713\ymao90\SunMar704:26:272021SunMar704:26:272021\0\\#,FREQ,ProcedureUnspecified,6-31+G*,\\0,1\N\H,1,1.01907\C,1,1.34133,2,117.332\H,3,1.10117,1,112.579,2,0.344943,0\O,3,1.25057,1,126.212,2,-179.758,0\C,1,1.46562,2,118.037,3,-179.605,0\H,6,1.09831,1,104.654,2,-176.007,0\C,6,1.5388,1,111.835,2,-58.3661,0\H,8,1.09748,6,109.993,1,-53.7822,0\H,8,1.09815,6,109.997,1,63.2345,0\C,8,1.53909,6,110.139,1,-176.192,0\H,11,1.09627,8,109.626,6,-177.976,0\H,11,1.11034,8,108.78,6,65.3623,0\C,11,1.53781,8,111.901,6,-55.5632,0\H,14,1.09699,11,109.135,8,-67.7614,0\H,14,1.10021,11,110.273,8,176.171,0\C,14,1.53803,11,111.81,8,53.0877,0\H,17,1.09696,14,110.098,11,-175.219,0\H,17,1.11085,14,109.369,11,67.4987,0\C,17,1.53893,14,111.825,11,-53.0203,0\H,20,1.09801,17,109.375,14,-65.324,0\H,20,1.09802,17,110.902,14,177.386,0\\\@

 Total job time:  5115.39s(wall), 80792.85s(cpu) 
 Sun Mar  7 04:26:27 2021

        *************************************************************
        *                                                           *
        *  Thank you very much for using Q-Chem.  Have a nice day.  *
        *                                                           *
        *************************************************************


