                  Welcome to Q-Chem
     A Quantum Leap Into The Future Of Chemistry


 Q-Chem 5.2 (devel), Q-Chem, Inc., Pleasanton, CA (2019)

 Yihan Shao,  Zhengting Gan,  E. Epifanovsky,  A. T. B. Gilbert,  M. Wormit,  
 J. Kussmann,  A. W. Lange,  A. Behn,  Jia Deng,  Xintian Feng,  D. Ghosh,  
 M. Goldey,  P. R. Horn,  L. D. Jacobson,  I. Kaliman,  T. Kus,  A. Landau,  
 Jie Liu,  E. I. Proynov,  R. M. Richard,  R. P. Steele,  E. J. Sundstrom,  
 H. L. Woodcock III,  P. M. Zimmerman,  D. Zuev,  B. Alam,  B. Albrecht,  
 E. Alguire,  S. A. Baeppler,  D. Barton,  Z. Benda,  Y. A. Bernard,  
 E. J. Berquist,  K. B. Bravaya,  H. Burton,  K. Carter-Fenk,  D. Casanova,  
 Chun-Min Chang,  Yunqing Chen,  A. Chien,  K. D. Closser,  M. P. Coons,  
 S. Coriani,  S. Dasgupta,  A. L. Dempwolff,  M. Diedenhofen,  Hainam Do,  
 R. G. Edgar,  Po-Tung Fang,  S. Faraji,  S. Fatehi,  Qingguo Feng,  
 J. Fosso-Tande,  J. Gayvert,  Qinghui Ge,  A. Ghysels,  G. Gidofalvi,  
 J. Gomes,  J. Gonthier,  A. Gunina,  D. Hait,  M. W. D. Hanson-Heine,  
 P. H. P. Harbach,  A. W. Hauser,  M. F. Herbst,  J. E. Herr,  
 E. G. Hohenstein,  Z. C. Holden,  Kerwin Hui,  B. C. Huynh,  T.-C. Jagau,  
 Hyunjun Ji,  B. Kaduk,  K. Khistyaev,  Jaehoon Kim,  P. Klunzinger,  K. Koh,  
 D. Kosenkov,  L. Koulias,  T. Kowalczyk,  C. M. Krauter,  A. Kunitsa,  
 Ka Un Lao,  A. Laurent,  K. V. Lawler,  Joonho Lee,  D. Lefrancois,  
 S. Lehtola,  D. S. Levine,  Yi-Pei Li,  You-Sheng Lin,  Fenglai Liu,  
 Kuan-Yu Liu,  E. Livshits,  M. Loipersberger,  A. Luenser,  P. Manohar,  
 E. Mansoor,  S. F. Manzer,  Shan-Ping Mao,  Yuezhi Mao,  N. Mardirossian,  
 A. V. Marenich,  T. Markovich,  L. A. Martinez-Martinez,  S. A. Maurer,  
 N. J. Mayhall,  S. C. McKenzie,  J.-M. Mewes,  P. Morgante,  A. F. Morrison,  
 J. W. Mullinax,  K. Nanda,  T. S. Nguyen-Beck,  R. Olivares-Amaya,  
 J. A. Parkhill,  S. K. Paul,  F. Pavosevic,  Zheng Pei,  T. M. Perrine,  
 F. Plasser,  P. Pokhilko,  S. Prager,  A. Prociuk,  E. Ramos,  B. Rana,  
 D. R. Rehn,  F. Rob,  M. Scheurer,  M. Schneider,  N. Sergueev,  
 S. M. Sharada,  S. Sharma,  D. W. Small,  T. Stauch,  C. J. Stein,  
 T. Stein,  Yu-Chuan Su,  S. P. Veccham,  Zhen Tao,  A. J. W. Thom,  
 A. Tkatchenko,  T. Tsuchimochi,  N. M. Tubman,  L. Vogt,  M. L. Vidal,  
 O. Vydrov,  M. A. Watson,  J. Wenzel,  M. de Wergifosse,  T. A. Wesolowski,  
 A. White,  J. Witte,  A. Yamada,  Jun Yang,  K. Yao,  S. Yeganeh,  
 S. R. Yost,  Zhi-Qiang You,  A. Zech,  Igor Ying Zhang,  Xing Zhang,  
 Yan Zhao,  Ying Zhu,  B. R. Brooks,  G. K. L. Chan,  C. J. Cramer,  
 M. S. Gordon,  W. J. Hehre,  A. Klamt,  M. W. Schmidt,  C. D. Sherrill,  
 D. G. Truhlar,  A. Aspuru-Guzik,  R. Baer,  A. T. Bell,  N. A. Besley,  
 Jeng-Da Chai,  A. E. DePrince, III,  R. A. DiStasio Jr.,  A. Dreuw,  
 B. D. Dunietz,  T. R. Furlani,  Chao-Ping Hsu,  Yousung Jung,  Jing Kong,  
 D. S. Lambrecht,  WanZhen Liang,  C. Ochsenfeld,  V. A. Rassolov,  
 L. V. Slipchenko,  J. E. Subotnik,  T. Van Voorhis,  J. M. Herbert,  
 A. I. Krylov,  P. M. W. Gill,  M. Head-Gordon

 Contributors to earlier versions of Q-Chem not listed above: 
 R. D. Adamson,  B. Austin,  J. Baker,  G. J. O. Beran,  K. Brandhorst,  
 S. T. Brown,  E. F. C. Byrd,  A. K. Chakraborty,  C.-L. Cheng,  
 Siu Hung Chien,  D. M. Chipman,  D. L. Crittenden,  H. Dachsel,  
 R. J. Doerksen,  A. D. Dutoi,  L. Fusti-Molnar,  W. A. Goddard III,  
 A. Golubeva-Zadorozhnaya,  S. R. Gwaltney,  G. Hawkins,  A. Heyden,  
 S. Hirata,  G. Kedziora,  F. J. Keil,  C. Kelley,  Jihan Kim,  R. A. King,  
 R. Z. Khaliullin,  P. P. Korambath,  W. Kurlancheek,  A. M. Lee,  M. S. Lee,  
 S. V. Levchenko,  Ching Yeh Lin,  D. Liotard,  R. C. Lochan,  I. Lotan,  
 P. E. Maslen,  N. Nair,  D. P. O'Neill,  D. Neuhauser,  E. Neuscamman,  
 C. M. Oana,  R. Olson,  B. Peters,  R. Peverati,  P. A. Pieniazek,  
 Y. M. Rhee,  J. Ritchie,  M. A. Rohrdanz,  E. Rosta,  N. J. Russ,  
 H. F. Schaefer III,  N. E. Schultz,  N. Shenvi,  A. C. Simmonett,  A. Sodt,  
 D. Stuck,  K. S. Thanthiriwatte,  V. Vanovschi,  Tao Wang,  A. Warshel,  
 C. F. Williams,  Q. Wu,  X. Xu,  W. Zhang

 Please cite Q-Chem as follows:
 Y. Shao et al., Mol. Phys. 113, 184-215 (2015)
 DOI: 10.1080/00268976.2014.952696

 Q-Chem 5.2.2 for Intel X86 EM64T Linux

 Parts of Q-Chem use Armadillo 9.800.1 (Horizon Scraper).
 http://arma.sourceforge.net/

 Q-Chem begins on Sun Mar  7 02:56:15 2021  

Host: node024
0

     Scratch files written to /home/ymao90/scratch/CCX_CO_-16020210307025610//

Checking the input file for inconsistencies... 	...done.

--------------------------------------------------------------
User input:
--------------------------------------------------------------
$molecule
0 1
C      1.9839655798    2.8343873569   -0.6530035790
C      2.0889665948    1.3399289492   -0.2973932582
C      3.4017166944    0.7321441035   -0.8222227424
C      4.6254659785    1.5200300416   -0.3255741318
C      4.5210827926    3.0122209378   -0.6783481608
C      3.2094896156    3.6188525050   -0.1554554411
H      3.4653882129   -0.3186255299   -0.5134835234
H      2.0538505535    1.2303619181    0.7916336585
H      1.9041773336    2.9373830819   -1.7471760654
H      1.0604862058    3.2447823031   -0.2264495779
H      4.7056113531    1.4098609561    0.7662015896
H      5.5416784391    1.0893334561   -0.7496610014
H      5.3807748665    3.5587419877   -0.2692766409
H      4.5659637339    3.1311627355   -1.7719372538
H      3.2192612515    3.6121018079    0.9447339030
H      3.1260878858    4.6703627905   -0.4590864625
H      3.3863457527    0.7409636912   -1.9242196110
N      0.9315723625    0.5939302253   -0.7942938700
H      0.8024957372    0.5217251348   -1.7968919912
C      0.0000000000    0.0000000000    0.0000000000
H     -0.7899738588   -0.5065817117   -0.5873052394
O     -0.0000000000    0.0000000000    1.2238135054
$end

$rem
JOBTYPE  OPT
METHOD  B3LYP
BASIS  6-31+G(D)
SYMMETRY  FALSE
SYM_IGNORE  TRUE
MEM_TOTAL  8000
MEM_STATIC  2000
MAX_SUB_FILE_NUM  16000
BASIS_LIN_DEP_THRESH  6
THRESH  14
SCF_CONVERGENCE  9
GEN_SCFMAN  TRUE
SCF_GUESS  SAD
FD_MAT_VEC_PROD  FALSE
XC_GRID  000099000590
NL_GRID  1
MAX_SCF_CYCLES  200
GEOM_OPT_TOL_GRADIENT  100
GEOM_OPT_TOL_DISPLACEMENT  100
GEOM_OPT_TOL_ENERGY  10
$end

$multipole_field
Z   0.031505
$end


--------------------------------------------------------------
 ----------------------------------------------------------------
             Standard Nuclear Orientation (Angstroms)
    I     Atom           X                Y                Z
 ----------------------------------------------------------------
    1      C       1.9839655798     2.8343873569    -0.6530035790
    2      C       2.0889665948     1.3399289492    -0.2973932582
    3      C       3.4017166944     0.7321441035    -0.8222227424
    4      C       4.6254659785     1.5200300416    -0.3255741318
    5      C       4.5210827926     3.0122209378    -0.6783481608
    6      C       3.2094896156     3.6188525050    -0.1554554411
    7      H       3.4653882129    -0.3186255299    -0.5134835234
    8      H       2.0538505535     1.2303619181     0.7916336585
    9      H       1.9041773336     2.9373830819    -1.7471760654
   10      H       1.0604862058     3.2447823031    -0.2264495779
   11      H       4.7056113531     1.4098609561     0.7662015896
   12      H       5.5416784391     1.0893334561    -0.7496610014
   13      H       5.3807748665     3.5587419877    -0.2692766409
   14      H       4.5659637339     3.1311627355    -1.7719372538
   15      H       3.2192612515     3.6121018079     0.9447339030
   16      H       3.1260878858     4.6703627905    -0.4590864625
   17      H       3.3863457527     0.7409636912    -1.9242196110
   18      N       0.9315723625     0.5939302253    -0.7942938700
   19      H       0.8024957372     0.5217251348    -1.7968919912
   20      C       0.0000000000     0.0000000000     0.0000000000
   21      H      -0.7899738588    -0.5065817117    -0.5873052394
   22      O       0.0000000000     0.0000000000     1.2238135054
 ----------------------------------------------------------------
 Nuclear Repulsion Energy =         466.63298041 hartrees
 There are       35 alpha and       35 beta electrons
 Requested basis set is 6-31+G(d)
 There are 71 shells and 197 basis functions

 Total QAlloc Memory Limit   8000 MB
 Mega-Array Size      1956 MB
 MEM_STATIC part      2000 MB
 Applying Cartesian multipole field
    Component          Value
    ---------          -----
     (0,0,1)        3.15050E-02
 Nucleus-field energy     =    -1.2445636732 hartrees
 A cutoff of  1.0D-14 yielded   2413 shell pairs
 There are     18998 function pairs
 Smallest overlap matrix eigenvalue = 2.48E-05
 Guess from superposition of atomic densities
 Warning:  Energy on first SCF cycle will be non-variational
 SAD guess density has 70.000000 electrons

 -----------------------------------------------------------------------
  General SCF calculation program by
  Eric Jon Sundstrom, Paul Horn, Yuezhi Mao, Dmitri Zuev, Alec White,
  David Stuck, Shaama M.S., Shane Yost, Joonho Lee, David Small,
  Daniel Levine, Susi Lehtola, Hugh Burton, Evgeny Epifanovsky,
  Bang C. Huynh
 -----------------------------------------------------------------------
 Exchange:     0.2000 Hartree-Fock + 0.0800 Slater + 0.7200 B88
 Correlation:  0.1900 VWN1RPA + 0.8100 LYP
 Using Euler-Maclaurin-Lebedev (99,590) quadrature formula
 using 16 threads for integral computing
 -------------------------------------------------------
 OpenMP Integral computing Module                
 Release: version 2.0, May 2017, Q-Chem Inc. Pleasanton 
 -------------------------------------------------------
 A restricted SCF calculation will be
 performed using DIIS
 SCF converges when DIIS error is below 1.0e-09
 ---------------------------------------
  Cycle       Energy         DIIS error
 ---------------------------------------
    1    -406.2319506845      5.08e-02  
    2    -404.4150437839      7.38e-03  
    3    -403.8158043484      1.42e-02  
    4    -404.6434004594      2.68e-03  
    5    -404.6714386822      8.52e-04  
    6    -404.6742806885      3.14e-04  
    7    -404.6747048461      8.82e-05  
    8    -404.6747365035      1.87e-05  
    9    -404.6747380129      5.77e-06  
   10    -404.6747381480      1.40e-06  
   11    -404.6747381570      3.52e-07  
   12    -404.6747381575      1.03e-07  
   13    -404.6747381576      2.41e-08  
   14    -404.6747381576      3.92e-09  
   15    -404.6747381576      9.65e-10  Convergence criterion met
 ---------------------------------------
 SCF time:   CPU 703.54s  wall 44.00s 
 SCF   energy in the final basis set =     -404.6747381576
 Total energy in the final basis set =     -404.6747381576
 
 --------------------------------------------------------------
 
                    Orbital Energies (a.u.)
 --------------------------------------------------------------
 
 Alpha MOs
 -- Occupied --
-19.1420 -14.3569 -10.2898 -10.2183 -10.1823 -10.1764 -10.1674 -10.1624
-10.1623  -1.0500  -0.9195  -0.8140  -0.7319  -0.7309  -0.6234  -0.6020
 -0.5796  -0.5563  -0.5148  -0.4794  -0.4554  -0.4344  -0.4309  -0.4163
 -0.4142  -0.3864  -0.3706  -0.3677  -0.3332  -0.3316  -0.3120  -0.3015
 -0.3004  -0.2753  -0.2509
 -- Virtual --
 -0.0727  -0.0378  -0.0265   0.0019   0.0144   0.0245   0.0299   0.0473
  0.0678   0.0722   0.0809   0.0844   0.1050   0.1106   0.1195   0.1350
  0.1415   0.1465   0.1531   0.1572   0.1577   0.1739   0.1875   0.1893
  0.1959   0.2006   0.2047   0.2052   0.2093   0.2234   0.2237   0.2297
  0.2393   0.2461   0.2517   0.2547   0.2593   0.2643   0.2668   0.2857
  0.3024   0.3042   0.3088   0.3123   0.3201   0.3227   0.3307   0.3481
  0.3498   0.3653   0.3776   0.3964   0.4058   0.4183   0.4365   0.4379
  0.4591   0.4790   0.4995   0.6258   0.6530   0.6733   0.6759   0.6810
  0.6897   0.7038   0.7365   0.7515   0.7585   0.7669   0.7863   0.7902
  0.8109   0.8210   0.8330   0.8604   0.8813   0.9235   0.9642   0.9796
  0.9956   1.0050   1.0250   1.0303   1.0473   1.0758   1.1039   1.1299
  1.1386   1.1452   1.1459   1.1555   1.1655   1.1898   1.1996   1.2079
  1.2369   1.2420   1.2748   1.3144   1.3514   1.3774   1.4035   1.4294
  1.4913   1.4966   1.5012   1.5742   1.5828   1.6151   1.7042   1.7409
  1.7444   1.7555   1.7794   1.8059   1.8569   1.8736   1.9113   1.9177
  1.9218   1.9434   1.9929   2.0223   2.0290   2.0565   2.0661   2.0973
  2.1033   2.1385   2.2132   2.2323   2.2852   2.3216   2.3240   2.3604
  2.4117   2.4220   2.4306   2.4316   2.4581   2.5700   2.5985   2.6278
  2.6832   2.6946   2.7147   2.7718   2.7871   2.8453   2.8763   3.0042
  3.1862   4.1057   4.1942   4.2335   4.3050   4.3451   4.4216   4.6125
  4.6195   4.6849
 --------------------------------------------------------------
 
          Ground-State Mulliken Net Atomic Charges

     Atom                 Charge (a.u.)
  ----------------------------------------
      1 C                    -0.220802
      2 C                    -0.378920
      3 C                    -0.237842
      4 C                    -0.542143
      5 C                    -0.248945
      6 C                    -0.556093
      7 H                     0.192379
      8 H                     0.158959
      9 H                     0.301869
     10 H                     0.178933
     11 H                     0.102749
     12 H                     0.246425
     13 H                     0.165269
     14 H                     0.308581
     15 H                     0.100314
     16 H                     0.231540
     17 H                     0.304002
     18 N                    -0.413293
     19 H                     0.489028
     20 C                     0.271924
     21 H                     0.204880
     22 O                    -0.658813
  ----------------------------------------
  Sum of atomic charges =     0.000000

 -----------------------------------------------------------------
                    Cartesian Multipole Moments
 -----------------------------------------------------------------
    Charge (ESU x 10^10)
                 0.0000
    Dipole Moment (Debye)
         X       2.0778      Y       1.2998      Z     -10.5417
       Tot      10.8228
    Quadrupole Moments (Debye-Ang)
        XX     -50.6702     XY       3.8407     YY     -54.5829
        XZ     -16.2265     YZ     -10.6753     ZZ     -54.7001
    Octopole Moments (Debye-Ang^2)
       XXX    -389.9669    XXY     -80.5080    XYY    -129.8028
       YYY    -263.6979    XXZ     -46.6226    XYZ     -35.6710
       YYZ     -15.5901    XZZ    -119.5582    YZZ     -79.2924
       ZZZ      13.1647
    Hexadecapole Moments (Debye-Ang^3)
      XXXX   -2970.7587   XXXY    -847.8578   XXYY    -745.1636
      XYYY    -860.7176   YYYY   -1519.3718   XXXZ     -62.8248
      XXYZ     -90.7827   XYYZ     -37.0171   YYYZ      12.9271
      XXZZ    -498.9914   XYZZ    -261.9861   YYZZ    -279.0415
      XZZZ     136.6702   YZZZ      79.3706   ZZZZ    -234.5913
 -----------------------------------------------------------------
 Calculating analytic gradient of the SCF energy
 Gradient of SCF Energy
            1           2           3           4           5           6
    1   0.0003656  -0.0016750   0.0002903   0.0003869   0.0003639   0.0000487
    2   0.0002419  -0.0007921   0.0001029  -0.0007439   0.0004319  -0.0001799
    3   0.0036267   0.0034163   0.0036552   0.0082614   0.0017462   0.0086012
            7           8           9          10          11          12
    1  -0.0000854  -0.0001630   0.0000157   0.0016766   0.0000334   0.0013251
    2   0.0010744   0.0001989  -0.0012409  -0.0008094   0.0005399  -0.0005477
    3   0.0013398  -0.0039864  -0.0024850   0.0007615  -0.0094042   0.0014003
           13          14          15          16          17          18
    1  -0.0016435  -0.0005450  -0.0001274   0.0000924  -0.0014467   0.0124801
    2  -0.0011855  -0.0001305   0.0009716   0.0007281   0.0010326   0.0073432
    3   0.0009038  -0.0022897  -0.0098242   0.0016024  -0.0023050  -0.0172691
           19          20          21          22
    1   0.0010875  -0.0106774  -0.0028537   0.0010510
    2   0.0008975  -0.0068193  -0.0018006   0.0006868
    3   0.0065145   0.0543941  -0.0016155  -0.0470443
 Max gradient component =       5.439E-02
 RMS gradient           =       9.794E-03
 Gradient time:  CPU 118.67 s  wall 7.50 s
 Geometry Optimization Parameters
   NAtoms,    NIC,     NZ,  NCons,   NDum,   NFix, NCnnct, MaxDiis
       22     172       0       0       0       0       0       0


** GEOMETRY OPTIMIZATION IN DELOCALIZED INTERNAL COORDINATES **
   Searching for a Minimum

   Optimization Cycle:   1

                       Coordinates (Angstroms)
     ATOM                X               Y               Z
      1  C         1.9839655798    2.8343873569   -0.6530035790
      2  C         2.0889665948    1.3399289492   -0.2973932582
      3  C         3.4017166944    0.7321441035   -0.8222227424
      4  C         4.6254659785    1.5200300416   -0.3255741318
      5  C         4.5210827926    3.0122209378   -0.6783481608
      6  C         3.2094896156    3.6188525050   -0.1554554411
      7  H         3.4653882129   -0.3186255299   -0.5134835234
      8  H         2.0538505535    1.2303619181    0.7916336585
      9  H         1.9041773336    2.9373830819   -1.7471760654
     10  H         1.0604862058    3.2447823031   -0.2264495779
     11  H         4.7056113531    1.4098609561    0.7662015896
     12  H         5.5416784391    1.0893334561   -0.7496610014
     13  H         5.3807748665    3.5587419877   -0.2692766409
     14  H         4.5659637339    3.1311627355   -1.7719372538
     15  H         3.2192612515    3.6121018079    0.9447339030
     16  H         3.1260878858    4.6703627905   -0.4590864625
     17  H         3.3863457527    0.7409636912   -1.9242196110
     18  N         0.9315723625    0.5939302253   -0.7942938700
     19  H         0.8024957372    0.5217251348   -1.7968919912
     20  C         0.0000000000    0.0000000000    0.0000000000
     21  H        -0.7899738588   -0.5065817117   -0.5873052394
     22  O         0.0000000000    0.0000000000    1.2238135054
   Point Group: c1    Number of degrees of freedom:    60


   Energy is   -404.674738158


 Attempting to generate delocalized internal coordinates
 Initial Hessian constructed with Jon Baker's OPTIMIZE code

 60 Hessian modes will be used to form the next step
  Hessian Eigenvalues:
     0.005967    0.006024    0.006964    0.007193    0.012605    0.019501
     0.019786    0.020845    0.020845    0.037215    0.038526    0.039417
     0.041724    0.048166    0.048450    0.048891    0.055292    0.055631
     0.055746    0.059934    0.066958    0.081508    0.081536    0.081616
     0.082032    0.082133    0.084029    0.087513    0.120967    0.121178
     0.142989    0.159989    0.160000    0.160554    0.174868    0.210947
     0.220000    0.220003    0.272263    0.272658    0.275535    0.286789
     0.287121    0.287175    0.329119    0.334466    0.334727    0.335769
     0.336541    0.336553    0.339301    0.339441    0.339454    0.340119
     0.340274    0.342312    0.364811    0.454000    0.528079    0.937134

 Minimum search - taking simple RFO step
 Searching for Lamda that Minimizes Along All modes
 Value Taken    Lamda =  -0.00471796
 Step Taken.  Stepsize is  0.251736

                             Maximum     Tolerance    Cnvgd?
         Gradient           0.025769      0.000100      NO
         Displacement       0.090615      0.000100      NO
         Energy change     *********      0.000000      NO


 New Cartesian Coordinates Obtained by Inverse Iteration

 Displacement from previous Coordinates is:  0.491888
 ----------------------------------------------------------------
             Standard Nuclear Orientation (Angstroms)
    I     Atom           X                Y                Z
 ----------------------------------------------------------------
    1      C       1.9826512445     2.8344236400    -0.7000056090
    2      C       2.0911105000     1.3409803449    -0.3352125797
    3      C       3.4026050213     0.7346446291    -0.8706567649
    4      C       4.6142743103     1.5099926887    -0.3257709271
    5      C       4.5249022832     3.0128111720    -0.6404716745
    6      C       3.1934016220     3.6109914090    -0.1547535507
    7      H       3.4612444713    -0.3260214639    -0.5928377070
    8      H       2.0742527046     1.2430603971     0.7612779473
    9      H       1.9355783942     2.9504236752    -1.7910999204
   10      H       1.0432951132     3.2441782649    -0.3030137218
   11      H       4.6660196056     1.3687763494     0.7792040354
   12      H       5.5354006182     1.0907161188    -0.7471388307
   13      H       5.3747125996     3.5511866877    -0.1945756808
   14      H       4.6109108491     3.1587687825    -1.7242560091
   15      H       3.1642196988     3.5870945566     0.9604437245
   16      H       3.1195704319     4.6633309824    -0.4561556668
   17      H       3.4130623529     0.7669275367    -1.9686113143
   18      N       0.9192269868     0.5853365923    -0.7816820346
   19      H       0.7598361918     0.4858483913    -1.7857384515
   20      C       0.0236008959     0.0177008544     0.0453319350
   21      H      -0.7730125257    -0.4977501172    -0.5145450549
   22      O       0.0475437155     0.0396452487     1.2948719619
 ----------------------------------------------------------------
 Nuclear Repulsion Energy =         466.26893312 hartrees
 There are       35 alpha and       35 beta electrons
 Applying Cartesian multipole field
    Component          Value
    ---------          -----
     (0,0,1)        3.15050E-02
 Nucleus-field energy     =    -1.2251924481 hartrees
 Requested basis set is 6-31+G(d)
 There are 71 shells and 197 basis functions
 A cutoff of  1.0D-14 yielded   2413 shell pairs
 There are     19013 function pairs
 Smallest overlap matrix eigenvalue = 2.60E-05
 Guess MOs from SCF MO coefficient file

 -----------------------------------------------------------------------
  General SCF calculation program by
  Eric Jon Sundstrom, Paul Horn, Yuezhi Mao, Dmitri Zuev, Alec White,
  David Stuck, Shaama M.S., Shane Yost, Joonho Lee, David Small,
  Daniel Levine, Susi Lehtola, Hugh Burton, Evgeny Epifanovsky,
  Bang C. Huynh
 -----------------------------------------------------------------------
 Exchange:     0.2000 Hartree-Fock + 0.0800 Slater + 0.7200 B88
 Correlation:  0.1900 VWN1RPA + 0.8100 LYP
 Using Euler-Maclaurin-Lebedev (99,590) quadrature formula
 using 16 threads for integral computing
 -------------------------------------------------------
 OpenMP Integral computing Module                
 Release: version 2.0, May 2017, Q-Chem Inc. Pleasanton 
 -------------------------------------------------------
 A restricted SCF calculation will be
 performed using DIIS
 SCF converges when DIIS error is below 1.0e-09
 ---------------------------------------
  Cycle       Energy         DIIS error
 ---------------------------------------
    1    -404.6735941728      6.85e-04  
    2    -404.6775201102      1.46e-04  
    3    -404.6774981636      1.71e-04  
    4    -404.6776339395      3.23e-05  
    5    -404.6776372453      1.56e-05  
    6    -404.6776382076      4.53e-06  
    7    -404.6776382774      1.51e-06  
    8    -404.6776382860      2.98e-07  
    9    -404.6776382863      9.79e-08  
   10    -404.6776382864      1.17e-08  
   11    -404.6776382864      5.19e-09  
   12    -404.6776382864      1.13e-09  
   13    -404.6776382864      2.68e-10  Convergence criterion met
 ---------------------------------------
 SCF time:   CPU 609.26s  wall 39.00s 
 SCF   energy in the final basis set =     -404.6776382864
 Total energy in the final basis set =     -404.6776382864
 
 --------------------------------------------------------------
 
                    Orbital Energies (a.u.)
 --------------------------------------------------------------
 
 Alpha MOs
 -- Occupied --
-19.1419 -14.3637 -10.2921 -10.2195 -10.1849 -10.1791 -10.1677 -10.1647
-10.1628  -1.0383  -0.9245  -0.8155  -0.7331  -0.7317  -0.6275  -0.6011
 -0.5819  -0.5566  -0.5162  -0.4802  -0.4536  -0.4351  -0.4311  -0.4149
 -0.4124  -0.3868  -0.3691  -0.3673  -0.3337  -0.3323  -0.3129  -0.3035
 -0.3010  -0.2756  -0.2546
 -- Virtual --
 -0.0710  -0.0379  -0.0254   0.0032   0.0102   0.0252   0.0295   0.0467
  0.0669   0.0700   0.0805   0.0846   0.1049   0.1090   0.1197   0.1320
  0.1408   0.1460   0.1526   0.1562   0.1575   0.1725   0.1862   0.1872
  0.1949   0.1994   0.2027   0.2044   0.2084   0.2192   0.2257   0.2298
  0.2383   0.2432   0.2511   0.2541   0.2591   0.2635   0.2688   0.2840
  0.3014   0.3016   0.3068   0.3129   0.3165   0.3213   0.3287   0.3485
  0.3501   0.3626   0.3754   0.3966   0.4060   0.4208   0.4335   0.4375
  0.4535   0.4796   0.4897   0.6253   0.6519   0.6746   0.6763   0.6821
  0.6893   0.7031   0.7352   0.7486   0.7594   0.7651   0.7789   0.7901
  0.8090   0.8204   0.8335   0.8612   0.8815   0.9236   0.9640   0.9765
  0.9937   1.0040   1.0213   1.0290   1.0423   1.0696   1.1020   1.1259
  1.1324   1.1352   1.1455   1.1531   1.1670   1.1906   1.2012   1.2110
  1.2358   1.2438   1.2733   1.3155   1.3539   1.3810   1.4012   1.4344
  1.4810   1.4913   1.5011   1.5729   1.5765   1.6161   1.7109   1.7403
  1.7430   1.7499   1.7798   1.8064   1.8507   1.8675   1.9092   1.9108
  1.9231   1.9439   1.9960   2.0164   2.0277   2.0551   2.0636   2.0873
  2.0956   2.1358   2.2151   2.2271   2.2826   2.3120   2.3216   2.3503
  2.4016   2.4160   2.4248   2.4268   2.4555   2.5679   2.5973   2.6177
  2.6822   2.6899   2.7064   2.7720   2.7870   2.8436   2.8703   2.9795
  3.1797   4.1055   4.1912   4.2287   4.3007   4.3412   4.4162   4.6137
  4.6204   4.6852
 --------------------------------------------------------------
 
          Ground-State Mulliken Net Atomic Charges

     Atom                 Charge (a.u.)
  ----------------------------------------
      1 C                    -0.208732
      2 C                    -0.436437
      3 C                    -0.232022
      4 C                    -0.539876
      5 C                    -0.237873
      6 C                    -0.554795
      7 H                     0.196949
      8 H                     0.165141
      9 H                     0.305539
     10 H                     0.183449
     11 H                     0.101290
     12 H                     0.246088
     13 H                     0.162055
     14 H                     0.308235
     15 H                     0.098567
     16 H                     0.231156
     17 H                     0.308314
     18 N                    -0.380513
     19 H                     0.490532
     20 C                     0.274721
     21 H                     0.202790
     22 O                    -0.684578
  ----------------------------------------
  Sum of atomic charges =     0.000000

 -----------------------------------------------------------------
                    Cartesian Multipole Moments
 -----------------------------------------------------------------
    Charge (ESU x 10^10)
                 0.0000
    Dipole Moment (Debye)
         X       2.1126      Y       1.2917      Z     -10.9720
       Tot      11.2480
    Quadrupole Moments (Debye-Ang)
        XX     -50.3961     XY       3.9754     YY     -54.4171
        XZ     -16.8086     YZ     -11.0450     ZZ     -55.3620
    Octopole Moments (Debye-Ang^2)
       XXX    -389.2855    XXY     -80.1371    XYY    -129.4895
       YYY    -263.4925    XXZ     -48.5240    XYZ     -36.1865
       YYZ     -16.8975    XZZ    -119.7538    YZZ     -79.6938
       ZZZ      10.1256
    Hexadecapole Moments (Debye-Ang^3)
      XXXX   -2960.5252   XXXY    -842.9343   XXYY    -741.7325
      XYYY    -856.9393   YYYY   -1514.0816   XXXZ     -69.2218
      XXYZ     -93.2241   XYYZ     -39.2686   YYYZ       9.5309
      XXZZ    -498.7260   XYZZ    -261.0341   YYZZ    -280.1891
      XZZZ     136.1553   YZZZ      78.8634   ZZZZ    -247.8101
 -----------------------------------------------------------------
 Calculating analytic gradient of the SCF energy
 Gradient of SCF Energy
            1           2           3           4           5           6
    1   0.0009765  -0.0014891   0.0013291  -0.0005584   0.0009985  -0.0005327
    2   0.0007903  -0.0006903   0.0004721  -0.0004217   0.0007356  -0.0005553
    3   0.0000644   0.0000395   0.0001149   0.0008183  -0.0000879   0.0009955
            7           8           9          10          11          12
    1  -0.0001292  -0.0011889  -0.0002263  -0.0000520  -0.0000295   0.0001198
    2   0.0000544  -0.0007084  -0.0000507  -0.0001214   0.0000339  -0.0000929
    3   0.0004042  -0.0000424  -0.0000343   0.0003490  -0.0004168   0.0003622
           13          14          15          16          17          18
    1  -0.0001961  -0.0000126  -0.0000571  -0.0000789  -0.0000882   0.0045402
    2  -0.0001250  -0.0000604   0.0000366   0.0001249  -0.0001552   0.0026006
    3   0.0002594   0.0004916  -0.0005393   0.0003147  -0.0000271  -0.0065127
           19          20          21          22
    1   0.0001145  -0.0039565   0.0004472   0.0000699
    2   0.0002069  -0.0023022   0.0001990   0.0000292
    3   0.0001185   0.0186770  -0.0027500  -0.0125987
 Max gradient component =       1.868E-02
 RMS gradient           =       3.065E-03
 Gradient time:  CPU 119.70 s  wall 7.56 s
 Geometry Optimization Parameters
   NAtoms,    NIC,     NZ,  NCons,   NDum,   NFix, NCnnct, MaxDiis
       22     172       0       0       0       0       0       0

 Cartesian Hessian Update
 Hessian updated using BFGS update


** GEOMETRY OPTIMIZATION IN DELOCALIZED INTERNAL COORDINATES **
   Searching for a Minimum

   Optimization Cycle:   2

                       Coordinates (Angstroms)
     ATOM                X               Y               Z
      1  C         1.9826512445    2.8344236400   -0.7000056090
      2  C         2.0911105000    1.3409803449   -0.3352125797
      3  C         3.4026050213    0.7346446291   -0.8706567649
      4  C         4.6142743103    1.5099926887   -0.3257709271
      5  C         4.5249022832    3.0128111720   -0.6404716745
      6  C         3.1934016220    3.6109914090   -0.1547535507
      7  H         3.4612444713   -0.3260214639   -0.5928377070
      8  H         2.0742527046    1.2430603971    0.7612779473
      9  H         1.9355783942    2.9504236752   -1.7910999204
     10  H         1.0432951132    3.2441782649   -0.3030137218
     11  H         4.6660196056    1.3687763494    0.7792040354
     12  H         5.5354006182    1.0907161188   -0.7471388307
     13  H         5.3747125996    3.5511866877   -0.1945756808
     14  H         4.6109108491    3.1587687825   -1.7242560091
     15  H         3.1642196988    3.5870945566    0.9604437245
     16  H         3.1195704319    4.6633309824   -0.4561556668
     17  H         3.4130623529    0.7669275367   -1.9686113143
     18  N         0.9192269868    0.5853365923   -0.7816820346
     19  H         0.7598361918    0.4858483913   -1.7857384515
     20  C         0.0236008959    0.0177008544    0.0453319350
     21  H        -0.7730125257   -0.4977501172   -0.5145450549
     22  O         0.0475437155    0.0396452487    1.2948719619
   Point Group: c1    Number of degrees of freedom:    60


   Energy is   -404.677638286

 Hessian updated using BFGS update

 60 Hessian modes will be used to form the next step
  Hessian Eigenvalues:
     0.005907    0.005976    0.006930    0.007197    0.012603    0.019499
     0.019841    0.020845    0.020848    0.037115    0.038580    0.039416
     0.041725    0.048203    0.048451    0.048917    0.055296    0.055728
     0.055904    0.060181    0.066959    0.081215    0.081534    0.081607
     0.082036    0.082134    0.084244    0.087502    0.120967    0.121259
     0.142944    0.159967    0.160224    0.162432    0.174871    0.210660
     0.219421    0.223155    0.272048    0.272674    0.275533    0.286866
     0.287045    0.287646    0.328203    0.334506    0.334756    0.335362
     0.336539    0.338189    0.339274    0.339442    0.339467    0.340141
     0.340724    0.345366    0.366157    0.453132    0.488606    0.801810

 Minimum search - taking simple RFO step
 Searching for Lamda that Minimizes Along All modes
 Value Taken    Lamda =  -0.00074987
 Step Taken.  Stepsize is  0.217939

                             Maximum     Tolerance    Cnvgd?
         Gradient           0.008031      0.000100      NO
         Displacement       0.087890      0.000100      NO
         Energy change     -0.002900      0.000000      NO


 New Cartesian Coordinates Obtained by Inverse Iteration

 Displacement from previous Coordinates is:  0.366041
 ----------------------------------------------------------------
             Standard Nuclear Orientation (Angstroms)
    I     Atom           X                Y                Z
 ----------------------------------------------------------------
    1      C       1.9846479952     2.8320728656    -0.7330412752
    2      C       2.0947773503     1.3441160738    -0.3531958433
    3      C       3.3991387764     0.7405825570    -0.9031229230
    4      C       4.6062379006     1.5012747750    -0.3267555999
    5      C       4.5249757509     3.0107721857    -0.6109353114
    6      C       3.1818743695     3.6081138563    -0.1567856324
    7      H       3.4547996415    -0.3273377959    -0.6543094479
    8      H       2.1044437626     1.2630025305     0.7447664509
    9      H       1.9685384123     2.9432847700    -1.8252801161
   10      H       1.0349060409     3.2438778934    -0.3644287623
   11      H       4.6392018852     1.3359829595     0.7777960452
   12      H       5.5325606372     1.0891802812    -0.7430571380
   13      H       5.3627180715     3.5384036111    -0.1290708168
   14      H       4.6457116687     3.1790457614    -1.6882458732
   15      H       3.1231145629     3.5777638026     0.9594882040
   16      H       3.1168262391     4.6615202447    -0.4554977507
   17      H       3.4172843610     0.8030374779    -1.9993968974
   18      N       0.9130510188     0.5808418941    -0.7671633773
   19      H       0.7379779648     0.4685895517    -1.7684528772
   20      C       0.0365196772     0.0226694107     0.0725809864
   21      H      -0.7758762686    -0.5006590698    -0.4529830151
   22      O       0.0809772671     0.0569311040     1.3316950770
 ----------------------------------------------------------------
 Nuclear Repulsion Energy =         466.42940085 hartrees
 There are       35 alpha and       35 beta electrons
 Applying Cartesian multipole field
    Component          Value
    ---------          -----
     (0,0,1)        3.15050E-02
 Nucleus-field energy     =    -1.2135060659 hartrees
 Requested basis set is 6-31+G(d)
 There are 71 shells and 197 basis functions
 A cutoff of  1.0D-14 yielded   2412 shell pairs
 There are     19012 function pairs
 Smallest overlap matrix eigenvalue = 2.61E-05
 Guess MOs from SCF MO coefficient file

 -----------------------------------------------------------------------
  General SCF calculation program by
  Eric Jon Sundstrom, Paul Horn, Yuezhi Mao, Dmitri Zuev, Alec White,
  David Stuck, Shaama M.S., Shane Yost, Joonho Lee, David Small,
  Daniel Levine, Susi Lehtola, Hugh Burton, Evgeny Epifanovsky,
  Bang C. Huynh
 -----------------------------------------------------------------------
 Exchange:     0.2000 Hartree-Fock + 0.0800 Slater + 0.7200 B88
 Correlation:  0.1900 VWN1RPA + 0.8100 LYP
 Using Euler-Maclaurin-Lebedev (99,590) quadrature formula
 using 16 threads for integral computing
 -------------------------------------------------------
 OpenMP Integral computing Module                
 Release: version 2.0, May 2017, Q-Chem Inc. Pleasanton 
 -------------------------------------------------------
 A restricted SCF calculation will be
 performed using DIIS
 SCF converges when DIIS error is below 1.0e-09
 ---------------------------------------
  Cycle       Energy         DIIS error
 ---------------------------------------
    1    -404.6761252760      4.62e-04  
    2    -404.6780154360      7.76e-05  
    3    -404.6780174794      9.16e-05  
    4    -404.6780472182      3.02e-05  
    5    -404.6780502578      1.09e-05  
    6    -404.6780507494      2.22e-06  
    7    -404.6780507678      9.26e-07  
    8    -404.6780507714      1.21e-07  
    9    -404.6780507715      4.19e-08  
   10    -404.6780507715      9.75e-09  
   11    -404.6780507715      2.22e-09  
   12    -404.6780507715      8.19e-10  Convergence criterion met
 ---------------------------------------
 SCF time:   CPU 576.08s  wall 36.00s 
 SCF   energy in the final basis set =     -404.6780507715
 Total energy in the final basis set =     -404.6780507715
 
 --------------------------------------------------------------
 
                    Orbital Energies (a.u.)
 --------------------------------------------------------------
 
 Alpha MOs
 -- Occupied --
-19.1410 -14.3665 -10.2931 -10.2200 -10.1856 -10.1798 -10.1673 -10.1661
-10.1624  -1.0341  -0.9265  -0.8168  -0.7343  -0.7318  -0.6290  -0.6008
 -0.5828  -0.5574  -0.5181  -0.4814  -0.4525  -0.4356  -0.4315  -0.4142
 -0.4117  -0.3876  -0.3695  -0.3663  -0.3336  -0.3322  -0.3132  -0.3044
 -0.3010  -0.2753  -0.2562
 -- Virtual --
 -0.0703  -0.0381  -0.0248   0.0034   0.0086   0.0257   0.0291   0.0457
  0.0664   0.0689   0.0802   0.0847   0.1051   0.1087   0.1200   0.1307
  0.1405   0.1458   0.1519   0.1563   0.1584   0.1716   0.1841   0.1868
  0.1938   0.1993   0.2025   0.2038   0.2085   0.2171   0.2268   0.2299
  0.2379   0.2423   0.2503   0.2538   0.2594   0.2643   0.2707   0.2821
  0.3000   0.3007   0.3064   0.3143   0.3158   0.3213   0.3278   0.3494
  0.3527   0.3613   0.3751   0.3972   0.4055   0.4211   0.4330   0.4380
  0.4517   0.4797   0.4899   0.6250   0.6515   0.6749   0.6764   0.6829
  0.6896   0.7032   0.7340   0.7464   0.7603   0.7646   0.7776   0.7907
  0.8094   0.8210   0.8332   0.8637   0.8840   0.9231   0.9613   0.9766
  0.9932   1.0036   1.0198   1.0306   1.0400   1.0662   1.1000   1.1248
  1.1294   1.1334   1.1457   1.1506   1.1702   1.1913   1.2014   1.2135
  1.2339   1.2443   1.2730   1.3162   1.3570   1.3838   1.3988   1.4397
  1.4765   1.4887   1.5024   1.5694   1.5753   1.6137   1.7088   1.7393
  1.7436   1.7490   1.7823   1.8062   1.8497   1.8653   1.9077   1.9096
  1.9252   1.9481   1.9991   2.0138   2.0308   2.0554   2.0621   2.0864
  2.0912   2.1363   2.2160   2.2253   2.2839   2.3118   2.3223   2.3489
  2.3977   2.4154   2.4226   2.4281   2.4571   2.5662   2.5978   2.6129
  2.6840   2.6887   2.7028   2.7730   2.7906   2.8438   2.8662   2.9690
  3.1810   4.1062   4.1887   4.2278   4.2996   4.3409   4.4116   4.6171
  4.6231   4.6859
 --------------------------------------------------------------
 
          Ground-State Mulliken Net Atomic Charges

     Atom                 Charge (a.u.)
  ----------------------------------------
      1 C                    -0.198614
      2 C                    -0.475121
      3 C                    -0.222362
      4 C                    -0.533647
      5 C                    -0.241354
      6 C                    -0.548934
      7 H                     0.200379
      8 H                     0.168013
      9 H                     0.307141
     10 H                     0.186880
     11 H                     0.101916
     12 H                     0.245704
     13 H                     0.158126
     14 H                     0.307552
     15 H                     0.099035
     16 H                     0.231036
     17 H                     0.310029
     18 N                    -0.366319
     19 H                     0.490642
     20 C                     0.274346
     21 H                     0.201460
     22 O                    -0.695909
  ----------------------------------------
  Sum of atomic charges =     0.000000

 -----------------------------------------------------------------
                    Cartesian Multipole Moments
 -----------------------------------------------------------------
    Charge (ESU x 10^10)
                -0.0000
    Dipole Moment (Debye)
         X       2.1038      Y       1.2914      Z     -11.1372
       Tot      11.4075
    Quadrupole Moments (Debye-Ang)
        XX     -50.1880     XY       4.0759     YY     -54.2913
        XZ     -17.0245     YZ     -11.1525     ZZ     -55.7887
    Octopole Moments (Debye-Ang^2)
       XXX    -388.9895    XXY     -80.0057    XYY    -129.3574
       YYY    -263.1894    XXZ     -48.8528    XYZ     -36.1705
       YYZ     -17.2545    XZZ    -119.8598    YZZ     -79.7392
       ZZZ       8.6505
    Hexadecapole Moments (Debye-Ang^3)
      XXXX   -2953.4118   XXXY    -841.7437   XXYY    -740.2394
      XYYY    -854.9224   YYYY   -1509.8804   XXXZ     -69.4567
      XXYZ     -93.1730   XYYZ     -39.4651   YYYZ       9.4861
      XXZZ    -498.0042   XYZZ    -259.9932   YYZZ    -280.5190
      XZZZ     135.9646   YZZZ      79.0137   ZZZZ    -255.6990
 -----------------------------------------------------------------
 Calculating analytic gradient of the SCF energy
 Gradient of SCF Energy
            1           2           3           4           5           6
    1   0.0010690  -0.0004177   0.0004243  -0.0002823   0.0002902  -0.0003034
    2  -0.0000625  -0.0002087   0.0009975  -0.0001749   0.0001523  -0.0000860
    3  -0.0002828  -0.0001350  -0.0001682  -0.0005609   0.0006641  -0.0006076
            7           8           9          10          11          12
    1  -0.0001709  -0.0001401   0.0000354  -0.0002556  -0.0002006  -0.0000128
    2  -0.0001315  -0.0001076   0.0001217  -0.0000938  -0.0000768  -0.0000896
    3   0.0000802   0.0003014   0.0001110   0.0000514   0.0009183   0.0003664
           13          14          15          16          17          18
    1  -0.0001067   0.0001529  -0.0001346  -0.0001052   0.0001610   0.0007980
    2  -0.0000449   0.0000759  -0.0002368   0.0000380  -0.0000608   0.0004826
    3   0.0002312   0.0005045   0.0008710   0.0003192   0.0001208  -0.0006635
           19          20          21          22
    1  -0.0002314  -0.0006150  -0.0000387   0.0000843
    2  -0.0001189  -0.0005991   0.0000824   0.0001415
    3  -0.0005456   0.0016318  -0.0009443  -0.0022635
 Max gradient component =       2.263E-03
 RMS gradient           =       5.206E-04
 Gradient time:  CPU 121.44 s  wall 7.68 s
 Geometry Optimization Parameters
   NAtoms,    NIC,     NZ,  NCons,   NDum,   NFix, NCnnct, MaxDiis
       22     172       0       0       0       0       0       0

 Cartesian Hessian Update
 Hessian updated using BFGS update


** GEOMETRY OPTIMIZATION IN DELOCALIZED INTERNAL COORDINATES **
   Searching for a Minimum

   Optimization Cycle:   3

                       Coordinates (Angstroms)
     ATOM                X               Y               Z
      1  C         1.9846479952    2.8320728656   -0.7330412752
      2  C         2.0947773503    1.3441160738   -0.3531958433
      3  C         3.3991387764    0.7405825570   -0.9031229230
      4  C         4.6062379006    1.5012747750   -0.3267555999
      5  C         4.5249757509    3.0107721857   -0.6109353114
      6  C         3.1818743695    3.6081138563   -0.1567856324
      7  H         3.4547996415   -0.3273377959   -0.6543094479
      8  H         2.1044437626    1.2630025305    0.7447664509
      9  H         1.9685384123    2.9432847700   -1.8252801161
     10  H         1.0349060409    3.2438778934   -0.3644287623
     11  H         4.6392018852    1.3359829595    0.7777960452
     12  H         5.5325606372    1.0891802812   -0.7430571380
     13  H         5.3627180715    3.5384036111   -0.1290708168
     14  H         4.6457116687    3.1790457614   -1.6882458732
     15  H         3.1231145629    3.5777638026    0.9594882040
     16  H         3.1168262391    4.6615202447   -0.4554977507
     17  H         3.4172843610    0.8030374779   -1.9993968974
     18  N         0.9130510188    0.5808418941   -0.7671633773
     19  H         0.7379779648    0.4685895517   -1.7684528772
     20  C         0.0365196772    0.0226694107    0.0725809864
     21  H        -0.7758762686   -0.5006590698   -0.4529830151
     22  O         0.0809772671    0.0569311040    1.3316950770
   Point Group: c1    Number of degrees of freedom:    60


   Energy is   -404.678050771

 Hessian updated using BFGS update

 60 Hessian modes will be used to form the next step
  Hessian Eigenvalues:
     0.005924    0.005980    0.007086    0.007198    0.012599    0.019500
     0.019932    0.020842    0.020907    0.037503    0.038709    0.039422
     0.041723    0.048257    0.048451    0.048968    0.055296    0.055731
     0.055906    0.060183    0.066957    0.080424    0.081534    0.081606
     0.082038    0.082134    0.084153    0.087501    0.120369    0.120968
     0.142935    0.154920    0.160529    0.161968    0.174873    0.210426
     0.217236    0.225153    0.271469    0.272631    0.275531    0.286575
     0.286922    0.288975    0.327871    0.334520    0.334810    0.335842
     0.336538    0.338577    0.339431    0.339442    0.339661    0.340167
     0.341174    0.349313    0.365374    0.454535    0.477644    0.767662

 Minimum search - taking simple RFO step
 Searching for Lamda that Minimizes Along All modes
 Value Taken    Lamda =  -0.00003414
 Step Taken.  Stepsize is  0.036240

                             Maximum     Tolerance    Cnvgd?
         Gradient           0.001278      0.000100      NO
         Displacement       0.015343      0.000100      NO
         Energy change     -0.000412      0.000000      NO


 New Cartesian Coordinates Obtained by Inverse Iteration

 Displacement from previous Coordinates is:  0.045609
 ----------------------------------------------------------------
             Standard Nuclear Orientation (Angstroms)
    I     Atom           X                Y                Z
 ----------------------------------------------------------------
    1      C       1.9836816480     2.8326001974    -0.7354509987
    2      C       2.0950370965     1.3448509715    -0.3534325131
    3      C       3.3983602974     0.7399016285    -0.9055304803
    4      C       4.6059853043     1.4998260281    -0.3275876984
    5      C       4.5245713812     3.0100746466    -0.6076953652
    6      C       3.1806981661     3.6085512561    -0.1572464910
    7      H       3.4555446697    -0.3288061585    -0.6617208065
    8      H       2.1067774439     1.2652897274     0.7439463688
    9      H       1.9726347081     2.9418096361    -1.8281130729
   10      H       1.0335541033     3.2466847253    -0.3715943655
   11      H       4.6401644471     1.3301425696     0.7753123369
   12      H       5.5324549067     1.0904421391    -0.7462261209
   13      H       5.3604309045     3.5356618557    -0.1195381128
   14      H       4.6503544859     3.1817231690    -1.6840934244
   15      H       3.1182187433     3.5810804160     0.9579841591
   16      H       3.1183389665     4.6613247404    -0.4584650925
   17      H       3.4165223330     0.8078679024    -2.0016218405
   18      N       0.9121290599     0.5811166985    -0.7634758792
   19      H       0.7394642834     0.4678489279    -1.7648480314
   20      C       0.0357944396     0.0239789623     0.0757166544
   21      H      -0.7741126225    -0.5037243014    -0.4485701147
   22      O       0.0778023191     0.0548210025     1.3368549951
 ----------------------------------------------------------------
 Nuclear Repulsion Energy =         466.29137423 hartrees
 There are       35 alpha and       35 beta electrons
 Applying Cartesian multipole field
    Component          Value
    ---------          -----
     (0,0,1)        3.15050E-02
 Nucleus-field energy     =    -1.2100298914 hartrees
 Requested basis set is 6-31+G(d)
 There are 71 shells and 197 basis functions
 A cutoff of  1.0D-14 yielded   2412 shell pairs
 There are     19012 function pairs
 Smallest overlap matrix eigenvalue = 2.62E-05
 Guess MOs from SCF MO coefficient file

 -----------------------------------------------------------------------
  General SCF calculation program by
  Eric Jon Sundstrom, Paul Horn, Yuezhi Mao, Dmitri Zuev, Alec White,
  David Stuck, Shaama M.S., Shane Yost, Joonho Lee, David Small,
  Daniel Levine, Susi Lehtola, Hugh Burton, Evgeny Epifanovsky,
  Bang C. Huynh
 -----------------------------------------------------------------------
 Exchange:     0.2000 Hartree-Fock + 0.0800 Slater + 0.7200 B88
 Correlation:  0.1900 VWN1RPA + 0.8100 LYP
 Using Euler-Maclaurin-Lebedev (99,590) quadrature formula
 using 16 threads for integral computing
 -------------------------------------------------------
 OpenMP Integral computing Module                
 Release: version 2.0, May 2017, Q-Chem Inc. Pleasanton 
 -------------------------------------------------------
 A restricted SCF calculation will be
 performed using DIIS
 SCF converges when DIIS error is below 1.0e-09
 ---------------------------------------
  Cycle       Energy         DIIS error
 ---------------------------------------
    1    -404.6780281741      6.44e-05  
    2    -404.6780640637      1.58e-05  
    3    -404.6780623867      2.68e-05  
    4    -404.6780651548      5.16e-06  
    5    -404.6780652599      1.14e-06  
    6    -404.6780652657      2.55e-07  
    7    -404.6780652660      9.88e-08  
    8    -404.6780652661      2.58e-08  
    9    -404.6780652661      8.03e-09  
   10    -404.6780652661      2.56e-09  
   11    -404.6780652661      6.13e-10  Convergence criterion met
 ---------------------------------------
 SCF time:   CPU 529.52s  wall 33.00s 
 SCF   energy in the final basis set =     -404.6780652661
 Total energy in the final basis set =     -404.6780652661
 
 --------------------------------------------------------------
 
                    Orbital Energies (a.u.)
 --------------------------------------------------------------
 
 Alpha MOs
 -- Occupied --
-19.1411 -14.3670 -10.2933 -10.2203 -10.1856 -10.1798 -10.1674 -10.1664
-10.1627  -1.0333  -0.9270  -0.8169  -0.7345  -0.7319  -0.6293  -0.6010
 -0.5833  -0.5575  -0.5184  -0.4815  -0.4524  -0.4358  -0.4316  -0.4142
 -0.4117  -0.3877  -0.3698  -0.3661  -0.3337  -0.3323  -0.3133  -0.3045
 -0.3013  -0.2752  -0.2566
 -- Virtual --
 -0.0703  -0.0382  -0.0248   0.0034   0.0084   0.0257   0.0290   0.0457
  0.0664   0.0687   0.0801   0.0847   0.1050   0.1086   0.1199   0.1305
  0.1403   0.1456   0.1517   0.1564   0.1585   0.1715   0.1837   0.1866
  0.1936   0.1991   0.2025   0.2037   0.2083   0.2169   0.2270   0.2299
  0.2377   0.2419   0.2499   0.2537   0.2593   0.2642   0.2706   0.2819
  0.2998   0.3005   0.3064   0.3144   0.3154   0.3212   0.3276   0.3489
  0.3527   0.3611   0.3752   0.3971   0.4052   0.4207   0.4331   0.4381
  0.4511   0.4797   0.4897   0.6245   0.6514   0.6747   0.6762   0.6829
  0.6894   0.7031   0.7336   0.7460   0.7603   0.7644   0.7772   0.7905
  0.8092   0.8209   0.8328   0.8635   0.8841   0.9238   0.9610   0.9771
  0.9930   1.0034   1.0195   1.0305   1.0397   1.0658   1.1001   1.1251
  1.1293   1.1334   1.1457   1.1504   1.1708   1.1912   1.2012   1.2141
  1.2330   1.2441   1.2730   1.3163   1.3569   1.3823   1.3981   1.4396
  1.4756   1.4882   1.5023   1.5694   1.5755   1.6147   1.7072   1.7380
  1.7434   1.7491   1.7824   1.8058   1.8494   1.8643   1.9075   1.9093
  1.9249   1.9483   1.9975   2.0136   2.0313   2.0548   2.0620   2.0855
  2.0908   2.1356   2.2161   2.2245   2.2827   2.3123   2.3214   2.3485
  2.3964   2.4159   2.4217   2.4276   2.4565   2.5656   2.5976   2.6126
  2.6843   2.6880   2.7021   2.7725   2.7906   2.8433   2.8653   2.9665
  3.1818   4.1061   4.1881   4.2273   4.2995   4.3405   4.4116   4.6172
  4.6227   4.6853
 --------------------------------------------------------------
 
          Ground-State Mulliken Net Atomic Charges

     Atom                 Charge (a.u.)
  ----------------------------------------
      1 C                    -0.198824
      2 C                    -0.475347
      3 C                    -0.223881
      4 C                    -0.532146
      5 C                    -0.243466
      6 C                    -0.547440
      7 H                     0.201051
      8 H                     0.167627
      9 H                     0.307151
     10 H                     0.187520
     11 H                     0.102184
     12 H                     0.245994
     13 H                     0.157414
     14 H                     0.307507
     15 H                     0.099220
     16 H                     0.231352
     17 H                     0.310000
     18 N                    -0.364835
     19 H                     0.490809
     20 C                     0.274340
     21 H                     0.201455
     22 O                    -0.697685
  ----------------------------------------
  Sum of atomic charges =     0.000000

 -----------------------------------------------------------------
                    Cartesian Multipole Moments
 -----------------------------------------------------------------
    Charge (ESU x 10^10)
                 0.0000
    Dipole Moment (Debye)
         X       2.1314      Y       1.3047      Z     -11.1577
       Tot      11.4341
    Quadrupole Moments (Debye-Ang)
        XX     -50.1344     XY       4.0918     YY     -54.2564
        XZ     -17.0236     YZ     -11.1426     ZZ     -55.8478
    Octopole Moments (Debye-Ang^2)
       XXX    -388.6529    XXY     -79.9729    XYY    -129.2696
       YYY    -263.0461    XXZ     -48.9101    XYZ     -36.1559
       YYZ     -17.3176    XZZ    -119.7237    YZZ     -79.6901
       ZZZ       8.4249
    Hexadecapole Moments (Debye-Ang^3)
      XXXX   -2952.1556   XXXY    -841.5918   XXYY    -740.1374
      XYYY    -854.6232   YYYY   -1509.5535   XXXZ     -69.3149
      XXYZ     -93.1088   XYYZ     -39.4216   YYYZ       9.5531
      XXZZ    -497.6594   XYZZ    -259.7182   YYZZ    -280.4977
      XZZZ     136.1526   YZZZ      79.1372   ZZZZ    -256.5875
 -----------------------------------------------------------------
 Calculating analytic gradient of the SCF energy
 Gradient of SCF Energy
            1           2           3           4           5           6
    1   0.0000906  -0.0000376   0.0001447  -0.0000878   0.0000531  -0.0000840
    2   0.0000351  -0.0000699   0.0001041  -0.0000223   0.0000150  -0.0000609
    3   0.0000379  -0.0001801   0.0001021  -0.0000729   0.0004640  -0.0000923
            7           8           9          10          11          12
    1   0.0000561  -0.0001870   0.0001913  -0.0000861  -0.0001921   0.0000290
    2  -0.0000778  -0.0000975   0.0001285   0.0000694  -0.0001199   0.0000167
    3  -0.0000902  -0.0001868   0.0000248  -0.0001238   0.0004408   0.0003762
           13          14          15          16          17          18
    1  -0.0000406   0.0001891  -0.0002049  -0.0000077   0.0002328   0.0001795
    2  -0.0000238   0.0001030  -0.0001423  -0.0000216   0.0001012  -0.0000014
    3   0.0004464   0.0003509   0.0004170   0.0003195   0.0000607  -0.0003843
           19          20          21          22
    1   0.0001942  -0.0002485   0.0001431  -0.0003274
    2   0.0000635   0.0006735  -0.0001790  -0.0004936
    3  -0.0004227  -0.0006500  -0.0006152  -0.0002218
 Max gradient component =       6.735E-04
 RMS gradient           =       2.417E-04
 Gradient time:  CPU 119.61 s  wall 7.56 s
 Geometry Optimization Parameters
   NAtoms,    NIC,     NZ,  NCons,   NDum,   NFix, NCnnct, MaxDiis
       22     172       0       0       0       0       0       0

 Cartesian Hessian Update
 Hessian updated using BFGS update


** GEOMETRY OPTIMIZATION IN DELOCALIZED INTERNAL COORDINATES **
   Searching for a Minimum

   Optimization Cycle:   4

                       Coordinates (Angstroms)
     ATOM                X               Y               Z
      1  C         1.9836816480    2.8326001974   -0.7354509987
      2  C         2.0950370965    1.3448509715   -0.3534325131
      3  C         3.3983602974    0.7399016285   -0.9055304803
      4  C         4.6059853043    1.4998260281   -0.3275876984
      5  C         4.5245713812    3.0100746466   -0.6076953652
      6  C         3.1806981661    3.6085512561   -0.1572464910
      7  H         3.4555446697   -0.3288061585   -0.6617208065
      8  H         2.1067774439    1.2652897274    0.7439463688
      9  H         1.9726347081    2.9418096361   -1.8281130729
     10  H         1.0335541033    3.2466847253   -0.3715943655
     11  H         4.6401644471    1.3301425696    0.7753123369
     12  H         5.5324549067    1.0904421391   -0.7462261209
     13  H         5.3604309045    3.5356618557   -0.1195381128
     14  H         4.6503544859    3.1817231690   -1.6840934244
     15  H         3.1182187433    3.5810804160    0.9579841591
     16  H         3.1183389665    4.6613247404   -0.4584650925
     17  H         3.4165223330    0.8078679024   -2.0016218405
     18  N         0.9121290599    0.5811166985   -0.7634758792
     19  H         0.7394642834    0.4678489279   -1.7648480314
     20  C         0.0357944396    0.0239789623    0.0757166544
     21  H        -0.7741126225   -0.5037243014   -0.4485701147
     22  O         0.0778023191    0.0548210025    1.3368549951
   Point Group: c1    Number of degrees of freedom:    60


   Energy is   -404.678065266

 Hessian updated using BFGS update

 60 Hessian modes will be used to form the next step
  Hessian Eigenvalues:
     0.005214    0.005975    0.007106    0.007192    0.012636    0.019501
     0.019924    0.020828    0.024389    0.037623    0.039329    0.039671
     0.041963    0.048195    0.048456    0.048923    0.055294    0.055736
     0.055905    0.060166    0.066965    0.081372    0.081533    0.081619
     0.082036    0.082146    0.083899    0.087506    0.119327    0.120973
     0.142965    0.155723    0.160479    0.161787    0.174966    0.210835
     0.219407    0.248370    0.271170    0.272854    0.275526    0.283755
     0.286909    0.290631    0.327231    0.329872    0.334531    0.334837
     0.336541    0.336549    0.338712    0.339452    0.339480    0.339916
     0.340231    0.345537    0.365878    0.454116    0.474317    0.784317

 Minimum search - taking simple RFO step
 Searching for Lamda that Minimizes Along All modes
 Value Taken    Lamda =  -0.00001024
 Step Taken.  Stepsize is  0.023220

                             Maximum     Tolerance    Cnvgd?
         Gradient           0.000380      0.000100      NO
         Displacement       0.013886      0.000100      NO
         Energy change     -0.000014      0.000000      NO


 New Cartesian Coordinates Obtained by Inverse Iteration

 Displacement from previous Coordinates is:  0.029908
 ----------------------------------------------------------------
             Standard Nuclear Orientation (Angstroms)
    I     Atom           X                Y                Z
 ----------------------------------------------------------------
    1      C       1.9832200951     2.8312504272    -0.7361921052
    2      C       2.0958440094     1.3436446460    -0.3537966310
    3      C       3.3990401771     0.7396607411    -0.9072652339
    4      C       4.6065586245     1.4995998222    -0.3282557502
    5      C       4.5241839873     3.0102898928    -0.6058547579
    6      C       3.1794953902     3.6081142417    -0.1568994611
    7      H       3.4571047107    -0.3292284044    -0.6653268732
    8      H       2.1086466485     1.2642593266     0.7434865628
    9      H       1.9735097341     2.9400172107    -1.8289962892
   10      H       1.0327094969     3.2448249911    -0.3734510289
   11      H       4.6417207387     1.3275393111     0.7736866405
   12      H       5.5331547846     1.0920235362    -0.7484530194
   13      H       5.3587738045     3.5352635334    -0.1145855193
   14      H       4.6520453250     3.1839509427    -1.6816828790
   15      H       3.1155797768     3.5817236151     0.9577121059
   16      H       3.1173654891     4.6606272183    -0.4591404372
   17      H       3.4168250955     0.8099575502    -2.0033063144
   18      N       0.9130833614     0.5787456863    -0.7626409410
   19      H       0.7404173672     0.4655895572    -1.7639076251
   20      C       0.0373328304     0.0220932157     0.0770648030
   21      H      -0.7774686155    -0.4992507893    -0.4459484193
   22      O       0.0752642536     0.0623704687     1.3383572794
 ----------------------------------------------------------------
 Nuclear Repulsion Energy =         466.29005436 hartrees
 There are       35 alpha and       35 beta electrons
 Applying Cartesian multipole field
    Component          Value
    ---------          -----
     (0,0,1)        3.15050E-02
 Nucleus-field energy     =    -1.2090972986 hartrees
 Requested basis set is 6-31+G(d)
 There are 71 shells and 197 basis functions
 A cutoff of  1.0D-14 yielded   2412 shell pairs
 There are     19012 function pairs
 Smallest overlap matrix eigenvalue = 2.62E-05
 Guess MOs from SCF MO coefficient file

 -----------------------------------------------------------------------
  General SCF calculation program by
  Eric Jon Sundstrom, Paul Horn, Yuezhi Mao, Dmitri Zuev, Alec White,
  David Stuck, Shaama M.S., Shane Yost, Joonho Lee, David Small,
  Daniel Levine, Susi Lehtola, Hugh Burton, Evgeny Epifanovsky,
  Bang C. Huynh
 -----------------------------------------------------------------------
 Exchange:     0.2000 Hartree-Fock + 0.0800 Slater + 0.7200 B88
 Correlation:  0.1900 VWN1RPA + 0.8100 LYP
 Using Euler-Maclaurin-Lebedev (99,590) quadrature formula
 using 16 threads for integral computing
 -------------------------------------------------------
 OpenMP Integral computing Module                
 Release: version 2.0, May 2017, Q-Chem Inc. Pleasanton 
 -------------------------------------------------------
 A restricted SCF calculation will be
 performed using DIIS
 SCF converges when DIIS error is below 1.0e-09
 ---------------------------------------
  Cycle       Energy         DIIS error
 ---------------------------------------
    1    -404.6780132605      7.30e-05  
    2    -404.6780593279      9.69e-06  
    3    -404.6780598471      5.06e-06  
    4    -404.6780599134      3.55e-06  
    5    -404.6780599604      7.27e-07  
    6    -404.6780599623      2.83e-07  
    7    -404.6780599626      6.69e-08  
    8    -404.6780599627      2.18e-08  
    9    -404.6780599627      6.06e-09  
   10    -404.6780599627      1.29e-09  
   11    -404.6780599627      4.75e-10  Convergence criterion met
 ---------------------------------------
 SCF time:   CPU 529.73s  wall 33.00s 
 SCF   energy in the final basis set =     -404.6780599627
 Total energy in the final basis set =     -404.6780599627
 
 --------------------------------------------------------------
 
                    Orbital Energies (a.u.)
 --------------------------------------------------------------
 
 Alpha MOs
 -- Occupied --
-19.1411 -14.3671 -10.2934 -10.2202 -10.1855 -10.1797 -10.1674 -10.1665
-10.1626  -1.0332  -0.9270  -0.8169  -0.7345  -0.7318  -0.6294  -0.6010
 -0.5833  -0.5575  -0.5185  -0.4815  -0.4523  -0.4358  -0.4317  -0.4142
 -0.4116  -0.3877  -0.3697  -0.3661  -0.3337  -0.3323  -0.3132  -0.3045
 -0.3013  -0.2753  -0.2566
 -- Virtual --
 -0.0703  -0.0382  -0.0248   0.0035   0.0083   0.0258   0.0290   0.0456
  0.0664   0.0687   0.0801   0.0847   0.1050   0.1086   0.1200   0.1304
  0.1404   0.1456   0.1517   0.1565   0.1586   0.1715   0.1836   0.1865
  0.1936   0.1991   0.2025   0.2037   0.2083   0.2169   0.2270   0.2299
  0.2376   0.2417   0.2500   0.2536   0.2594   0.2643   0.2707   0.2817
  0.2997   0.3006   0.3065   0.3144   0.3154   0.3212   0.3277   0.3491
  0.3528   0.3611   0.3751   0.3972   0.4052   0.4207   0.4331   0.4382
  0.4511   0.4796   0.4897   0.6244   0.6515   0.6747   0.6762   0.6828
  0.6895   0.7031   0.7335   0.7459   0.7598   0.7647   0.7772   0.7905
  0.8091   0.8209   0.8325   0.8635   0.8841   0.9238   0.9609   0.9774
  0.9930   1.0034   1.0195   1.0306   1.0397   1.0656   1.1000   1.1253
  1.1293   1.1336   1.1458   1.1504   1.1712   1.1912   1.2011   1.2144
  1.2330   1.2439   1.2730   1.3162   1.3569   1.3826   1.3977   1.4395
  1.4758   1.4873   1.5024   1.5701   1.5751   1.6146   1.7075   1.7381
  1.7435   1.7492   1.7823   1.8059   1.8488   1.8649   1.9074   1.9093
  1.9248   1.9482   1.9972   2.0135   2.0315   2.0549   2.0621   2.0856
  2.0907   2.1355   2.2164   2.2244   2.2829   2.3124   2.3213   2.3483
  2.3962   2.4164   2.4217   2.4275   2.4565   2.5653   2.5977   2.6124
  2.6844   2.6878   2.7020   2.7725   2.7906   2.8432   2.8650   2.9663
  3.1819   4.1061   4.1879   4.2273   4.2995   4.3406   4.4113   4.6173
  4.6227   4.6850
 --------------------------------------------------------------
 
          Ground-State Mulliken Net Atomic Charges

     Atom                 Charge (a.u.)
  ----------------------------------------
      1 C                    -0.200225
      2 C                    -0.475395
      3 C                    -0.222827
      4 C                    -0.531390
      5 C                    -0.244528
      6 C                    -0.546874
      7 H                     0.201189
      8 H                     0.167588
      9 H                     0.307130
     10 H                     0.187768
     11 H                     0.102289
     12 H                     0.246142
     13 H                     0.157026
     14 H                     0.307461
     15 H                     0.099343
     16 H                     0.231456
     17 H                     0.309973
     18 N                    -0.364602
     19 H                     0.490815
     20 C                     0.274155
     21 H                     0.201448
     22 O                    -0.697942
  ----------------------------------------
  Sum of atomic charges =     0.000000

 -----------------------------------------------------------------
                    Cartesian Multipole Moments
 -----------------------------------------------------------------
    Charge (ESU x 10^10)
                 0.0000
    Dipole Moment (Debye)
         X       2.1391      Y       1.2878      Z     -11.1595
       Tot      11.4354
    Quadrupole Moments (Debye-Ang)
        XX     -50.1302     XY       4.0920     YY     -54.2544
        XZ     -17.0038     YZ     -11.1699     ZZ     -55.8621
    Octopole Moments (Debye-Ang^2)
       XXX    -388.6960    XXY     -79.9940    XYY    -129.2681
       YYY    -263.0389    XXZ     -48.8939    XYZ     -36.1287
       YYZ     -17.3040    XZZ    -119.6725    YZZ     -79.7248
       ZZZ       8.3674
    Hexadecapole Moments (Debye-Ang^3)
      XXXX   -2952.7311   XXXY    -841.5773   XXYY    -740.1950
      XYYY    -854.4641   YYYY   -1508.9210   XXXZ     -69.0672
      XXYZ     -93.1228   XYYZ     -39.2975   YYYZ       9.3576
      XXZZ    -497.5701   XYZZ    -259.5716   YYZZ    -280.3978
      XZZZ     136.3249   YZZZ      78.8608   ZZZZ    -256.8818
 -----------------------------------------------------------------
 Calculating analytic gradient of the SCF energy
 Gradient of SCF Energy
            1           2           3           4           5           6
    1  -0.0001355  -0.0000195   0.0000072  -0.0000073  -0.0000210   0.0000027
    2   0.0000530   0.0000660  -0.0001891   0.0000296  -0.0000182  -0.0000244
    3   0.0000915  -0.0001617   0.0001129   0.0002982   0.0003521   0.0002556
            7           8           9          10          11          12
    1   0.0000754  -0.0001796   0.0002233   0.0000184  -0.0001660   0.0000481
    2   0.0000216  -0.0001115   0.0001151   0.0000400  -0.0001097   0.0000408
    3  -0.0001122  -0.0002389  -0.0000353  -0.0001667   0.0001638   0.0003613
           13          14          15          16          17          18
    1  -0.0000326   0.0001849  -0.0002026   0.0000322   0.0002268  -0.0002255
    2  -0.0000289   0.0001047  -0.0000912  -0.0000161   0.0001597   0.0001986
    3   0.0005382   0.0003329   0.0001418   0.0003101   0.0000012  -0.0002410
           19          20          21          22
    1   0.0002130   0.0009468  -0.0002661  -0.0007232
    2   0.0002393  -0.0012342   0.0004180   0.0003371
    3  -0.0003409  -0.0010830  -0.0005888   0.0000092
 Max gradient component =       1.234E-03
 RMS gradient           =       3.183E-04
 Gradient time:  CPU 121.86 s  wall 7.70 s
 Geometry Optimization Parameters
   NAtoms,    NIC,     NZ,  NCons,   NDum,   NFix, NCnnct, MaxDiis
       22     172       0       0       0       0       0       0

 Cartesian Hessian Update
 Hessian updated using BFGS update


** GEOMETRY OPTIMIZATION IN DELOCALIZED INTERNAL COORDINATES **
   Searching for a Minimum

   Optimization Cycle:   5

                       Coordinates (Angstroms)
     ATOM                X               Y               Z
      1  C         1.9832200951    2.8312504272   -0.7361921052
      2  C         2.0958440094    1.3436446460   -0.3537966310
      3  C         3.3990401771    0.7396607411   -0.9072652339
      4  C         4.6065586245    1.4995998222   -0.3282557502
      5  C         4.5241839873    3.0102898928   -0.6058547579
      6  C         3.1794953902    3.6081142417   -0.1568994611
      7  H         3.4571047107   -0.3292284044   -0.6653268732
      8  H         2.1086466485    1.2642593266    0.7434865628
      9  H         1.9735097341    2.9400172107   -1.8289962892
     10  H         1.0327094969    3.2448249911   -0.3734510289
     11  H         4.6417207387    1.3275393111    0.7736866405
     12  H         5.5331547846    1.0920235362   -0.7484530194
     13  H         5.3587738045    3.5352635334   -0.1145855193
     14  H         4.6520453250    3.1839509427   -1.6816828790
     15  H         3.1155797768    3.5817236151    0.9577121059
     16  H         3.1173654891    4.6606272183   -0.4591404372
     17  H         3.4168250955    0.8099575502   -2.0033063144
     18  N         0.9130833614    0.5787456863   -0.7626409410
     19  H         0.7404173672    0.4655895572   -1.7639076251
     20  C         0.0373328304    0.0220932157    0.0770648030
     21  H        -0.7774686155   -0.4992507893   -0.4459484193
     22  O         0.0752642536    0.0623704687    1.3383572794
   Point Group: c1    Number of degrees of freedom:    60


   Energy is   -404.678059963

 Hessian updated using BFGS update

 60 Hessian modes will be used to form the next step
  Hessian Eigenvalues:
     0.005353    0.005974    0.007068    0.007234    0.012637    0.019500
     0.019933    0.020835    0.037388    0.038881    0.039433    0.041474
     0.048119    0.048449    0.048894    0.055292    0.055731    0.055900
     0.060123    0.066912    0.080710    0.081525    0.081594    0.081947
     0.082132    0.083857    0.086502    0.087883    0.119508    0.120973
     0.143327    0.155928    0.160429    0.160931    0.175481    0.210060
     0.219558    0.224537    0.271401    0.272696    0.275531    0.282546
     0.286913    0.289360    0.324992    0.328007    0.334533    0.334830
     0.336538    0.336689    0.338612    0.339445    0.339488    0.339803
     0.340218    0.345180    0.364123    0.454095    0.475489    0.775721

 Minimum search - taking simple RFO step
 Searching for Lamda that Minimizes Along All modes
 Value Taken    Lamda =  -0.00001590
 Step Taken.  Stepsize is  0.014553

                             Maximum     Tolerance    Cnvgd?
         Gradient           0.000873      0.000100      NO
         Displacement       0.008579      0.000100      NO
         Energy change      0.000005      0.000000      NO


 New Cartesian Coordinates Obtained by Inverse Iteration

 Displacement from previous Coordinates is:  0.022249
 ----------------------------------------------------------------
             Standard Nuclear Orientation (Angstroms)
    I     Atom           X                Y                Z
 ----------------------------------------------------------------
    1      C       1.9836480165     2.8321526050    -0.7364158246
    2      C       2.0950046137     1.3446338097    -0.3538297233
    3      C       3.3981131327     0.7401036401    -0.9064953325
    4      C       4.6058685439     1.4994777083    -0.3274805912
    5      C       4.5245955164     3.0100352891    -0.6061822161
    6      C       3.1801943172     3.6086595727    -0.1574013127
    7      H       3.4550279300    -0.3285595015    -0.6631512908
    8      H       2.1072477310     1.2653238703     0.7436452249
    9      H       1.9732428294     2.9408660789    -1.8291909022
   10      H       1.0333511935     3.2458082440    -0.3730552416
   11      H       4.6403773247     1.3284202805     0.7747610477
   12      H       5.5322694766     1.0906866577    -0.7469549388
   13      H       5.3595971029     3.5349582086    -0.1157058882
   14      H       4.6521874995     3.1827318213    -1.6821288146
   15      H       3.1165026502     3.5824239042     0.9573320679
   16      H       3.1182688361     4.6611516073    -0.4598753813
   17      H       3.4161988911     0.8089935634    -2.0025940782
   18      N       0.9119941225     0.5804554871    -0.7634757914
   19      H       0.7384008675     0.4679204437    -1.7646919205
   20      C       0.0368972225     0.0228122222     0.0765336511
   21      H      -0.7756205669    -0.5023534784    -0.4464073972
   22      O       0.0810398337     0.0563647064     1.3373687597
 ----------------------------------------------------------------
 Nuclear Repulsion Energy =         466.32678641 hartrees
 There are       35 alpha and       35 beta electrons
 Applying Cartesian multipole field
    Component          Value
    ---------          -----
     (0,0,1)        3.15050E-02
 Nucleus-field energy     =    -1.2098289822 hartrees
 Requested basis set is 6-31+G(d)
 There are 71 shells and 197 basis functions
 A cutoff of  1.0D-14 yielded   2412 shell pairs
 There are     19012 function pairs
 Smallest overlap matrix eigenvalue = 2.62E-05
 Guess MOs from SCF MO coefficient file

 -----------------------------------------------------------------------
  General SCF calculation program by
  Eric Jon Sundstrom, Paul Horn, Yuezhi Mao, Dmitri Zuev, Alec White,
  David Stuck, Shaama M.S., Shane Yost, Joonho Lee, David Small,
  Daniel Levine, Susi Lehtola, Hugh Burton, Evgeny Epifanovsky,
  Bang C. Huynh
 -----------------------------------------------------------------------
 Exchange:     0.2000 Hartree-Fock + 0.0800 Slater + 0.7200 B88
 Correlation:  0.1900 VWN1RPA + 0.8100 LYP
 Using Euler-Maclaurin-Lebedev (99,590) quadrature formula
 using 16 threads for integral computing
 -------------------------------------------------------
 OpenMP Integral computing Module                
 Release: version 2.0, May 2017, Q-Chem Inc. Pleasanton 
 -------------------------------------------------------
 A restricted SCF calculation will be
 performed using DIIS
 SCF converges when DIIS error is below 1.0e-09
 ---------------------------------------
  Cycle       Energy         DIIS error
 ---------------------------------------
    1    -404.6780337056      6.17e-05  
    2    -404.6780671574      8.47e-06  
    3    -404.6780673131      8.84e-06  
    4    -404.6780675535      4.46e-06  
    5    -404.6780676314      6.32e-07  
    6    -404.6780676331      2.07e-07  
    7    -404.6780676332      6.16e-08  
    8    -404.6780676333      1.45e-08  
    9    -404.6780676333      5.78e-09  
   10    -404.6780676333      1.47e-09  
   11    -404.6780676333      3.03e-10  Convergence criterion met
 ---------------------------------------
 SCF time:   CPU 530.37s  wall 33.00s 
 SCF   energy in the final basis set =     -404.6780676333
 Total energy in the final basis set =     -404.6780676333
 
 --------------------------------------------------------------
 
                    Orbital Energies (a.u.)
 --------------------------------------------------------------
 
 Alpha MOs
 -- Occupied --
-19.1410 -14.3669 -10.2933 -10.2201 -10.1855 -10.1797 -10.1674 -10.1664
-10.1625  -1.0334  -0.9269  -0.8169  -0.7345  -0.7318  -0.6293  -0.6010
 -0.5832  -0.5575  -0.5184  -0.4815  -0.4524  -0.4358  -0.4316  -0.4142
 -0.4117  -0.3877  -0.3696  -0.3661  -0.3337  -0.3323  -0.3132  -0.3044
 -0.3012  -0.2753  -0.2565
 -- Virtual --
 -0.0703  -0.0382  -0.0248   0.0034   0.0084   0.0258   0.0290   0.0456
  0.0664   0.0687   0.0802   0.0847   0.1051   0.1086   0.1200   0.1305
  0.1404   0.1457   0.1517   0.1565   0.1586   0.1714   0.1837   0.1866
  0.1936   0.1992   0.2025   0.2038   0.2083   0.2169   0.2271   0.2299
  0.2377   0.2419   0.2500   0.2537   0.2594   0.2643   0.2708   0.2818
  0.2998   0.3006   0.3065   0.3144   0.3155   0.3212   0.3277   0.3492
  0.3529   0.3611   0.3751   0.3973   0.4052   0.4207   0.4331   0.4382
  0.4512   0.4797   0.4897   0.6245   0.6515   0.6748   0.6763   0.6829
  0.6895   0.7031   0.7336   0.7460   0.7602   0.7645   0.7773   0.7905
  0.8093   0.8209   0.8326   0.8634   0.8842   0.9235   0.9610   0.9773
  0.9931   1.0035   1.0196   1.0307   1.0397   1.0657   1.0999   1.1252
  1.1294   1.1336   1.1458   1.1505   1.1711   1.1913   1.2012   1.2144
  1.2333   1.2441   1.2729   1.3162   1.3568   1.3828   1.3980   1.4395
  1.4756   1.4880   1.5023   1.5697   1.5754   1.6144   1.7078   1.7384
  1.7436   1.7491   1.7823   1.8058   1.8493   1.8648   1.9076   1.9092
  1.9248   1.9482   1.9974   2.0135   2.0313   2.0551   2.0621   2.0859
  2.0908   2.1358   2.2163   2.2247   2.2833   2.3124   2.3215   2.3484
  2.3964   2.4163   2.4219   2.4276   2.4566   2.5654   2.5977   2.6124
  2.6844   2.6880   2.7021   2.7726   2.7907   2.8433   2.8653   2.9669
  3.1817   4.1061   4.1881   4.2274   4.2995   4.3407   4.4113   4.6173
  4.6228   4.6852
 --------------------------------------------------------------
 
          Ground-State Mulliken Net Atomic Charges

     Atom                 Charge (a.u.)
  ----------------------------------------
      1 C                    -0.199112
      2 C                    -0.475959
      3 C                    -0.223266
      4 C                    -0.531663
      5 C                    -0.244191
      6 C                    -0.546971
      7 H                     0.201069
      8 H                     0.167779
      9 H                     0.307137
     10 H                     0.187568
     11 H                     0.102255
     12 H                     0.246051
     13 H                     0.157108
     14 H                     0.307464
     15 H                     0.099295
     16 H                     0.231464
     17 H                     0.309988
     18 N                    -0.364873
     19 H                     0.490759
     20 C                     0.274272
     21 H                     0.201439
     22 O                    -0.697614
  ----------------------------------------
  Sum of atomic charges =     0.000000

 -----------------------------------------------------------------
                    Cartesian Multipole Moments
 -----------------------------------------------------------------
    Charge (ESU x 10^10)
                 0.0000
    Dipole Moment (Debye)
         X       2.1201      Y       1.3006      Z     -11.1544
       Tot      11.4283
    Quadrupole Moments (Debye-Ang)
        XX     -50.1446     XY       4.0886     YY     -54.2626
        XZ     -17.0219     YZ     -11.1435     ZZ     -55.8492
    Octopole Moments (Debye-Ang^2)
       XXX    -388.7990    XXY     -80.0004    XYY    -129.3111
       YYY    -263.0647    XXZ     -48.8584    XYZ     -36.1319
       YYZ     -17.2976    XZZ    -119.7452    YZZ     -79.6707
       ZZZ       8.4153
    Hexadecapole Moments (Debye-Ang^3)
[...]

 Mode:                40                     41                     42
 Frequency:      1417.74                1492.13                1499.02
 Force Cnst:      1.6801                 1.4357                 1.4395
 Red. Mass:       1.4187                 1.0945                 1.0873
 IR Active:          YES                    YES                    YES
 IR Intens:        4.397                  0.877                 11.110
 Raman Active:       YES                    YES                    YES
               X      Y      Z        X      Y      Z        X      Y      Z
 C          0.052  0.093  0.017   -0.009 -0.001 -0.011    0.002 -0.013  0.004
 C         -0.084 -0.061 -0.009   -0.009  0.014  0.001    0.006  0.002  0.003
 C          0.108  0.014  0.009    0.004  0.005  0.010   -0.012  0.003  0.002
 C         -0.013  0.023  0.008    0.039 -0.016  0.033   -0.030  0.030 -0.034
 C          0.002 -0.000  0.005    0.006 -0.005 -0.002    0.032  0.024 -0.020
 C          0.017 -0.020  0.005    0.000 -0.047 -0.046    0.014 -0.027 -0.030
 H         -0.354 -0.037 -0.075    0.018 -0.029 -0.117   -0.000 -0.001 -0.024
 H          0.434  0.326  0.010    0.032 -0.054 -0.005   -0.031 -0.015 -0.001
 H         -0.225 -0.331 -0.025    0.130 -0.032 -0.014   -0.039  0.073  0.010
 H         -0.163 -0.287 -0.093    0.032 -0.045  0.123   -0.013  0.014 -0.066
 H          0.041  0.017  0.003   -0.379  0.150  0.046    0.354 -0.208 -0.060
 H         -0.104 -0.144 -0.031   -0.116  0.107 -0.409    0.117 -0.121  0.418
 H         -0.026 -0.017  0.059    0.007 -0.032  0.021   -0.136 -0.118  0.373
 H         -0.071 -0.045 -0.006   -0.044  0.018 -0.004   -0.362 -0.242 -0.103
 H          0.030  0.035  0.004   -0.014  0.512 -0.001   -0.062  0.320 -0.009
 H         -0.172 -0.038 -0.019   -0.033  0.126  0.529   -0.028  0.084  0.339
 H         -0.389 -0.093 -0.009   -0.012 -0.118  0.000    0.056 -0.016  0.000
 N         -0.017 -0.010 -0.018    0.001 -0.001 -0.000    0.004  0.003 -0.000
 H          0.096  0.064 -0.049   -0.001 -0.002  0.000   -0.019 -0.012  0.006
 C          0.013  0.008  0.015   -0.000 -0.000  0.000   -0.003 -0.002  0.002
 H          0.028  0.017  0.003   -0.001  0.001 -0.000   -0.003 -0.002 -0.002
 O         -0.003 -0.002 -0.007    0.000 -0.000 -0.000    0.000  0.000 -0.001
 TransDip  -0.044 -0.035  0.036    0.009 -0.028  0.003   -0.067 -0.047  0.068

 Mode:                43                     44                     45
 Frequency:      1504.64                1505.69                1526.78
 Force Cnst:      1.4543                 1.4633                 1.5011
 Red. Mass:       1.0903                 1.0955                 1.0930
 IR Active:          YES                    YES                    YES
 IR Intens:       11.208                  9.420                  3.755
 Raman Active:       YES                    YES                    YES
               X      Y      Z        X      Y      Z        X      Y      Z
 C         -0.047  0.024 -0.031    0.009 -0.017  0.009   -0.037  0.027 -0.022
 C         -0.003  0.002 -0.001    0.010  0.007  0.006   -0.013 -0.009 -0.008
 C         -0.000  0.042  0.031   -0.012  0.028  0.023    0.010 -0.042 -0.028
 C         -0.018  0.014 -0.008    0.026 -0.014  0.018    0.012 -0.010  0.004
 C          0.000 -0.013  0.002    0.045  0.030 -0.020    0.032  0.022 -0.011
 C         -0.004  0.012  0.003   -0.003  0.029  0.019   -0.004  0.015  0.006
 H          0.001 -0.074 -0.415    0.034 -0.057 -0.306   -0.022  0.069  0.403
 H          0.015 -0.015 -0.003   -0.022 -0.023  0.007    0.031  0.024 -0.007
 H          0.480 -0.222 -0.049   -0.139  0.122  0.022    0.385 -0.212 -0.043
 H          0.114 -0.092  0.472   -0.029  0.057 -0.154    0.086 -0.085  0.383
 H          0.150 -0.092 -0.021   -0.256  0.095  0.031   -0.102  0.062  0.012
 H          0.040 -0.036  0.169   -0.059  0.094 -0.266   -0.026  0.029 -0.121
 H          0.004  0.030 -0.048   -0.124 -0.112  0.393   -0.088 -0.079  0.276
 H          0.018  0.075  0.017   -0.388 -0.240 -0.105   -0.279 -0.181 -0.076
 H          0.027 -0.081 -0.002    0.002 -0.274 -0.000    0.018 -0.118 -0.002
 H         -0.009 -0.011 -0.078    0.041 -0.056 -0.274    0.007 -0.021 -0.124
 H          0.015 -0.449 -0.010    0.068 -0.332 -0.005   -0.057  0.444  0.009
 N          0.001  0.002 -0.000   -0.006 -0.004  0.001   -0.000  0.000  0.001
 H         -0.000 -0.011  0.001    0.015  0.008 -0.003    0.012  0.009 -0.002
 C         -0.001 -0.000 -0.001    0.003  0.002 -0.000    0.002  0.001 -0.006
 H         -0.001 -0.001 -0.000    0.004  0.002  0.001   -0.001 -0.000  0.003
 O          0.000 -0.000  0.001   -0.000 -0.000 -0.001   -0.000 -0.000  0.003
 TransDip   0.066 -0.085 -0.001   -0.052 -0.053 -0.064    0.023  0.012  0.056

 Mode:                46                     47                     48
 Frequency:      1579.18                1637.41                2272.83
 Force Cnst:      2.3727                17.0818                 7.3034
 Red. Mass:       1.6148                10.8136                 2.3996
 IR Active:          YES                    YES                    YES
 IR Intens:       71.466                621.864                 28.560
 Raman Active:       YES                    YES                    YES
               X      Y      Z        X      Y      Z        X      Y      Z
 C          0.002  0.005  0.002   -0.025 -0.011 -0.021   -0.000 -0.000  0.000
 C          0.053  0.034 -0.041    0.004  0.002  0.049    0.002  0.001 -0.000
 C          0.005  0.002  0.003   -0.022 -0.017 -0.022   -0.000 -0.000  0.000
 C         -0.006 -0.002 -0.000    0.004  0.009  0.008    0.000  0.000  0.000
 C          0.000  0.000  0.001   -0.001 -0.000 -0.003   -0.000 -0.000  0.000
 C         -0.004 -0.004 -0.000    0.010 -0.000  0.007    0.000  0.000  0.000
 H          0.007  0.005  0.005    0.043 -0.004  0.038    0.001  0.000 -0.001
 H         -0.256 -0.167 -0.053    0.008  0.003  0.093    0.007  0.004 -0.001
 H         -0.008 -0.067 -0.007    0.062  0.077 -0.012   -0.000  0.000  0.001
 H          0.010  0.009  0.008    0.013  0.028  0.050    0.001  0.001 -0.001
 H          0.033  0.006 -0.003   -0.026 -0.006  0.018   -0.000 -0.000 -0.000
 H          0.004 -0.002  0.023   -0.036 -0.029 -0.049    0.000 -0.000  0.000
 H          0.002  0.003 -0.007   -0.004 -0.006  0.018    0.000  0.000  0.000
 H          0.002  0.001  0.001   -0.001 -0.001 -0.003    0.000  0.000  0.000
 H          0.016  0.026 -0.001   -0.016 -0.027  0.016   -0.000  0.000 -0.000
 H         -0.001  0.002  0.020   -0.041 -0.017 -0.050    0.000  0.000  0.000
 H         -0.069  0.011 -0.001    0.094  0.020 -0.018    0.000 -0.000  0.001
 N         -0.139 -0.090  0.050    0.166  0.107 -0.212    0.015  0.010 -0.003
 H          0.750  0.478 -0.161    0.060  0.037 -0.199   -0.049 -0.032  0.004
 C          0.063  0.041  0.049   -0.206 -0.130  0.739   -0.146 -0.094 -0.090
 H          0.132  0.085  0.047    0.214  0.139 -0.146    0.732  0.474  0.444
 O         -0.010 -0.007 -0.049   -0.005 -0.005 -0.358    0.006  0.004  0.014
 TransDip   0.226  0.144  0.039   -0.396 -0.256  0.645   -0.105 -0.068 -0.117

 Mode:                49                     50                     51
 Frequency:      2811.63                2828.70                3001.46
 Force Cnst:      4.9936                 5.0536                 5.7053
 Red. Mass:       1.0721                 1.0720                 1.0749
 IR Active:          YES                    YES                    YES
 IR Intens:       75.058                353.559                 51.068
 Raman Active:       YES                    YES                    YES
               X      Y      Z        X      Y      Z        X      Y      Z
 C         -0.002  0.001  0.002   -0.001  0.001  0.001    0.002 -0.000 -0.004
 C         -0.000  0.001  0.001    0.001 -0.000  0.003    0.001 -0.003  0.042
 C         -0.000  0.001 -0.001    0.001 -0.002  0.002    0.001  0.002 -0.004
 C          0.003 -0.006  0.032   -0.005  0.012 -0.067    0.002 -0.000 -0.004
 C          0.001  0.002  0.002    0.005  0.002  0.004   -0.053 -0.034 -0.015
 C          0.004 -0.001 -0.069    0.002 -0.001 -0.032    0.000  0.004 -0.004
 H          0.003 -0.009  0.001   -0.006  0.026 -0.005   -0.002 -0.019  0.003
 H          0.002 -0.005 -0.014   -0.005  0.003 -0.042   -0.008  0.036 -0.516
 H         -0.006  0.001 -0.035   -0.001 -0.000 -0.013    0.002 -0.004  0.045
 H          0.021 -0.014 -0.008    0.014 -0.008 -0.006   -0.025  0.008  0.008
 H         -0.008  0.059 -0.424    0.017 -0.135  0.883    0.000 -0.006  0.025
 H         -0.019  0.005  0.027    0.039 -0.013 -0.049   -0.033  0.011  0.014
 H         -0.014 -0.017 -0.011   -0.057 -0.033 -0.031    0.622  0.390  0.376
 H          0.008 -0.001 -0.018    0.010  0.013 -0.049    0.005  0.019 -0.189
 H         -0.048 -0.036  0.894   -0.027 -0.015  0.423   -0.003 -0.000  0.025
 H          0.000  0.042 -0.046   -0.002  0.019 -0.019   -0.000 -0.048  0.014
 H          0.002  0.002  0.019   -0.003 -0.001 -0.034    0.001 -0.002  0.050
 N         -0.000 -0.000  0.000   -0.000 -0.000  0.001    0.001  0.000 -0.000
 H         -0.000  0.002  0.000    0.002  0.001  0.002    0.001 -0.000  0.006
 C          0.000  0.000 -0.000    0.000  0.000 -0.001   -0.000 -0.000  0.001
 H         -0.000  0.000  0.000    0.000 -0.000  0.000    0.000  0.000 -0.000
 O          0.000 -0.000  0.000   -0.000  0.000  0.001   -0.000 -0.000 -0.001
 TransDip   0.073 -0.134 -0.232   -0.080  0.061 -0.594   -0.187 -0.131  0.011

 Mode:                52                     53                     54
 Frequency:      3003.19                3039.15                3048.19
 Force Cnst:      5.7346                 5.7913                 5.8162
 Red. Mass:       1.0792                 1.0642                 1.0624
 IR Active:          YES                    YES                    YES
 IR Intens:      121.219                 38.466                 23.942
 Raman Active:       YES                    YES                    YES
               X      Y      Z        X      Y      Z        X      Y      Z
 C         -0.004  0.002  0.008   -0.062  0.031 -0.014   -0.006  0.003  0.000
 C         -0.001  0.005 -0.068   -0.001 -0.001  0.002   -0.001 -0.001 -0.001
 C          0.000 -0.004  0.008    0.000  0.005  0.003    0.005 -0.061 -0.032
 C          0.001  0.000 -0.005    0.000 -0.000  0.000   -0.007  0.003  0.004
 C         -0.032 -0.021 -0.009    0.000 -0.000 -0.000   -0.000  0.000  0.001
 C          0.000  0.002 -0.004    0.001 -0.009  0.005    0.000 -0.002  0.001
 H         -0.001  0.044 -0.009    0.003 -0.069  0.018   -0.044  0.781 -0.195
 H          0.013 -0.058  0.832    0.001  0.001 -0.019   -0.000  0.001  0.014
 H         -0.002  0.007 -0.079   -0.016 -0.037  0.466   -0.002 -0.002  0.026
 H          0.056 -0.023 -0.020    0.745 -0.325 -0.302    0.071 -0.032 -0.028
 H          0.005 -0.007  0.047   -0.000  0.001 -0.005   -0.001  0.003 -0.005
 H         -0.018  0.007  0.010   -0.001  0.000  0.001    0.083 -0.040 -0.041
 H          0.384  0.240  0.231    0.000  0.002  0.001    0.001 -0.001  0.001
 H          0.003  0.011 -0.116    0.000  0.000  0.000    0.001  0.001 -0.007
 H         -0.001  0.001  0.045    0.002 -0.002 -0.015    0.001 -0.000 -0.006
 H          0.000 -0.027  0.010   -0.010  0.116 -0.036   -0.002  0.023 -0.007
 H         -0.000  0.006 -0.087    0.001  0.005 -0.052   -0.008 -0.057  0.568
 N         -0.001 -0.001  0.001    0.000  0.000 -0.000    0.000  0.000 -0.000
 H         -0.000  0.001 -0.010   -0.000  0.001 -0.001    0.002 -0.001 -0.001
 C          0.001  0.000 -0.003    0.000  0.000  0.000    0.000  0.000  0.000
 H         -0.001 -0.000  0.001    0.000 -0.000 -0.000   -0.000  0.000 -0.000
 O          0.001  0.000  0.001   -0.000 -0.000 -0.000   -0.000 -0.000 -0.000
 TransDip  -0.198 -0.098 -0.275   -0.173  0.074  0.063   -0.024 -0.148  0.047

 Mode:                55                     56                     57
 Frequency:      3076.14                3087.97                3089.77
 Force Cnst:      6.0519                 6.1288                 6.1852
 Red. Mass:       1.0855                 1.0909                 1.0996
 IR Active:          YES                    YES                    YES
 IR Intens:       34.951                 34.302                  5.545
 Raman Active:       YES                    YES                    YES
               X      Y      Z        X      Y      Z        X      Y      Z
 C          0.010 -0.005 -0.003   -0.014  0.003  0.039    0.022 -0.005 -0.061
 C          0.000  0.001 -0.000    0.001 -0.000  0.003    0.001 -0.000 -0.002
 C         -0.000 -0.001  0.004   -0.001  0.016 -0.013    0.000 -0.023  0.041
 C         -0.001  0.001 -0.001   -0.055  0.024  0.025   -0.034  0.014  0.018
 C         -0.005 -0.002 -0.013   -0.003  0.000 -0.033   -0.002 -0.000 -0.011
 C          0.004 -0.078  0.024    0.000  0.002 -0.001    0.000  0.007 -0.006
 H         -0.001  0.014 -0.003    0.009 -0.180  0.040   -0.014  0.247 -0.054
 H          0.000 -0.000  0.003   -0.001  0.005 -0.031    0.004 -0.007  0.024
 H          0.001 -0.001 -0.007   -0.004  0.040 -0.399    0.007 -0.061  0.621
 H         -0.119  0.050  0.045    0.179 -0.078 -0.066   -0.275  0.121  0.102
 H         -0.000 -0.002  0.009   -0.005  0.002 -0.003   -0.006  0.004 -0.036
 H          0.009 -0.005 -0.004    0.654 -0.287 -0.300    0.405 -0.177 -0.186
 H          0.067  0.040  0.037    0.082  0.054  0.044    0.032  0.021  0.018
 H         -0.014 -0.020  0.122   -0.040 -0.056  0.353   -0.014 -0.016  0.113
 H          0.001 -0.007 -0.022   -0.004 -0.001 -0.001    0.000  0.001  0.044
 H         -0.054  0.933 -0.274    0.003 -0.028  0.008    0.004 -0.083  0.024
 H          0.001  0.003 -0.042   -0.001 -0.006  0.117    0.005  0.026 -0.424
 N         -0.000 -0.000  0.000    0.000 -0.000 -0.000   -0.000  0.000  0.000
 H         -0.000 -0.000 -0.000   -0.000 -0.001  0.000   -0.000  0.001 -0.000
 C          0.000  0.000 -0.000   -0.000  0.000 -0.000    0.000 -0.000 -0.000
 H         -0.000 -0.000  0.000   -0.000  0.000 -0.000    0.000 -0.000  0.000
 O         -0.000 -0.000  0.000   -0.000 -0.000 -0.000   -0.000  0.000  0.000
 TransDip   0.002 -0.189  0.001   -0.169  0.080  0.019    0.013 -0.074 -0.006

 Mode:                58                     59                     60
 Frequency:      3093.04                3097.61                3499.23
 Force Cnst:      6.1916                 6.2018                 7.7954
 Red. Mass:       1.0985                 1.0970                 1.0806
 IR Active:          YES                    YES                    YES
 IR Intens:        7.442                  1.011                126.171
 Raman Active:       YES                    YES                    YES
               X      Y      Z        X      Y      Z        X      Y      Z
 C         -0.012  0.003  0.030    0.012 -0.002 -0.035   -0.000 -0.000  0.000
 C         -0.001 -0.001  0.010    0.000  0.001 -0.009    0.000  0.000 -0.000
 C          0.001 -0.035  0.050   -0.001  0.024 -0.043   -0.000 -0.000  0.000
 C          0.023 -0.010 -0.011    0.016 -0.006 -0.013   -0.000  0.000  0.000
 C         -0.000  0.004 -0.051   -0.001  0.004 -0.061   -0.000 -0.000 -0.000
 C         -0.001  0.007 -0.003   -0.000  0.007 -0.007    0.000 -0.000  0.000
 H         -0.021  0.385 -0.086    0.015 -0.262  0.059   -0.000  0.001 -0.000
 H          0.001  0.008 -0.112   -0.002 -0.008  0.102    0.005  0.002  0.012
 H         -0.003  0.032 -0.298    0.005 -0.037  0.357    0.000 -0.000  0.000
 H          0.145 -0.064 -0.054   -0.144  0.063  0.055    0.001 -0.001 -0.000
 H         -0.001 -0.007  0.005    0.005 -0.013  0.069    0.000  0.000 -0.001
 H         -0.268  0.120  0.123   -0.197  0.088  0.091    0.000 -0.000 -0.000
 H          0.072  0.045  0.036    0.098  0.062  0.052    0.000  0.000  0.000
 H         -0.064 -0.089  0.565   -0.078 -0.107  0.667    0.000  0.000  0.000
 H         -0.006 -0.000  0.010   -0.005  0.001  0.057    0.000  0.000 -0.001
 H          0.007 -0.081  0.023    0.006 -0.089  0.026    0.000  0.000 -0.000
 H          0.010  0.029 -0.506   -0.007 -0.025  0.448   -0.000  0.000 -0.000
 N          0.000  0.000 -0.000   -0.000 -0.000  0.000   -0.012 -0.008 -0.073
 H         -0.002 -0.001  0.001    0.002  0.001 -0.001    0.169  0.111  0.976
 C         -0.000 -0.000  0.000    0.000  0.000 -0.000   -0.001 -0.001  0.000
 H          0.000  0.000 -0.000   -0.000 -0.000  0.000    0.002  0.001  0.001
 O         -0.000 -0.000 -0.000    0.000  0.000  0.000   -0.000 -0.000  0.002
 TransDip  -0.019 -0.085  0.007   -0.002  0.011 -0.030    0.015  0.012  0.359

 STANDARD THERMODYNAMIC QUANTITIES AT   298.18 K  AND     1.00 ATM

   This Molecule has  0 Imaginary Frequencies
   Zero point vibrational energy:      121.897 kcal/mol

   Atom    1 Element C  Has Mass   12.00000
   Atom    2 Element C  Has Mass   12.00000
   Atom    3 Element C  Has Mass   12.00000
   Atom    4 Element C  Has Mass   12.00000
   Atom    5 Element C  Has Mass   12.00000
   Atom    6 Element C  Has Mass   12.00000
   Atom    7 Element H  Has Mass    1.00783
   Atom    8 Element H  Has Mass    1.00783
   Atom    9 Element H  Has Mass    1.00783
   Atom   10 Element H  Has Mass    1.00783
   Atom   11 Element H  Has Mass    1.00783
   Atom   12 Element H  Has Mass    1.00783
   Atom   13 Element H  Has Mass    1.00783
   Atom   14 Element H  Has Mass    1.00783
   Atom   15 Element H  Has Mass    1.00783
   Atom   16 Element H  Has Mass    1.00783
   Atom   17 Element H  Has Mass    1.00783
   Atom   18 Element N  Has Mass   14.00307
   Atom   19 Element H  Has Mass    1.00783
   Atom   20 Element C  Has Mass   12.00000
   Atom   21 Element H  Has Mass    2.01410
   Atom   22 Element O  Has Mass   15.99491
   Molecular Mass:   128.106042 amu
   Principal axes and moments of inertia in amu*Bohr^2:
                             1           2           3
    Eigenvalues --      559.44881  1999.64022  2181.38105
          X               0.82249    -0.52478     0.21934
          Y               0.53781     0.84307     0.00038
          Z              -0.18512     0.11765     0.97565
   Rotational Symmetry Number is   1
   The Molecule is an Asymmetric Top
   Translational Enthalpy:        0.889 kcal/mol
   Rotational Enthalpy:           0.889 kcal/mol
   Vibrational Enthalpy:        125.521 kcal/mol
   gas constant (RT):             0.593 kcal/mol
   Translational Entropy:        40.457  cal/mol.K
   Rotational Entropy:           29.280  cal/mol.K
   Vibrational Entropy:          21.073  cal/mol.K

   Total Enthalpy:              127.891 kcal/mol
   Total Entropy:                90.810  cal/mol.K
Archival summary:
1\1\node024\FREQ\ProcedureUnspecified\6-31+G*\11713\ymao90\SunMar704:26:252021SunMar704:26:252021\0\\#,FREQ,ProcedureUnspecified,6-31+G*,\\0,1\N\H,1,1.02239\C,1,1.33513,2,117.311\H,3,1.09973,1,112.598,2,0.286476,0\O,3,1.26204,1,126.516,2,-179.819,0\C,1,1.46674,2,117.886,3,-179.718,0\H,6,1.10038,1,104.479,2,-175.991,0\C,6,1.53919,1,112.199,2,-58.4204,0\H,8,1.09753,6,110.29,1,-52.034,0\H,8,1.09838,6,110.34,1,65.1651,0\C,8,1.53963,6,109.604,1,-174.361,0\H,11,1.09603,8,109.578,6,-178.102,0\H,11,1.116,8,108.663,6,65.1308,0\C,11,1.53821,8,112.012,6,-55.7693,0\H,14,1.09715,11,109.034,8,-68.4353,0\H,14,1.10152,11,110.32,8,175.699,0\C,14,1.53857,11,112.049,8,52.3807,0\H,17,1.09684,14,110.014,11,-174.445,0\H,17,1.1169,14,109.381,11,68.1314,0\C,17,1.53941,14,111.913,11,-52.2809,0\H,20,1.09819,17,109.37,14,-65.1952,0\H,20,1.09832,17,110.978,14,177.618,0\\\@

 Total job time:  5101.21s(wall), 80703.33s(cpu) 
 Sun Mar  7 04:26:25 2021

        *************************************************************
        *                                                           *
        *  Thank you very much for using Q-Chem.  Have a nice day.  *
        *                                                           *
        *************************************************************


