                  Welcome to Q-Chem
     A Quantum Leap Into The Future Of Chemistry


 Q-Chem 5.2 (devel), Q-Chem, Inc., Pleasanton, CA (2019)

 Yihan Shao,  Zhengting Gan,  E. Epifanovsky,  A. T. B. Gilbert,  M. Wormit,  
 J. Kussmann,  A. W. Lange,  A. Behn,  Jia Deng,  Xintian Feng,  D. Ghosh,  
 M. Goldey,  P. R. Horn,  L. D. Jacobson,  I. Kaliman,  T. Kus,  A. Landau,  
 Jie Liu,  E. I. Proynov,  R. M. Richard,  R. P. Steele,  E. J. Sundstrom,  
 H. L. Woodcock III,  P. M. Zimmerman,  D. Zuev,  B. Alam,  B. Albrecht,  
 E. Alguire,  S. A. Baeppler,  D. Barton,  Z. Benda,  Y. A. Bernard,  
 E. J. Berquist,  K. B. Bravaya,  H. Burton,  K. Carter-Fenk,  D. Casanova,  
 Chun-Min Chang,  Yunqing Chen,  A. Chien,  K. D. Closser,  M. P. Coons,  
 S. Coriani,  S. Dasgupta,  A. L. Dempwolff,  M. Diedenhofen,  Hainam Do,  
 R. G. Edgar,  Po-Tung Fang,  S. Faraji,  S. Fatehi,  Qingguo Feng,  
 J. Fosso-Tande,  J. Gayvert,  Qinghui Ge,  A. Ghysels,  G. Gidofalvi,  
 J. Gomes,  J. Gonthier,  A. Gunina,  D. Hait,  M. W. D. Hanson-Heine,  
 P. H. P. Harbach,  A. W. Hauser,  M. F. Herbst,  J. E. Herr,  
 E. G. Hohenstein,  Z. C. Holden,  Kerwin Hui,  B. C. Huynh,  T.-C. Jagau,  
 Hyunjun Ji,  B. Kaduk,  K. Khistyaev,  Jaehoon Kim,  P. Klunzinger,  K. Koh,  
 D. Kosenkov,  L. Koulias,  T. Kowalczyk,  C. M. Krauter,  A. Kunitsa,  
 Ka Un Lao,  A. Laurent,  K. V. Lawler,  Joonho Lee,  D. Lefrancois,  
 S. Lehtola,  D. S. Levine,  Yi-Pei Li,  You-Sheng Lin,  Fenglai Liu,  
 Kuan-Yu Liu,  E. Livshits,  M. Loipersberger,  A. Luenser,  P. Manohar,  
 E. Mansoor,  S. F. Manzer,  Shan-Ping Mao,  Yuezhi Mao,  N. Mardirossian,  
 A. V. Marenich,  T. Markovich,  L. A. Martinez-Martinez,  S. A. Maurer,  
 N. J. Mayhall,  S. C. McKenzie,  J.-M. Mewes,  P. Morgante,  A. F. Morrison,  
 J. W. Mullinax,  K. Nanda,  T. S. Nguyen-Beck,  R. Olivares-Amaya,  
 J. A. Parkhill,  S. K. Paul,  F. Pavosevic,  Zheng Pei,  T. M. Perrine,  
 F. Plasser,  P. Pokhilko,  S. Prager,  A. Prociuk,  E. Ramos,  B. Rana,  
 D. R. Rehn,  F. Rob,  M. Scheurer,  M. Schneider,  N. Sergueev,  
 S. M. Sharada,  S. Sharma,  D. W. Small,  T. Stauch,  C. J. Stein,  
 T. Stein,  Yu-Chuan Su,  S. P. Veccham,  Zhen Tao,  A. J. W. Thom,  
 A. Tkatchenko,  T. Tsuchimochi,  N. M. Tubman,  L. Vogt,  M. L. Vidal,  
 O. Vydrov,  M. A. Watson,  J. Wenzel,  M. de Wergifosse,  T. A. Wesolowski,  
 A. White,  J. Witte,  A. Yamada,  Jun Yang,  K. Yao,  S. Yeganeh,  
 S. R. Yost,  Zhi-Qiang You,  A. Zech,  Igor Ying Zhang,  Xing Zhang,  
 Yan Zhao,  Ying Zhu,  B. R. Brooks,  G. K. L. Chan,  C. J. Cramer,  
 M. S. Gordon,  W. J. Hehre,  A. Klamt,  M. W. Schmidt,  C. D. Sherrill,  
 D. G. Truhlar,  A. Aspuru-Guzik,  R. Baer,  A. T. Bell,  N. A. Besley,  
 Jeng-Da Chai,  A. E. DePrince, III,  R. A. DiStasio Jr.,  A. Dreuw,  
 B. D. Dunietz,  T. R. Furlani,  Chao-Ping Hsu,  Yousung Jung,  Jing Kong,  
 D. S. Lambrecht,  WanZhen Liang,  C. Ochsenfeld,  V. A. Rassolov,  
 L. V. Slipchenko,  J. E. Subotnik,  T. Van Voorhis,  J. M. Herbert,  
 A. I. Krylov,  P. M. W. Gill,  M. Head-Gordon

 Contributors to earlier versions of Q-Chem not listed above: 
 R. D. Adamson,  B. Austin,  J. Baker,  G. J. O. Beran,  K. Brandhorst,  
 S. T. Brown,  E. F. C. Byrd,  A. K. Chakraborty,  C.-L. Cheng,  
 Siu Hung Chien,  D. M. Chipman,  D. L. Crittenden,  H. Dachsel,  
 R. J. Doerksen,  A. D. Dutoi,  L. Fusti-Molnar,  W. A. Goddard III,  
 A. Golubeva-Zadorozhnaya,  S. R. Gwaltney,  G. Hawkins,  A. Heyden,  
 S. Hirata,  G. Kedziora,  F. J. Keil,  C. Kelley,  Jihan Kim,  R. A. King,  
 R. Z. Khaliullin,  P. P. Korambath,  W. Kurlancheek,  A. M. Lee,  M. S. Lee,  
 S. V. Levchenko,  Ching Yeh Lin,  D. Liotard,  R. C. Lochan,  I. Lotan,  
 P. E. Maslen,  N. Nair,  D. P. O'Neill,  D. Neuhauser,  E. Neuscamman,  
 C. M. Oana,  R. Olson,  B. Peters,  R. Peverati,  P. A. Pieniazek,  
 Y. M. Rhee,  J. Ritchie,  M. A. Rohrdanz,  E. Rosta,  N. J. Russ,  
 H. F. Schaefer III,  N. E. Schultz,  N. Shenvi,  A. C. Simmonett,  A. Sodt,  
 D. Stuck,  K. S. Thanthiriwatte,  V. Vanovschi,  Tao Wang,  A. Warshel,  
 C. F. Williams,  Q. Wu,  X. Xu,  W. Zhang

 Please cite Q-Chem as follows:
 Y. Shao et al., Mol. Phys. 113, 184-215 (2015)
 DOI: 10.1080/00268976.2014.952696

 Q-Chem 5.2.2 for Intel X86 EM64T Linux

 Parts of Q-Chem use Armadillo 9.800.1 (Horizon Scraper).
 http://arma.sourceforge.net/

 Q-Chem begins on Sun Mar  7 02:56:13 2021  

Host: node023
0

     Scratch files written to /home/ymao90/scratch/CCX_CO_-2020210307025611//

Checking the input file for inconsistencies... 	...done.

--------------------------------------------------------------
User input:
--------------------------------------------------------------
$molecule
0 1
C      1.9839655798    2.8343873569   -0.6530035790
C      2.0889665948    1.3399289492   -0.2973932582
C      3.4017166944    0.7321441035   -0.8222227424
C      4.6254659785    1.5200300416   -0.3255741318
C      4.5210827926    3.0122209378   -0.6783481608
C      3.2094896156    3.6188525050   -0.1554554411
H      3.4653882129   -0.3186255299   -0.5134835234
H      2.0538505535    1.2303619181    0.7916336585
H      1.9041773336    2.9373830819   -1.7471760654
H      1.0604862058    3.2447823031   -0.2264495779
H      4.7056113531    1.4098609561    0.7662015896
H      5.5416784391    1.0893334561   -0.7496610014
H      5.3807748665    3.5587419877   -0.2692766409
H      4.5659637339    3.1311627355   -1.7719372538
H      3.2192612515    3.6121018079    0.9447339030
H      3.1260878858    4.6703627905   -0.4590864625
H      3.3863457527    0.7409636912   -1.9242196110
N      0.9315723625    0.5939302253   -0.7942938700
H      0.8024957372    0.5217251348   -1.7968919912
C      0.0000000000    0.0000000000    0.0000000000
H     -0.7899738588   -0.5065817117   -0.5873052394
O     -0.0000000000    0.0000000000    1.2238135054
$end

$rem
JOBTYPE  OPT
METHOD  B3LYP
BASIS  6-31+G(D)
SYMMETRY  FALSE
SYM_IGNORE  TRUE
MEM_TOTAL  8000
MEM_STATIC  2000
MAX_SUB_FILE_NUM  16000
BASIS_LIN_DEP_THRESH  6
THRESH  14
SCF_CONVERGENCE  9
GEN_SCFMAN  TRUE
SCF_GUESS  SAD
FD_MAT_VEC_PROD  FALSE
XC_GRID  000099000590
NL_GRID  1
MAX_SCF_CYCLES  200
GEOM_OPT_TOL_GRADIENT  100
GEOM_OPT_TOL_DISPLACEMENT  100
GEOM_OPT_TOL_ENERGY  10
$end

$multipole_field
Z   0.003890
$end


--------------------------------------------------------------
 ----------------------------------------------------------------
             Standard Nuclear Orientation (Angstroms)
    I     Atom           X                Y                Z
 ----------------------------------------------------------------
    1      C       1.9839655798     2.8343873569    -0.6530035790
    2      C       2.0889665948     1.3399289492    -0.2973932582
    3      C       3.4017166944     0.7321441035    -0.8222227424
    4      C       4.6254659785     1.5200300416    -0.3255741318
    5      C       4.5210827926     3.0122209378    -0.6783481608
    6      C       3.2094896156     3.6188525050    -0.1554554411
    7      H       3.4653882129    -0.3186255299    -0.5134835234
    8      H       2.0538505535     1.2303619181     0.7916336585
    9      H       1.9041773336     2.9373830819    -1.7471760654
   10      H       1.0604862058     3.2447823031    -0.2264495779
   11      H       4.7056113531     1.4098609561     0.7662015896
   12      H       5.5416784391     1.0893334561    -0.7496610014
   13      H       5.3807748665     3.5587419877    -0.2692766409
   14      H       4.5659637339     3.1311627355    -1.7719372538
   15      H       3.2192612515     3.6121018079     0.9447339030
   16      H       3.1260878858     4.6703627905    -0.4590864625
   17      H       3.3863457527     0.7409636912    -1.9242196110
   18      N       0.9315723625     0.5939302253    -0.7942938700
   19      H       0.8024957372     0.5217251348    -1.7968919912
   20      C       0.0000000000     0.0000000000     0.0000000000
   21      H      -0.7899738588    -0.5065817117    -0.5873052394
   22      O       0.0000000000     0.0000000000     1.2238135054
 ----------------------------------------------------------------
 Nuclear Repulsion Energy =         466.63298041 hartrees
 There are       35 alpha and       35 beta electrons
 Requested basis set is 6-31+G(d)
 There are 71 shells and 197 basis functions

 Total QAlloc Memory Limit   8000 MB
 Mega-Array Size      1956 MB
 MEM_STATIC part      2000 MB
 Applying Cartesian multipole field
    Component          Value
    ---------          -----
     (0,0,1)        3.89000E-03
 Nucleus-field energy     =    -0.1536693442 hartrees
 A cutoff of  1.0D-14 yielded   2413 shell pairs
 There are     18998 function pairs
 Smallest overlap matrix eigenvalue = 2.48E-05
 Guess from superposition of atomic densities
 Warning:  Energy on first SCF cycle will be non-variational
 SAD guess density has 70.000000 electrons

 -----------------------------------------------------------------------
  General SCF calculation program by
  Eric Jon Sundstrom, Paul Horn, Yuezhi Mao, Dmitri Zuev, Alec White,
  David Stuck, Shaama M.S., Shane Yost, Joonho Lee, David Small,
  Daniel Levine, Susi Lehtola, Hugh Burton, Evgeny Epifanovsky,
  Bang C. Huynh
 -----------------------------------------------------------------------
 Exchange:     0.2000 Hartree-Fock + 0.0800 Slater + 0.7200 B88
 Correlation:  0.1900 VWN1RPA + 0.8100 LYP
 Using Euler-Maclaurin-Lebedev (99,590) quadrature formula
 using 16 threads for integral computing
 -------------------------------------------------------
 OpenMP Integral computing Module                
 Release: version 2.0, May 2017, Q-Chem Inc. Pleasanton 
 -------------------------------------------------------
 A restricted SCF calculation will be
 performed using DIIS
 SCF converges when DIIS error is below 1.0e-09
 ---------------------------------------
  Cycle       Energy         DIIS error
 ---------------------------------------
    1    -406.2319506887      5.08e-02  
    2    -404.3832118194      6.67e-03  
    3    -403.9817918369      1.21e-02  
    4    -404.5626845298      2.68e-03  
    5    -404.5912423110      6.83e-04  
    6    -404.5930462151      2.18e-04  
    7    -404.5932335311      7.50e-05  
    8    -404.5932573794      1.36e-05  
    9    -404.5932581309      4.49e-06  
   10    -404.5932582150      7.90e-07  
   11    -404.5932582175      3.12e-07  
   12    -404.5932582180      5.26e-08  
   13    -404.5932582180      1.15e-08  
   14    -404.5932582180      4.58e-09  
   15    -404.5932582180      1.20e-09  
   16    -404.5932582180      2.64e-10  Convergence criterion met
 ---------------------------------------
 SCF time:   CPU 742.76s  wall 47.00s 
 SCF   energy in the final basis set =     -404.5932582180
 Total energy in the final basis set =     -404.5932582180
 
 --------------------------------------------------------------
 
                    Orbital Energies (a.u.)
 --------------------------------------------------------------
 
 Alpha MOs
 -- Occupied --
-19.1278 -14.3715 -10.2911 -10.2302 -10.1904 -10.1901 -10.1899 -10.1898
-10.1867  -1.0387  -0.9328  -0.8315  -0.7497  -0.7481  -0.6408  -0.6197
 -0.5965  -0.5707  -0.5293  -0.4869  -0.4649  -0.4496  -0.4442  -0.4205
 -0.4168  -0.4020  -0.3867  -0.3771  -0.3540  -0.3527  -0.3307  -0.3206
 -0.3164  -0.2631  -0.2590
 -- Virtual --
  0.0009   0.0084   0.0132   0.0206   0.0244   0.0350   0.0456   0.0482
  0.0534   0.0653   0.0654   0.0796   0.0839   0.0879   0.0966   0.1006
  0.1065   0.1127   0.1219   0.1310   0.1364   0.1460   0.1518   0.1589
  0.1680   0.1760   0.1775   0.1835   0.1940   0.1993   0.2099   0.2118
  0.2159   0.2209   0.2299   0.2412   0.2465   0.2509   0.2622   0.2662
  0.2789   0.2825   0.2834   0.2868   0.2903   0.3064   0.3106   0.3236
  0.3244   0.3275   0.3575   0.3645   0.3805   0.3827   0.4104   0.4140
  0.4354   0.4536   0.4929   0.6038   0.6329   0.6503   0.6588   0.6625
  0.6775   0.6924   0.7245   0.7270   0.7444   0.7472   0.7723   0.7796
  0.7978   0.8007   0.8162   0.8434   0.8542   0.9035   0.9488   0.9684
  0.9726   0.9833   1.0136   1.0233   1.0273   1.0496   1.0828   1.0929
  1.1112   1.1144   1.1185   1.1451   1.1532   1.1636   1.1733   1.1835
  1.2349   1.2567   1.2909   1.3377   1.3395   1.3697   1.3849   1.4118
  1.4769   1.4870   1.4904   1.5635   1.5689   1.6118   1.6990   1.7238
  1.7277   1.7533   1.7682   1.8049   1.8525   1.8690   1.8961   1.9005
  1.9057   1.9380   1.9768   2.0062   2.0104   2.0402   2.0495   2.0840
  2.0870   2.1259   2.1956   2.2172   2.2754   2.3070   2.3097   2.3433
  2.3960   2.4052   2.4113   2.4160   2.4464   2.5604   2.5824   2.6233
  2.6661   2.6810   2.6998   2.7547   2.7724   2.8282   2.8657   3.0135
  3.1894   4.0877   4.1924   4.2366   4.2866   4.3283   4.4187   4.5952
  4.6002   4.6679
 --------------------------------------------------------------
 
          Ground-State Mulliken Net Atomic Charges

     Atom                 Charge (a.u.)
  ----------------------------------------
      1 C                    -0.234256
      2 C                    -0.517418
      3 C                    -0.255199
      4 C                    -0.435674
      5 C                    -0.370834
      6 C                    -0.438457
      7 H                     0.209118
      8 H                     0.231633
      9 H                     0.207771
     10 H                     0.207795
     11 H                     0.191432
     12 H                     0.203722
     13 H                     0.192289
     14 H                     0.209522
     15 H                     0.191231
     16 H                     0.201889
     17 H                     0.207321
     18 N                    -0.380037
     19 H                     0.406089
     20 C                     0.328923
     21 H                     0.150521
     22 O                    -0.507383
  ----------------------------------------
  Sum of atomic charges =     0.000000

 -----------------------------------------------------------------
                    Cartesian Multipole Moments
 -----------------------------------------------------------------
    Charge (ESU x 10^10)
                -0.0000
    Dipole Moment (Debye)
         X       1.7464      Y       1.1350      Z      -4.4927
       Tot       4.9520
    Quadrupole Moments (Debye-Ang)
        XX     -51.4950     XY       3.4633     YY     -54.6999
        XZ      -1.9975     YZ      -1.3409     ZZ     -57.2967
    Octopole Moments (Debye-Ang^2)
       XXX    -392.9791    XXY     -81.0432    XYY    -130.1892
       YYY    -263.6951    XXZ      10.3546    XYZ      -4.7033
       YYZ      14.4653    XZZ    -131.0599    YZZ     -86.2990
       ZZZ      38.6397
    Hexadecapole Moments (Debye-Ang^3)
      XXXX   -2982.9076   XXXY    -848.6029   XXYY    -744.7366
      XYYY    -860.0081   YYYY   -1515.6016   XXXZ     178.6013
      XXYZ      29.8630   XYYZ      58.4111   YYYZ     112.8874
      XXZZ    -540.3154   XYZZ    -283.9504   YYZZ    -297.2249
      XZZZ     196.1332   YZZZ     118.0124   ZZZZ    -253.4343
 -----------------------------------------------------------------
 Calculating analytic gradient of the SCF energy
 Gradient of SCF Energy
            1           2           3           4           5           6
    1   0.0000674  -0.0002064   0.0000241   0.0000006   0.0000328   0.0000320
    2   0.0000567  -0.0000942   0.0000135  -0.0000771   0.0000105  -0.0000384
    3   0.0007975   0.0001056   0.0008088   0.0006086   0.0006177   0.0006305
            7           8           9          10          11          12
    1  -0.0000079  -0.0000018  -0.0000154   0.0001692   0.0000339   0.0002116
    2   0.0001060   0.0000255  -0.0001207  -0.0000849   0.0000456  -0.0000918
    3   0.0001620  -0.0001935  -0.0006879   0.0001078  -0.0007294   0.0001409
           13          14          15          16          17          18
    1  -0.0001762  -0.0000532  -0.0000096   0.0000023  -0.0001700   0.0016223
    2  -0.0001163   0.0000195   0.0001249   0.0001270   0.0001257   0.0009565
    3   0.0001297  -0.0007031  -0.0007529   0.0001884  -0.0006876  -0.0018981
           19          20          21          22
    1   0.0000789  -0.0013252  -0.0004247   0.0001154
    2   0.0000735  -0.0008283  -0.0002909   0.0000577
    3   0.0004048   0.0065064  -0.0003350  -0.0052212
 Max gradient component =       6.506E-03
 RMS gradient           =       1.136E-03
 Gradient time:  CPU 119.27 s  wall 7.61 s
 Geometry Optimization Parameters
   NAtoms,    NIC,     NZ,  NCons,   NDum,   NFix, NCnnct, MaxDiis
       22     172       0       0       0       0       0       0


** GEOMETRY OPTIMIZATION IN DELOCALIZED INTERNAL COORDINATES **
   Searching for a Minimum

   Optimization Cycle:   1

                       Coordinates (Angstroms)
     ATOM                X               Y               Z
      1  C         1.9839655798    2.8343873569   -0.6530035790
      2  C         2.0889665948    1.3399289492   -0.2973932582
      3  C         3.4017166944    0.7321441035   -0.8222227424
      4  C         4.6254659785    1.5200300416   -0.3255741318
      5  C         4.5210827926    3.0122209378   -0.6783481608
      6  C         3.2094896156    3.6188525050   -0.1554554411
      7  H         3.4653882129   -0.3186255299   -0.5134835234
      8  H         2.0538505535    1.2303619181    0.7916336585
      9  H         1.9041773336    2.9373830819   -1.7471760654
     10  H         1.0604862058    3.2447823031   -0.2264495779
     11  H         4.7056113531    1.4098609561    0.7662015896
     12  H         5.5416784391    1.0893334561   -0.7496610014
     13  H         5.3807748665    3.5587419877   -0.2692766409
     14  H         4.5659637339    3.1311627355   -1.7719372538
     15  H         3.2192612515    3.6121018079    0.9447339030
     16  H         3.1260878858    4.6703627905   -0.4590864625
     17  H         3.3863457527    0.7409636912   -1.9242196110
     18  N         0.9315723625    0.5939302253   -0.7942938700
     19  H         0.8024957372    0.5217251348   -1.7968919912
     20  C         0.0000000000    0.0000000000    0.0000000000
     21  H        -0.7899738588   -0.5065817117   -0.5873052394
     22  O         0.0000000000    0.0000000000    1.2238135054
   Point Group: c1    Number of degrees of freedom:    60


   Energy is   -404.593258218


 Attempting to generate delocalized internal coordinates
 Initial Hessian constructed with Jon Baker's OPTIMIZE code

 60 Hessian modes will be used to form the next step
  Hessian Eigenvalues:
     0.005967    0.006024    0.006964    0.007193    0.012605    0.019501
     0.019786    0.020845    0.020845    0.037215    0.038526    0.039417
     0.041724    0.048166    0.048450    0.048891    0.055292    0.055631
     0.055746    0.059934    0.066958    0.081508    0.081536    0.081616
     0.082032    0.082133    0.084029    0.087513    0.120967    0.121178
     0.142989    0.159989    0.160000    0.160554    0.174868    0.210947
     0.220000    0.220003    0.272263    0.272658    0.275535    0.286789
     0.287121    0.287175    0.329119    0.334466    0.334727    0.335769
     0.336541    0.336553    0.339301    0.339441    0.339454    0.340119
     0.340274    0.342312    0.364811    0.454000    0.528079    0.937134

 Minimum search - taking simple RFO step
 Searching for Lamda that Minimizes Along All modes
 Value Taken    Lamda =  -0.00006490
 Step Taken.  Stepsize is  0.042037

                             Maximum     Tolerance    Cnvgd?
         Gradient           0.002991      0.000100      NO
         Displacement       0.015378      0.000100      NO
         Energy change     *********      0.000000      NO


 New Cartesian Coordinates Obtained by Inverse Iteration

 Displacement from previous Coordinates is:  0.078647
 ----------------------------------------------------------------
             Standard Nuclear Orientation (Angstroms)
    I     Atom           X                Y                Z
 ----------------------------------------------------------------
    1      C       1.9838542694     2.8333313920    -0.6601031649
    2      C       2.0898315820     1.3394663568    -0.3025896845
    3      C       3.4021673370     0.7325892205    -0.8297526041
    4      C       4.6241534713     1.5185652920    -0.3258261575
    5      C       4.5214981918     3.0125702900    -0.6721481620
    6      C       3.2065060220     3.6173900370    -0.1550472441
    7      H       3.4652032258    -0.3200046497    -0.5268550518
    8      H       2.0580658186     1.2318840290     0.7870224529
    9      H       1.9100755247     2.9374453857    -1.7535206412
   10      H       1.0574200452     3.2432620849    -0.2390232286
   11      H       4.7007307717     1.4030532379     0.7668416099
   12      H       5.5409675370     1.0900738362    -0.7501673717
   13      H       5.3793536716     3.5577983117    -0.2568549590
   14      H       4.5729862530     3.1362252523    -1.7637579503
   15      H       3.2102927464     3.6083422329     0.9463847813
   16      H       3.1241106316     4.6689050367    -0.4584950486
   17      H       3.3899761275     0.7465361807    -1.9306426252
   18      N       0.9303566810     0.5919726238    -0.7920832007
   19      H       0.7973273366     0.5154010322    -1.7943699182
   20      C       0.0028072491     0.0033956597     0.0070955761
   21      H      -0.7890390598    -0.5038770966    -0.5753155520
   22      O       0.0057616517     0.0087409951     1.2338122506
 ----------------------------------------------------------------
 Nuclear Repulsion Energy =         466.65985551 hartrees
 There are       35 alpha and       35 beta electrons
 Applying Cartesian multipole field
    Component          Value
    ---------          -----
     (0,0,1)        3.89000E-03
 Nucleus-field energy     =    -0.1532916143 hartrees
 Requested basis set is 6-31+G(d)
 There are 71 shells and 197 basis functions
 A cutoff of  1.0D-14 yielded   2413 shell pairs
 There are     18998 function pairs
 Smallest overlap matrix eigenvalue = 2.49E-05
 Guess MOs from SCF MO coefficient file

 -----------------------------------------------------------------------
  General SCF calculation program by
  Eric Jon Sundstrom, Paul Horn, Yuezhi Mao, Dmitri Zuev, Alec White,
  David Stuck, Shaama M.S., Shane Yost, Joonho Lee, David Small,
  Daniel Levine, Susi Lehtola, Hugh Burton, Evgeny Epifanovsky,
  Bang C. Huynh
 -----------------------------------------------------------------------
 Exchange:     0.2000 Hartree-Fock + 0.0800 Slater + 0.7200 B88
 Correlation:  0.1900 VWN1RPA + 0.8100 LYP
 Using Euler-Maclaurin-Lebedev (99,590) quadrature formula
 using 16 threads for integral computing
 -------------------------------------------------------
 OpenMP Integral computing Module                
 Release: version 2.0, May 2017, Q-Chem Inc. Pleasanton 
 -------------------------------------------------------
 A restricted SCF calculation will be
 performed using DIIS
 SCF converges when DIIS error is below 1.0e-09
 ---------------------------------------
  Cycle       Energy         DIIS error
 ---------------------------------------
    1    -404.5932015420      1.05e-04  
    2    -404.5932947906      1.85e-05  
    3    -404.5932936712      2.73e-05  
    4    -404.5932962456      8.00e-06  
    5    -404.5932964951      1.73e-06  
    6    -404.5932965081      1.96e-07  
    7    -404.5932965083      1.22e-07  
    8    -404.5932965083      2.19e-08  
    9    -404.5932965083      7.45e-09  
   10    -404.5932965083      1.95e-09  
   11    -404.5932965083      4.93e-10  Convergence criterion met
 ---------------------------------------
 SCF time:   CPU 523.06s  wall 33.00s 
 SCF   energy in the final basis set =     -404.5932965083
 Total energy in the final basis set =     -404.5932965083
 
 --------------------------------------------------------------
 
                    Orbital Energies (a.u.)
 --------------------------------------------------------------
 
 Alpha MOs
 -- Occupied --
-19.1275 -14.3721 -10.2910 -10.2303 -10.1905 -10.1903 -10.1900 -10.1899
-10.1867  -1.0372  -0.9332  -0.8318  -0.7498  -0.7483  -0.6412  -0.6197
 -0.5968  -0.5709  -0.5296  -0.4870  -0.4647  -0.4499  -0.4443  -0.4203
 -0.4164  -0.4019  -0.3868  -0.3766  -0.3541  -0.3528  -0.3307  -0.3209
 -0.3163  -0.2627  -0.2592
 -- Virtual --
  0.0010   0.0082   0.0130   0.0205   0.0244   0.0349   0.0455   0.0483
  0.0534   0.0653   0.0654   0.0796   0.0839   0.0879   0.0965   0.1004
  0.1065   0.1127   0.1219   0.1310   0.1364   0.1460   0.1516   0.1591
  0.1682   0.1757   0.1776   0.1835   0.1939   0.1993   0.2098   0.2117
  0.2161   0.2206   0.2298   0.2413   0.2466   0.2509   0.2616   0.2659
  0.2789   0.2825   0.2835   0.2868   0.2904   0.3061   0.3104   0.3240
  0.3248   0.3276   0.3572   0.3646   0.3807   0.3831   0.4102   0.4139
  0.4349   0.4541   0.4917   0.6037   0.6327   0.6506   0.6588   0.6626
  0.6775   0.6924   0.7244   0.7269   0.7444   0.7475   0.7723   0.7793
  0.7978   0.8002   0.8159   0.8436   0.8542   0.9037   0.9492   0.9684
  0.9728   0.9833   1.0135   1.0227   1.0271   1.0486   1.0825   1.0922
  1.1112   1.1146   1.1182   1.1455   1.1526   1.1636   1.1740   1.1837
  1.2349   1.2567   1.2911   1.3386   1.3403   1.3704   1.3847   1.4125
  1.4761   1.4863   1.4905   1.5621   1.5688   1.6117   1.7006   1.7241
  1.7273   1.7524   1.7685   1.8049   1.8523   1.8684   1.8971   1.9001
  1.9057   1.9380   1.9776   2.0059   2.0107   2.0404   2.0494   2.0832
  2.0861   2.1259   2.1961   2.2172   2.2760   2.3076   2.3090   2.3425
  2.3958   2.4049   2.4109   2.4151   2.4465   2.5606   2.5823   2.6222
  2.6663   2.6806   2.6988   2.7550   2.7729   2.8281   2.8654   3.0111
  3.1889   4.0880   4.1928   4.2360   4.2863   4.3281   4.4182   4.5957
  4.6006   4.6680
 --------------------------------------------------------------
 
          Ground-State Mulliken Net Atomic Charges

     Atom                 Charge (a.u.)
  ----------------------------------------
      1 C                    -0.234633
      2 C                    -0.521348
      3 C                    -0.256262
      4 C                    -0.434420
      5 C                    -0.370778
      6 C                    -0.437169
      7 H                     0.209242
      8 H                     0.231972
      9 H                     0.208183
     10 H                     0.207958
     11 H                     0.191378
     12 H                     0.203715
     13 H                     0.192299
     14 H                     0.209732
     15 H                     0.191165
     16 H                     0.201837
     17 H                     0.207796
     18 N                    -0.376887
     19 H                     0.406203
     20 C                     0.328957
     21 H                     0.150681
     22 O                    -0.509619
  ----------------------------------------
  Sum of atomic charges =     0.000000

 -----------------------------------------------------------------
                    Cartesian Multipole Moments
 -----------------------------------------------------------------
    Charge (ESU x 10^10)
                 0.0000
    Dipole Moment (Debye)
         X       1.7487      Y       1.1263      Z      -4.5354
       Tot       4.9896
    Quadrupole Moments (Debye-Ang)
        XX     -51.4603     XY       3.4785     YY     -54.6834
        XZ      -2.0519     YZ      -1.3874     ZZ     -57.3598
    Octopole Moments (Debye-Ang^2)
       XXX    -392.8957    XXY     -81.0014    XYY    -130.1597
       YYY    -263.7269    XXZ      10.1476    XYZ      -4.7588
       YYZ      14.3179    XZZ    -131.0573    YZZ     -86.3617
       ZZZ      38.3388
    Hexadecapole Moments (Debye-Ang^3)
      XXXX   -2981.5008   XXXY    -847.7550   XXYY    -744.2000
      XYYY    -859.4204   YYYY   -1514.5811   XXXZ     178.0170
      XXYZ      29.5283   XYYZ      58.1775   YYYZ     112.4228
      XXZZ    -540.1406   XYZZ    -283.6943   YYZZ    -297.2214
      XZZZ     196.2172   YZZZ     117.8943   ZZZZ    -254.9646
 -----------------------------------------------------------------
 Calculating analytic gradient of the SCF energy
 Gradient of SCF Energy
            1           2           3           4           5           6
    1   0.0000770  -0.0001092   0.0001723  -0.0000909   0.0001030  -0.0000739
    2   0.0000989  -0.0000493   0.0000254  -0.0000602   0.0000685  -0.0000873
    3   0.0000554  -0.0000257   0.0000764  -0.0000583   0.0001020  -0.0000490
            7           8           9          10          11          12
    1  -0.0000371  -0.0000910   0.0000036  -0.0000111   0.0000069  -0.0000006
    2   0.0000108  -0.0000468   0.0000026  -0.0000283   0.0000062  -0.0000331
    3  -0.0000086  -0.0000202  -0.0000187  -0.0000122   0.0000372   0.0000372
           13          14          15          16          17          18
    1   0.0000005  -0.0000061   0.0000058  -0.0000389   0.0000013   0.0004799
    2   0.0000065  -0.0000048   0.0000022   0.0000112   0.0000066   0.0003543
    3   0.0000223   0.0000459   0.0000336   0.0000368  -0.0000216  -0.0006334
           19          20          21          22
    1   0.0000154  -0.0003925   0.0000136  -0.0000281
    2   0.0000425  -0.0004240   0.0000568   0.0000414
    3  -0.0000285   0.0019781  -0.0003313  -0.0012175
 Max gradient component =       1.978E-03
 RMS gradient           =       3.200E-04
 Gradient time:  CPU 120.01 s  wall 7.64 s
 Geometry Optimization Parameters
   NAtoms,    NIC,     NZ,  NCons,   NDum,   NFix, NCnnct, MaxDiis
       22     172       0       0       0       0       0       0

 Cartesian Hessian Update
 Hessian updated using BFGS update


** GEOMETRY OPTIMIZATION IN DELOCALIZED INTERNAL COORDINATES **
   Searching for a Minimum

   Optimization Cycle:   2

                       Coordinates (Angstroms)
     ATOM                X               Y               Z
      1  C         1.9838542694    2.8333313920   -0.6601031649
      2  C         2.0898315820    1.3394663568   -0.3025896845
      3  C         3.4021673370    0.7325892205   -0.8297526041
      4  C         4.6241534713    1.5185652920   -0.3258261575
      5  C         4.5214981918    3.0125702900   -0.6721481620
      6  C         3.2065060220    3.6173900370   -0.1550472441
      7  H         3.4652032258   -0.3200046497   -0.5268550518
      8  H         2.0580658186    1.2318840290    0.7870224529
      9  H         1.9100755247    2.9374453857   -1.7535206412
     10  H         1.0574200452    3.2432620849   -0.2390232286
     11  H         4.7007307717    1.4030532379    0.7668416099
     12  H         5.5409675370    1.0900738362   -0.7501673717
     13  H         5.3793536716    3.5577983117   -0.2568549590
     14  H         4.5729862530    3.1362252523   -1.7637579503
     15  H         3.2102927464    3.6083422329    0.9463847813
     16  H         3.1241106316    4.6689050367   -0.4584950486
     17  H         3.3899761275    0.7465361807   -1.9306426252
     18  N         0.9303566810    0.5919726238   -0.7920832007
     19  H         0.7973273366    0.5154010322   -1.7943699182
     20  C         0.0028072491    0.0033956597    0.0070955761
     21  H        -0.7890390598   -0.5038770966   -0.5753155520
     22  O         0.0057616517    0.0087409951    1.2338122506
   Point Group: c1    Number of degrees of freedom:    60


   Energy is   -404.593296508

 Hessian updated using BFGS update

 60 Hessian modes will be used to form the next step
  Hessian Eigenvalues:
     0.005760    0.005976    0.006911    0.007177    0.012604    0.019499
     0.019647    0.020845    0.021053    0.037144    0.038512    0.039416
     0.041748    0.048199    0.048448    0.048876    0.055293    0.055727
     0.055987    0.060061    0.066959    0.081175    0.081533    0.081608
     0.082033    0.082132    0.084197    0.087492    0.120965    0.121324
     0.142952    0.159752    0.160047    0.161576    0.174984    0.211083
     0.219996    0.222704    0.272023    0.272754    0.275546    0.286794
     0.287025    0.287413    0.327682    0.334535    0.334863    0.336022
     0.336546    0.339253    0.339412    0.339435    0.340101    0.340241
     0.342114    0.345338    0.366138    0.454179    0.483519    0.840739

 Minimum search - taking simple RFO step
 Searching for Lamda that Minimizes Along All modes
 Value Taken    Lamda =  -0.00000666
 Step Taken.  Stepsize is  0.015535

                             Maximum     Tolerance    Cnvgd?
         Gradient           0.000829      0.000100      NO
         Displacement       0.006241      0.000100      NO
         Energy change     -0.000038      0.000000      NO


 New Cartesian Coordinates Obtained by Inverse Iteration

 Displacement from previous Coordinates is:  0.025136
 ----------------------------------------------------------------
             Standard Nuclear Orientation (Angstroms)
    I     Atom           X                Y                Z
 ----------------------------------------------------------------
    1      C       1.9838327878     2.8330385909    -0.6620835494
    2      C       2.0900756035     1.3393686015    -0.3040567693
    3      C       3.4020258465     0.7328215409    -0.8321657165
    4      C       4.6236623647     1.5181397182    -0.3259360630
    5      C       4.5214046913     3.0125318189    -0.6704271402
    6      C       3.2057501491     3.6170918389    -0.1548370443
    7      H       3.4652281191    -0.3202534279    -0.5308762673
    8      H       2.0601545210     1.2327749088     0.7857245188
    9      H       1.9117048989     2.9373202804    -1.7554922921
   10      H       1.0568373121     3.2430227254    -0.2422398366
   11      H       4.6988466474     1.4009455354     0.7666991744
   12      H       5.5409968695     1.0905438939    -0.7499723818
   13      H       5.3785039417     3.5569922153    -0.2525070100
   14      H       4.5753025836     3.1379333326    -1.7616692733
   15      H       3.2076723129     3.6072162697     0.9466499580
   16      H       3.1241668699     4.6687486152    -0.4578994657
   17      H       3.3904982442     0.7485771476    -1.9329272056
   18      N       0.9299024359     0.5912663000    -0.7915580219
   19      H       0.7966220658     0.5123394704    -1.7936768053
   20      C       0.0026645567     0.0056611494     0.0083779768
   21      H      -0.7891895568    -0.5049527847    -0.5705918787
   22      O       0.0077438200     0.0119389998     1.2360691993
 ----------------------------------------------------------------
 Nuclear Repulsion Energy =         466.68468262 hartrees
 There are       35 alpha and       35 beta electrons
 Applying Cartesian multipole field
    Component          Value
    ---------          -----
     (0,0,1)        3.89000E-03
 Nucleus-field energy     =    -0.1532536433 hartrees
 Requested basis set is 6-31+G(d)
 There are 71 shells and 197 basis functions
 A cutoff of  1.0D-14 yielded   2413 shell pairs
 There are     18998 function pairs
 Smallest overlap matrix eigenvalue = 2.49E-05
 Guess MOs from SCF MO coefficient file

 -----------------------------------------------------------------------
  General SCF calculation program by
  Eric Jon Sundstrom, Paul Horn, Yuezhi Mao, Dmitri Zuev, Alec White,
  David Stuck, Shaama M.S., Shane Yost, Joonho Lee, David Small,
  Daniel Levine, Susi Lehtola, Hugh Burton, Evgeny Epifanovsky,
  Bang C. Huynh
 -----------------------------------------------------------------------
 Exchange:     0.2000 Hartree-Fock + 0.0800 Slater + 0.7200 B88
 Correlation:  0.1900 VWN1RPA + 0.8100 LYP
 Using Euler-Maclaurin-Lebedev (99,590) quadrature formula
 using 16 threads for integral computing
 -------------------------------------------------------
 OpenMP Integral computing Module                
 Release: version 2.0, May 2017, Q-Chem Inc. Pleasanton 
 -------------------------------------------------------
 A restricted SCF calculation will be
 performed using DIIS
 SCF converges when DIIS error is below 1.0e-09
 ---------------------------------------
  Cycle       Energy         DIIS error
 ---------------------------------------
    1    -404.5932869958      3.78e-05  
    2    -404.5932987248      9.82e-06  
    3    -404.5932979776      1.75e-05  
    4    -404.5932990917      2.62e-06  
    5    -404.5932991203      5.79e-07  
    6    -404.5932991217      1.51e-07  
    7    -404.5932991218      5.52e-08  
    8    -404.5932991218      1.44e-08  
    9    -404.5932991218      2.37e-09  
   10    -404.5932991218      8.32e-10  Convergence criterion met
 ---------------------------------------
 SCF time:   CPU 478.09s  wall 30.00s 
 SCF   energy in the final basis set =     -404.5932991218
 Total energy in the final basis set =     -404.5932991218
 
 --------------------------------------------------------------
 
                    Orbital Energies (a.u.)
 --------------------------------------------------------------
 
 Alpha MOs
 -- Occupied --
-19.1272 -14.3723 -10.2910 -10.2304 -10.1906 -10.1903 -10.1901 -10.1899
-10.1867  -1.0367  -0.9333  -0.8319  -0.7498  -0.7484  -0.6413  -0.6197
 -0.5969  -0.5709  -0.5298  -0.4871  -0.4646  -0.4499  -0.4443  -0.4203
 -0.4162  -0.4019  -0.3869  -0.3765  -0.3541  -0.3528  -0.3307  -0.3209
 -0.3163  -0.2625  -0.2592
 -- Virtual --
  0.0010   0.0081   0.0130   0.0205   0.0244   0.0349   0.0455   0.0483
  0.0534   0.0653   0.0654   0.0796   0.0839   0.0879   0.0965   0.1004
  0.1064   0.1126   0.1219   0.1310   0.1364   0.1460   0.1515   0.1592
  0.1682   0.1756   0.1776   0.1835   0.1940   0.1992   0.2097   0.2117
  0.2161   0.2206   0.2299   0.2413   0.2466   0.2509   0.2615   0.2658
  0.2788   0.2824   0.2835   0.2868   0.2904   0.3060   0.3105   0.3242
  0.3250   0.3276   0.3571   0.3647   0.3808   0.3834   0.4101   0.4140
  0.4349   0.4543   0.4913   0.6037   0.6326   0.6506   0.6588   0.6626
  0.6775   0.6924   0.7243   0.7268   0.7445   0.7475   0.7724   0.7793
  0.7978   0.8001   0.8158   0.8436   0.8543   0.9037   0.9491   0.9684
  0.9728   0.9834   1.0135   1.0226   1.0272   1.0483   1.0822   1.0921
  1.1112   1.1146   1.1182   1.1456   1.1525   1.1635   1.1742   1.1838
  1.2348   1.2568   1.2913   1.3390   1.3403   1.3706   1.3846   1.4127
  1.4758   1.4863   1.4908   1.5616   1.5689   1.6114   1.7008   1.7243
  1.7271   1.7523   1.7687   1.8050   1.8524   1.8685   1.8973   1.9000
  1.9056   1.9381   1.9779   2.0058   2.0107   2.0405   2.0493   2.0829
  2.0860   2.1262   2.1961   2.2170   2.2765   2.3077   2.3094   2.3423
  2.3958   2.4046   2.4108   2.4150   2.4466   2.5604   2.5824   2.6218
  2.6663   2.6806   2.6986   2.7551   2.7733   2.8281   2.8652   3.0103
  3.1888   4.0881   4.1930   4.2358   4.2862   4.3281   4.4178   4.5959
  4.6008   4.6679
 --------------------------------------------------------------
 
          Ground-State Mulliken Net Atomic Charges

     Atom                 Charge (a.u.)
  ----------------------------------------
      1 C                    -0.234121
      2 C                    -0.522863
      3 C                    -0.256687
      4 C                    -0.433952
      5 C                    -0.370931
      6 C                    -0.436766
      7 H                     0.209302
      8 H                     0.232205
      9 H                     0.208264
     10 H                     0.207988
     11 H                     0.191429
     12 H                     0.203720
     13 H                     0.192273
     14 H                     0.209781
     15 H                     0.191208
     16 H                     0.201840
     17 H                     0.207878
     18 N                    -0.375918
     19 H                     0.406236
     20 C                     0.328688
     21 H                     0.150916
     22 O                    -0.510488
  ----------------------------------------
  Sum of atomic charges =     0.000000

 -----------------------------------------------------------------
                    Cartesian Multipole Moments
 -----------------------------------------------------------------
    Charge (ESU x 10^10)
                -0.0000
    Dipole Moment (Debye)
         X       1.7508      Y       1.1223      Z      -4.5475
       Tot       5.0005
    Quadrupole Moments (Debye-Ang)
        XX     -51.4390     XY       3.4887     YY     -54.6754
        XZ      -2.0637     YZ      -1.3942     ZZ     -57.3794
    Octopole Moments (Debye-Ang^2)
       XXX    -392.8197    XXY     -80.9947    XYY    -130.1405
       YYY    -263.7536    XXZ      10.1224    XYZ      -4.7594
       YYZ      14.3042    XZZ    -131.0427    YZZ     -86.4001
       ZZZ      38.2790
    Hexadecapole Moments (Debye-Ang^3)
      XXXX   -2980.8287   XXXY    -847.5540   XXYY    -744.0441
      XYYY    -859.2192   YYYY   -1514.2192   XXXZ     177.9923
      XXYZ      29.4761   XYYZ      58.1667   YYYZ     112.3476
      XXZZ    -540.0561   XYZZ    -283.6126   YYZZ    -297.2261
      XZZZ     196.2442   YZZZ     117.8447   ZZZZ    -255.3767
 -----------------------------------------------------------------
 Calculating analytic gradient of the SCF energy
 Gradient of SCF Energy
            1           2           3           4           5           6
    1   0.0000638  -0.0000449   0.0000734  -0.0000227   0.0000043  -0.0000304
    2  -0.0000030  -0.0000583   0.0000669  -0.0000270   0.0000040  -0.0000072
    3  -0.0000349  -0.0000480  -0.0000149  -0.0000207  -0.0000060  -0.0000260
            7           8           9          10          11          12
    1  -0.0000078  -0.0000085   0.0000149  -0.0000160  -0.0000118  -0.0000035
    2  -0.0000077   0.0000081   0.0000172   0.0000027  -0.0000108   0.0000068
    3  -0.0000169   0.0000166   0.0000373  -0.0000160   0.0000795   0.0000306
           13          14          15          16          17          18
    1  -0.0000064   0.0000232  -0.0000148   0.0000024   0.0000185   0.0001116
    2  -0.0000029   0.0000121  -0.0000183  -0.0000010   0.0000011  -0.0000174
    3   0.0000447   0.0000729   0.0000785   0.0000277   0.0000417  -0.0000288
           19          20          21          22
    1  -0.0000143  -0.0003542   0.0001029   0.0001204
    2  -0.0000247   0.0003383  -0.0001276  -0.0001512
    3  -0.0000450   0.0000163  -0.0001101  -0.0000783
 Max gradient component =       3.542E-04
 RMS gradient           =       7.727E-05
 Gradient time:  CPU 120.28 s  wall 7.65 s
 Geometry Optimization Parameters
   NAtoms,    NIC,     NZ,  NCons,   NDum,   NFix, NCnnct, MaxDiis
       22     172       0       0       0       0       0       0

 Cartesian Hessian Update
 Hessian updated using BFGS update


** GEOMETRY OPTIMIZATION IN DELOCALIZED INTERNAL COORDINATES **
   Searching for a Minimum

   Optimization Cycle:   3

                       Coordinates (Angstroms)
     ATOM                X               Y               Z
      1  C         1.9838327878    2.8330385909   -0.6620835494
      2  C         2.0900756035    1.3393686015   -0.3040567693
      3  C         3.4020258465    0.7328215409   -0.8321657165
      4  C         4.6236623647    1.5181397182   -0.3259360630
      5  C         4.5214046913    3.0125318189   -0.6704271402
      6  C         3.2057501491    3.6170918389   -0.1548370443
      7  H         3.4652281191   -0.3202534279   -0.5308762673
      8  H         2.0601545210    1.2327749088    0.7857245188
      9  H         1.9117048989    2.9373202804   -1.7554922921
     10  H         1.0568373121    3.2430227254   -0.2422398366
     11  H         4.6988466474    1.4009455354    0.7666991744
     12  H         5.5409968695    1.0905438939   -0.7499723818
     13  H         5.3785039417    3.5569922153   -0.2525070100
     14  H         4.5753025836    3.1379333326   -1.7616692733
     15  H         3.2076723129    3.6072162697    0.9466499580
     16  H         3.1241668699    4.6687486152   -0.4578994657
     17  H         3.3904982442    0.7485771476   -1.9329272056
     18  N         0.9299024359    0.5912663000   -0.7915580219
     19  H         0.7966220658    0.5123394704   -1.7936768053
     20  C         0.0026645567    0.0056611494    0.0083779768
     21  H        -0.7891895568   -0.5049527847   -0.5705918787
     22  O         0.0077438200    0.0119389998    1.2360691993
   Point Group: c1    Number of degrees of freedom:    60


   Energy is   -404.593299122

 Hessian updated using BFGS update

 60 Hessian modes will be used to form the next step
  Hessian Eigenvalues:
     0.005185    0.005974    0.006787    0.007108    0.012598    0.019491
     0.019612    0.020841    0.031868    0.038222    0.039101    0.039475
     0.042847    0.048334    0.048462    0.049150    0.055297    0.055728
     0.056066    0.060074    0.066967    0.080837    0.081536    0.081611
     0.082083    0.082133    0.084083    0.087546    0.120760    0.120970
     0.143069    0.148243    0.160562    0.161487    0.174901    0.210942
     0.219961    0.225591    0.271840    0.272813    0.275542    0.285338
     0.286860    0.287293    0.326492    0.334570    0.334950    0.336012
     0.336546    0.339202    0.339415    0.339436    0.340121    0.340240
     0.342116    0.347109    0.365337    0.453066    0.456630    0.815748

 Minimum search - taking simple RFO step
 Searching for Lamda that Minimizes Along All modes
 Value Taken    Lamda =  -0.00000405
 Step Taken.  Stepsize is  0.014045

                             Maximum     Tolerance    Cnvgd?
         Gradient           0.000265      0.000100      NO
         Displacement       0.006479      0.000100      NO
         Energy change     -0.000003      0.000000      NO


 New Cartesian Coordinates Obtained by Inverse Iteration

 Displacement from previous Coordinates is:  0.025064
 ----------------------------------------------------------------
             Standard Nuclear Orientation (Angstroms)
    I     Atom           X                Y                Z
 ----------------------------------------------------------------
    1      C       1.9835487698     2.8317723079    -0.6624254761
    2      C       2.0910249508     1.3381650387    -0.3046105111
    3      C       3.4029210537     0.7326433428    -0.8337221991
    4      C       4.6240960628     1.5182960436    -0.3265269186
    5      C       4.5210168103     3.0129077641    -0.6696366650
    6      C       3.2048344925     3.6164583476    -0.1542979267
    7      H       3.4670033947    -0.3206722817    -0.5334306768
    8      H       2.0622166126     1.2316198468     0.7851760374
    9      H       1.9118066199     2.9363389521    -1.7558412892
   10      H       1.0562157141     3.2410889701    -0.2426900313
   11      H       4.6989461185     1.3999755470     0.7659446948
   12      H       5.5418639655     1.0918268574    -0.7507484440
   13      H       5.3775182811     3.5573481466    -0.2504197577
   14      H       4.5757508321     3.1395172879    -1.7607342832
   15      H       3.2061221372     3.6059610054     0.9471230234
   16      H       3.1229668710     4.6682127671    -0.4568875849
   17      H       3.3913833559     0.7496109094    -1.9344758457
   18      N       0.9309996467     0.5891102985    -0.7913013786
   19      H       0.7982844053     0.5086022249    -1.7933725927
   20      C       0.0031856398     0.0060205056     0.0088025629
   21      H      -0.7918631572    -0.5014348031    -0.5682855049
   22      O       0.0045645077     0.0196976620     1.2369648735
 ----------------------------------------------------------------
 Nuclear Repulsion Energy =         466.70059181 hartrees
 There are       35 alpha and       35 beta electrons
 Applying Cartesian multipole field
    Component          Value
    ---------          -----
     (0,0,1)        3.89000E-03
 Nucleus-field energy     =    -0.1532436059 hartrees
 Requested basis set is 6-31+G(d)
 There are 71 shells and 197 basis functions
 A cutoff of  1.0D-14 yielded   2412 shell pairs
 There are     18997 function pairs
 Smallest overlap matrix eigenvalue = 2.49E-05
 Guess MOs from SCF MO coefficient file

 -----------------------------------------------------------------------
  General SCF calculation program by
  Eric Jon Sundstrom, Paul Horn, Yuezhi Mao, Dmitri Zuev, Alec White,
  David Stuck, Shaama M.S., Shane Yost, Joonho Lee, David Small,
  Daniel Levine, Susi Lehtola, Hugh Burton, Evgeny Epifanovsky,
  Bang C. Huynh
 -----------------------------------------------------------------------
 Exchange:     0.2000 Hartree-Fock + 0.0800 Slater + 0.7200 B88
 Correlation:  0.1900 VWN1RPA + 0.8100 LYP
 Using Euler-Maclaurin-Lebedev (99,590) quadrature formula
 using 16 threads for integral computing
 -------------------------------------------------------
 OpenMP Integral computing Module                
 Release: version 2.0, May 2017, Q-Chem Inc. Pleasanton 
 -------------------------------------------------------
 A restricted SCF calculation will be
 performed using DIIS
 SCF converges when DIIS error is below 1.0e-09
 ---------------------------------------
  Cycle       Energy         DIIS error
 ---------------------------------------
    1    -404.5932619884      6.31e-05  
    2    -404.5932968778      1.02e-05  
    3    -404.5932967742      1.37e-05  
    4    -404.5932973825      4.80e-06  
    5    -404.5932974730      4.92e-07  
    6    -404.5932974739      2.74e-07  
    7    -404.5932974742      5.61e-08  
    8    -404.5932974742      1.77e-08  
    9    -404.5932974742      4.46e-09  
   10    -404.5932974742      7.29e-10  Convergence criterion met
 ---------------------------------------
 SCF time:   CPU 483.73s  wall 30.00s 
 SCF   energy in the final basis set =     -404.5932974742
 Total energy in the final basis set =     -404.5932974742
 
 --------------------------------------------------------------
 
                    Orbital Energies (a.u.)
 --------------------------------------------------------------
 
 Alpha MOs
 -- Occupied --
-19.1271 -14.3723 -10.2909 -10.2304 -10.1906 -10.1903 -10.1901 -10.1899
-10.1867  -1.0364  -0.9334  -0.8319  -0.7498  -0.7484  -0.6414  -0.6197
 -0.5970  -0.5709  -0.5298  -0.4871  -0.4646  -0.4500  -0.4443  -0.4203
 -0.4160  -0.4019  -0.3869  -0.3764  -0.3541  -0.3528  -0.3307  -0.3209
 -0.3163  -0.2624  -0.2592
 -- Virtual --
  0.0010   0.0081   0.0129   0.0205   0.0244   0.0349   0.0454   0.0483
  0.0533   0.0653   0.0654   0.0796   0.0839   0.0879   0.0965   0.1004
  0.1064   0.1126   0.1219   0.1310   0.1364   0.1460   0.1515   0.1592
  0.1683   0.1756   0.1776   0.1835   0.1939   0.1992   0.2097   0.2117
  0.2161   0.2206   0.2299   0.2413   0.2466   0.2508   0.2615   0.2658
  0.2788   0.2824   0.2835   0.2868   0.2904   0.3059   0.3105   0.3242
  0.3251   0.3277   0.3570   0.3647   0.3808   0.3837   0.4101   0.4140
  0.4348   0.4543   0.4911   0.6037   0.6326   0.6506   0.6588   0.6626
  0.6775   0.6925   0.7243   0.7268   0.7441   0.7479   0.7723   0.7793
  0.7978   0.8001   0.8157   0.8438   0.8543   0.9038   0.9491   0.9684
  0.9728   0.9834   1.0135   1.0225   1.0272   1.0482   1.0821   1.0921
  1.1112   1.1146   1.1182   1.1457   1.1525   1.1635   1.1743   1.1839
  1.2348   1.2567   1.2914   1.3386   1.3411   1.3708   1.3845   1.4127
  1.4760   1.4861   1.4906   1.5617   1.5688   1.6112   1.7010   1.7244
  1.7271   1.7523   1.7688   1.8051   1.8522   1.8688   1.8973   1.9002
  1.9055   1.9380   1.9779   2.0058   2.0108   2.0406   2.0493   2.0829
  2.0860   2.1263   2.1961   2.2168   2.2769   2.3080   2.3091   2.3421
  2.3957   2.4044   2.4108   2.4151   2.4466   2.5604   2.5825   2.6216
  2.6663   2.6805   2.6986   2.7552   2.7734   2.8280   2.8651   3.0099
  3.1888   4.0883   4.1931   4.2358   4.2862   4.3281   4.4176   4.5960
  4.6009   4.6679
 --------------------------------------------------------------
 
          Ground-State Mulliken Net Atomic Charges

     Atom                 Charge (a.u.)
  ----------------------------------------
      1 C                    -0.233940
      2 C                    -0.523302
      3 C                    -0.256868
      4 C                    -0.433686
      5 C                    -0.371039
      6 C                    -0.436681
      7 H                     0.209286
      8 H                     0.232287
      9 H                     0.208292
     10 H                     0.208091
     11 H                     0.191453
     12 H                     0.203724
     13 H                     0.192258
     14 H                     0.209795
     15 H                     0.191261
     16 H                     0.201850
     17 H                     0.207892
     18 N                    -0.375528
     19 H                     0.406285
     20 C                     0.328433
     21 H                     0.151044
     22 O                    -0.510907
  ----------------------------------------
  Sum of atomic charges =     0.000000

 -----------------------------------------------------------------
                    Cartesian Multipole Moments
 -----------------------------------------------------------------
    Charge (ESU x 10^10)
                 0.0000
    Dipole Moment (Debye)
         X       1.7604      Y       1.1094      Z      -4.5531
       Tot       5.0061
    Quadrupole Moments (Debye-Ang)
        XX     -51.4283     XY       3.4943     YY     -54.6698
        XZ      -2.0551     YZ      -1.4175     ZZ     -57.3883
    Octopole Moments (Debye-Ang^2)
       XXX    -392.7822    XXY     -80.9972    XYY    -130.1207
       YYY    -263.7682    XXZ      10.1125    XYZ      -4.7544
       YYZ      14.3068    XZZ    -131.0092    YZZ     -86.4560
       ZZZ      38.2537
    Hexadecapole Moments (Debye-Ang^3)
      XXXX   -2981.0101   XXXY    -847.3445   XXYY    -743.9624
      XYYY    -858.9875   YYYY   -1513.4793   XXXZ     178.1678
      XXYZ      29.3861   XYYZ      58.2345   YYYZ     112.0964
      XXZZ    -540.0792   XYZZ    -283.5393   YYZZ    -297.1557
      XZZZ     196.4138   YZZZ     117.5837   ZZZZ    -255.5606
 -----------------------------------------------------------------
 Calculating analytic gradient of the SCF energy
 Gradient of SCF Energy
            1           2           3           4           5           6
    1   0.0000371  -0.0000233  -0.0000365   0.0000234  -0.0000508   0.0000079
    2  -0.0000608   0.0000115   0.0000226   0.0000084  -0.0000354   0.0000471
    3  -0.0000509  -0.0000300  -0.0000382   0.0000499  -0.0000228   0.0000326
            7           8           9          10          11          12
    1   0.0000146   0.0000332   0.0000216  -0.0000113  -0.0000259   0.0000030
    2  -0.0000113   0.0000166   0.0000234   0.0000210  -0.0000189   0.0000228
    3  -0.0000118   0.0000077   0.0000258  -0.0000119   0.0000433   0.0000309
           13          14          15          16          17          18
    1  -0.0000095   0.0000346  -0.0000274   0.0000264   0.0000258  -0.0002601
    2  -0.0000088   0.0000213  -0.0000238  -0.0000044   0.0000097   0.0000500
    3   0.0000658   0.0000469   0.0000462   0.0000305   0.0000318   0.0002724
           19          20          21          22
    1  -0.0000517   0.0006131  -0.0001606  -0.0001833
    2   0.0000340  -0.0006114   0.0002233   0.0002632
    3  -0.0000405  -0.0010196   0.0000451   0.0004967
 Max gradient component =       1.020E-03
 RMS gradient           =       1.912E-04
 Gradient time:  CPU 120.23 s  wall 7.63 s
 Geometry Optimization Parameters
   NAtoms,    NIC,     NZ,  NCons,   NDum,   NFix, NCnnct, MaxDiis
       22     172       0       0       0       0       0       0

 Cartesian Hessian Update
 Hessian updated using BFGS update


** GEOMETRY OPTIMIZATION IN DELOCALIZED INTERNAL COORDINATES **
   Searching for a Minimum

   Optimization Cycle:   4

                       Coordinates (Angstroms)
     ATOM                X               Y               Z
      1  C         1.9835487698    2.8317723079   -0.6624254761
      2  C         2.0910249508    1.3381650387   -0.3046105111
      3  C         3.4029210537    0.7326433428   -0.8337221991
      4  C         4.6240960628    1.5182960436   -0.3265269186
      5  C         4.5210168103    3.0129077641   -0.6696366650
      6  C         3.2048344925    3.6164583476   -0.1542979267
      7  H         3.4670033947   -0.3206722817   -0.5334306768
      8  H         2.0622166126    1.2316198468    0.7851760374
      9  H         1.9118066199    2.9363389521   -1.7558412892
     10  H         1.0562157141    3.2410889701   -0.2426900313
     11  H         4.6989461185    1.3999755470    0.7659446948
     12  H         5.5418639655    1.0918268574   -0.7507484440
     13  H         5.3775182811    3.5573481466   -0.2504197577
     14  H         4.5757508321    3.1395172879   -1.7607342832
     15  H         3.2061221372    3.6059610054    0.9471230234
     16  H         3.1229668710    4.6682127671   -0.4568875849
     17  H         3.3913833559    0.7496109094   -1.9344758457
     18  N         0.9309996467    0.5891102985   -0.7913013786
     19  H         0.7982844053    0.5086022249   -1.7933725927
     20  C         0.0031856398    0.0060205056    0.0088025629
     21  H        -0.7918631572   -0.5014348031   -0.5682855049
     22  O         0.0045645077    0.0196976620    1.2369648735
   Point Group: c1    Number of degrees of freedom:    60


   Energy is   -404.593297474

 Hessian updated using BFGS update

 60 Hessian modes will be used to form the next step
  Hessian Eigenvalues:
     0.005659    0.005974    0.006672    0.006985    0.012589    0.019499
     0.019771    0.020846    0.037255    0.038531    0.039418    0.041819
     0.048126    0.048448    0.048914    0.055279    0.055713    0.055988
     0.060052    0.066908    0.080817    0.081506    0.081569    0.082016
     0.082128    0.084075    0.085281    0.087744    0.120965    0.121008
     0.143044    0.151245    0.160543    0.161224    0.175046    0.210969
     0.220000    0.224652    0.271986    0.272752    0.275550    0.285758
     0.286834    0.287338    0.327078    0.334559    0.334934    0.335986
     0.336547    0.339133    0.339418    0.339435    0.340117    0.340252
     0.342115    0.344785    0.365641    0.454356    0.470567    0.832410

 Minimum search - taking simple RFO step
 Searching for Lamda that Minimizes Along All modes
 Value Taken    Lamda =  -0.00000509
 Step Taken.  Stepsize is  0.009446

                             Maximum     Tolerance    Cnvgd?
         Gradient           0.000471      0.000100      NO
         Displacement       0.004971      0.000100      NO
         Energy change      0.000002      0.000000      NO


 New Cartesian Coordinates Obtained by Inverse Iteration

 Displacement from previous Coordinates is:  0.014395
 ----------------------------------------------------------------
             Standard Nuclear Orientation (Angstroms)
    I     Atom           X                Y                Z
 ----------------------------------------------------------------
    1      C       1.9835795988     2.8322869844    -0.6614920465
    2      C       2.0906812667     1.3385847024    -0.3038640067
    3      C       3.4026379314     0.7325876808    -0.8324709665
    4      C       4.6241419761     1.5183666854    -0.3264347264
    5      C       4.5211677310     3.0128130163    -0.6704499863
    6      C       3.2053870803     3.6167566330    -0.1544626354
    7      H       3.4664309915    -0.3204882941    -0.5313392086
    8      H       2.0608028721     1.2315741625     0.7858306130
    9      H       1.9110673134     2.9367255106    -1.7549174703
   10      H       1.0565922645     3.2417443875    -0.2411707459
   11      H       4.6996549799     1.4008644614     0.7660541793
   12      H       5.5415594359     1.0912608105    -0.7508127226
   13      H       5.3781519830     3.5574926293    -0.2525444480
   14      H       4.5747533606     3.1385058140    -1.7617279703
   15      H       3.2075428208     3.6067634596     0.9469313252
   16      H       3.1232991261     4.6684242064    -0.4573452046
   17      H       3.3908177312     0.7486268469    -1.9332902658
   18      N       0.9308494868     0.5900888668    -0.7915653097
   19      H       0.7988494097     0.5100288627    -1.7937475169
   20      C       0.0022956575     0.0065045657     0.0081605755
   21      H      -0.7903543137    -0.5030047107    -0.5706370595
   22      O       0.0044983815     0.0165594594     1.2358997032
 ----------------------------------------------------------------
 Nuclear Repulsion Energy =         466.68725353 hartrees
 There are       35 alpha and       35 beta electrons
 Applying Cartesian multipole field
    Component          Value
    ---------          -----
     (0,0,1)        3.89000E-03
 Nucleus-field energy     =    -0.1532584776 hartrees
 Requested basis set is 6-31+G(d)
 There are 71 shells and 197 basis functions
 A cutoff of  1.0D-14 yielded   2412 shell pairs
 There are     18997 function pairs
 Smallest overlap matrix eigenvalue = 2.49E-05
 Guess MOs from SCF MO coefficient file

 -----------------------------------------------------------------------
  General SCF calculation program by
  Eric Jon Sundstrom, Paul Horn, Yuezhi Mao, Dmitri Zuev, Alec White,
  David Stuck, Shaama M.S., Shane Yost, Joonho Lee, David Small,
  Daniel Levine, Susi Lehtola, Hugh Burton, Evgeny Epifanovsky,
  Bang C. Huynh
 -----------------------------------------------------------------------
 Exchange:     0.2000 Hartree-Fock + 0.0800 Slater + 0.7200 B88
 Correlation:  0.1900 VWN1RPA + 0.8100 LYP
 Using Euler-Maclaurin-Lebedev (99,590) quadrature formula
 using 16 threads for integral computing
 -------------------------------------------------------
 OpenMP Integral computing Module                
 Release: version 2.0, May 2017, Q-Chem Inc. Pleasanton 
 -------------------------------------------------------
 A restricted SCF calculation will be
 performed using DIIS
 SCF converges when DIIS error is below 1.0e-09
 ---------------------------------------
  Cycle       Energy         DIIS error
 ---------------------------------------
    1    -404.5932919486      3.10e-05  
    2    -404.5932999035      5.89e-06  
    3    -404.5932997494      9.28e-06  
    4    -404.5933000469      2.38e-06  
    5    -404.5933000694      3.62e-07  
    6    -404.5933000699      1.24e-07  
    7    -404.5933000700      3.93e-08  
    8    -404.5933000700      1.14e-08  
    9    -404.5933000700      2.28e-09  
   10    -404.5933000700      7.10e-10  Convergence criterion met
 ---------------------------------------
 SCF time:   CPU 488.25s  wall 31.00s 
 SCF   energy in the final basis set =     -404.5933000700
 Total energy in the final basis set =     -404.5933000700
 
 --------------------------------------------------------------
 
                    Orbital Energies (a.u.)
 --------------------------------------------------------------
 
 Alpha MOs
 -- Occupied --
-19.1272 -14.3723 -10.2909 -10.2304 -10.1906 -10.1903 -10.1901 -10.1899
-10.1867  -1.0367  -0.9333  -0.8319  -0.7498  -0.7484  -0.6413  -0.6197
 -0.5969  -0.5709  -0.5298  -0.4871  -0.4647  -0.4500  -0.4443  -0.4203
 -0.4161  -0.4019  -0.3869  -0.3765  -0.3541  -0.3528  -0.3307  -0.3209
 -0.3163  -0.2625  -0.2592
 -- Virtual --
  0.0010   0.0081   0.0130   0.0205   0.0244   0.0349   0.0454   0.0483
  0.0534   0.0653   0.0654   0.0796   0.0839   0.0879   0.0965   0.1004
  0.1064   0.1126   0.1219   0.1310   0.1364   0.1460   0.1515   0.1592
  0.1682   0.1756   0.1776   0.1835   0.1939   0.1992   0.2097   0.2117
  0.2161   0.2206   0.2299   0.2413   0.2466   0.2508   0.2615   0.2658
  0.2788   0.2824   0.2835   0.2868   0.2904   0.3060   0.3105   0.3241
  0.3250   0.3277   0.3571   0.3647   0.3808   0.3835   0.4101   0.4140
  0.4348   0.4542   0.4913   0.6037   0.6327   0.6506   0.6588   0.6626
  0.6775   0.6924   0.7243   0.7268   0.7443   0.7477   0.7723   0.7793
  0.7977   0.8001   0.8157   0.8437   0.8543   0.9038   0.9491   0.9684
  0.9728   0.9834   1.0135   1.0226   1.0272   1.0484   1.0823   1.0922
  1.1112   1.1146   1.1182   1.1456   1.1525   1.1635   1.1742   1.1838
  1.2348   1.2568   1.2913   1.3388   1.3405   1.3705   1.3846   1.4126
  1.4758   1.4863   1.4906   1.5618   1.5688   1.6114   1.7009   1.7243
  1.7271   1.7523   1.7687   1.8050   1.8524   1.8686   1.8973   1.9001
  1.9055   1.9380   1.9777   2.0058   2.0108   2.0405   2.0494   2.0830
  2.0861   2.1262   2.1961   2.2169   2.2766   2.3078   2.3091   2.3423
  2.3957   2.4045   2.4108   2.4151   2.4465   2.5604   2.5824   2.6218
  2.6663   2.6806   2.6987   2.7551   2.7732   2.8280   2.8652   3.0103
  3.1888   4.0882   4.1930   4.2359   4.2863   4.3281   4.4178   4.5959
  4.6008   4.6679
 --------------------------------------------------------------
 
          Ground-State Mulliken Net Atomic Charges

     Atom                 Charge (a.u.)
  ----------------------------------------
      1 C                    -0.233825
      2 C                    -0.522676
      3 C                    -0.256984
      4 C                    -0.433925
      5 C                    -0.370948
      6 C                    -0.436870
      7 H                     0.209297
      8 H                     0.232190
      9 H                     0.208259
     10 H                     0.208035
     11 H                     0.191438
     12 H                     0.203725
     13 H                     0.192274
     14 H                     0.209770
     15 H                     0.191233
     16 H                     0.201846
     17 H                     0.207847
     18 N                    -0.375980
     19 H                     0.406276
     20 C                     0.328619
     21 H                     0.150918
     22 O                    -0.510517
  ----------------------------------------
  Sum of atomic charges =     0.000000

 -----------------------------------------------------------------
                    Cartesian Multipole Moments
 -----------------------------------------------------------------
    Charge (ESU x 10^10)
                -0.0000
    Dipole Moment (Debye)
         X       1.7586      Y       1.1138      Z      -4.5476
       Tot       5.0014
    Quadrupole Moments (Debye-Ang)
        XX     -51.4364     XY       3.4886     YY     -54.6750
        XZ      -2.0553     YZ      -1.4062     ZZ     -57.3785
    Octopole Moments (Debye-Ang^2)
       XXX    -392.7867    XXY     -81.0079    XYY    -130.1321
       YYY    -263.7856    XXZ      10.1202    XYZ      -4.7542
       YYZ      14.3136    XZZ    -131.0100    YZZ     -86.4442
       ZZZ      38.2804
    Hexadecapole Moments (Debye-Ang^3)
      XXXX   -2981.1052   XXXY    -847.4663   XXYY    -744.0445
      XYYY    -859.1378   YYYY   -1513.8566   XXXZ     178.1310
      XXYZ      29.4277   XYYZ      58.2271   YYYZ     112.1847
      XXZZ    -540.0889   XYZZ    -283.5918   YYZZ    -297.1830
      XZZZ     196.3590   YZZZ     117.6645   ZZZZ    -255.3555
 -----------------------------------------------------------------
 Calculating analytic gradient of the SCF energy
 Gradient of SCF Energy
            1           2           3           4           5           6
    1  -0.0000004  -0.0000143   0.0000186  -0.0000064   0.0000060  -0.0000069
    2  -0.0000093  -0.0000168  -0.0000015  -0.0000065   0.0000012  -0.0000030
    3  -0.0000094  -0.0000137   0.0000044   0.0000230   0.0000376   0.0000203
            7           8           9          10          11          12
    1  -0.0000002  -0.0000244   0.0000188  -0.0000072  -0.0000174   0.0000042
    2  -0.0000028  -0.0000060   0.0000160   0.0000031  -0.0000098   0.0000023
    3  -0.0000092  -0.0000167  -0.0000022  -0.0000112   0.0000227   0.0000339
           13          14          15          16          17          18
    1   0.0000004   0.0000182  -0.0000181   0.0000002   0.0000203   0.0000133
    2  -0.0000001   0.0000106  -0.0000138  -0.0000018   0.0000117   0.0000422
    3   0.0000535   0.0000396   0.0000222   0.0000320   0.0000023  -0.0000273
           19          20          21          22
    1   0.0000100   0.0000275   0.0000001  -0.0000422
    2   0.0000212  -0.0000295   0.0000092  -0.0000167
    3  -0.0000398  -0.0000872  -0.0000597  -0.0000153
 Max gradient component =       8.717E-05
 RMS gradient           =       2.306E-05
 Gradient time:  CPU 121.88 s  wall 7.77 s
 Geometry Optimization Parameters
   NAtoms,    NIC,     NZ,  NCons,   NDum,   NFix, NCnnct, MaxDiis
       22     172       0       0       0       0       0       0

 Cartesian Hessian Update
 Hessian updated using BFGS update


** GEOMETRY OPTIMIZATION IN DELOCALIZED INTERNAL COORDINATES **
   Searching for a Minimum

   Optimization Cycle:   5

                       Coordinates (Angstroms)
     ATOM                X               Y               Z
      1  C         1.9835795988    2.8322869844   -0.6614920465
      2  C         2.0906812667    1.3385847024   -0.3038640067
      3  C         3.4026379314    0.7325876808   -0.8324709665
      4  C         4.6241419761    1.5183666854   -0.3264347264
      5  C         4.5211677310    3.0128130163   -0.6704499863
      6  C         3.2053870803    3.6167566330   -0.1544626354
      7  H         3.4664309915   -0.3204882941   -0.5313392086
      8  H         2.0608028721    1.2315741625    0.7858306130
      9  H         1.9110673134    2.9367255106   -1.7549174703
     10  H         1.0565922645    3.2417443875   -0.2411707459
     11  H         4.6996549799    1.4008644614    0.7660541793
     12  H         5.5415594359    1.0912608105   -0.7508127226
     13  H         5.3781519830    3.5574926293   -0.2525444480
     14  H         4.5747533606    3.1385058140   -1.7617279703
     15  H         3.2075428208    3.6067634596    0.9469313252
     16  H         3.1232991261    4.6684242064   -0.4573452046
     17  H         3.3908177312    0.7486268469   -1.9332902658
     18  N         0.9308494868    0.5900888668   -0.7915653097
     19  H         0.7988494097    0.5100288627   -1.7937475169
     20  C         0.0022956575    0.0065045657    0.0081605755
     21  H        -0.7903543137   -0.5030047107   -0.5706370595
     22  O         0.0044983815    0.0165594594    1.2358997032
   Point Group: c1    Number of degrees of freedom:    60


   Energy is   -404.593300070

 Hessian updated using BFGS update

 60 Hessian modes will be used to form the next step
  Hessian Eigenvalues:
     0.005739    0.005974    0.006618    0.006944    0.012596    0.019498
     0.019767    0.020845    0.037243    0.038536    0.039418    0.041854
     0.048142    0.048448    0.048914    0.055282    0.055713    0.056013
     0.060052    0.066884    0.080785    0.081523    0.081588    0.081999
     0.082105    0.083474    0.084133    0.087713    0.120970    0.121005
     0.143063    0.150612    0.160557    0.160914    0.175306    0.210946
     0.219951    0.226289    0.271998    0.272740    0.275557    0.285884
     0.286827    0.287484    0.326892    0.334550    0.334949    0.335992
     0.336546    0.339141    0.339417    0.339435    0.340107    0.340236
     0.342117    0.344847    0.366675    0.454273    0.470927    0.826702

 Minimum search - taking simple RFO step
 Searching for Lamda that Minimizes Along All modes
 Value Taken    Lamda =  -0.00000012
 Step Taken.  Stepsize is  0.003949

                             Maximum     Tolerance    Cnvgd?
         Gradient           0.000030      0.000100     YES
         Displacement       0.002366      0.000100      NO
         Energy change     -0.000003      0.000000      NO


 New Cartesian Coordinates Obtained by Inverse Iteration

 Displacement from previous Coordinates is:  0.007205
 ----------------------------------------------------------------
             Standard Nuclear Orientation (Angstroms)
    I     Atom           X                Y                Z
 ----------------------------------------------------------------
    1      C       1.9835266109     2.8319794122    -0.6611928139
    2      C       2.0909037560     1.3382276674    -0.3038231290
    3      C       3.4029080757     0.7325405266    -0.8326126747
    4      C       4.6243418454     1.5184881311    -0.3266413475
    5      C       4.5210624699     3.0129424714    -0.6705046490
    6      C       3.2052708281     3.6166069140    -0.1542428806
    7      H       3.4669358297    -0.3205439816    -0.5315760178
    8      H       2.0611230105     1.2310656701     0.7858639017
    9      H       1.9108120095     2.9365412964    -1.7545890849
   10      H       1.0565414766     3.2411922407    -0.2406498836
   11      H       4.7000177150     1.4008773154     0.7658276231
   12      H       5.5417739365     1.0915821376    -0.7511885127
   13      H       5.3780185598     3.5577184463    -0.2526788559
   14      H       4.5744563974     3.1387515116    -1.7617802404
   15      H       3.2075840641     3.6065047126     0.9471512554
   16      H       3.1229631197     4.6682929136    -0.4570106227
   17      H       3.3909720977     0.7486834119    -1.9334312373
   18      N       0.9311751982     0.5895353788    -0.7916044932
   19      H       0.7998245837     0.5085846326    -1.7937977189
   20      C       0.0017242929     0.0073286113     0.0080593209
   21      H      -0.7906872507    -0.5025547503    -0.5707503844
   22      O       0.0031584585     0.0187220706     1.2357765516
 ----------------------------------------------------------------
 Nuclear Repulsion Energy =         466.68861102 hartrees
 There are       35 alpha and       35 beta electrons
 Applying Cartesian multipole field
    Component          Value
    ---------          -----
     (0,0,1)        3.89000E-03
 Nucleus-field energy     =    -0.1532644986 hartrees
 Requested basis set is 6-31+G(d)
 There are 71 shells and 197 basis functions
 A cutoff of  1.0D-14 yielded   2412 shell pairs
 There are     18997 function pairs
 Smallest overlap matrix eigenvalue = 2.49E-05
 Guess MOs from SCF MO coefficient file

 -----------------------------------------------------------------------
  General SCF calculation program by
  Eric Jon Sundstrom, Paul Horn, Yuezhi Mao, Dmitri Zuev, Alec White,
  David Stuck, Shaama M.S., Shane Yost, Joonho Lee, David Small,
  Daniel Levine, Susi Lehtola, Hugh Burton, Evgeny Epifanovsky,
  Bang C. Huynh
 -----------------------------------------------------------------------
 Exchange:     0.2000 Hartree-Fock + 0.0800 Slater + 0.7200 B88
 Correlation:  0.1900 VWN1RPA + 0.8100 LYP
 Using Euler-Maclaurin-Lebedev (99,590) quadrature formula
 using 16 threads for integral computing
 -------------------------------------------------------
 OpenMP Integral computing Module                
 Release: version 2.0, May 2017, Q-Chem Inc. Pleasanton 
 -------------------------------------------------------
 A restricted SCF calculation will be
 performed using DIIS
 SCF converges when DIIS error is below 1.0e-09
 ---------------------------------------
  Cycle       Energy         DIIS error
 ---------------------------------------
    1    -404.5932980640      1.48e-05  
    2    -404.5933001465      2.03e-06  
    3    -404.5933001742      9.54e-07  
    4    -404.5933001780      3.66e-07  
    5    -404.5933001786      8.33e-08  
    6    -404.5933001786      3.32e-08  
    7    -404.5933001786      1.12e-08  
    8    -404.5933001786      3.78e-09  
    9    -404.5933001786      1.98e-09  
   10    -404.5933001786      1.64e-10  Convergence criterion met
 ---------------------------------------
 SCF time:   CPU 490.36s  wall 31.00s 
 SCF   energy in the final basis set =     -404.5933001786
 Total energy in the final basis set =     -404.5933001786
 
 --------------------------------------------------------------
 
                    Orbital Energies (a.u.)
 --------------------------------------------------------------
 
 Alpha MOs
 -- Occupied --
-19.1272 -14.3723 -10.2909 -10.2304 -10.1906 -10.1903 -10.1901 -10.1899
-10.1867  -1.0367  -0.9333  -0.8319  -0.7498  -0.7484  -0.6413  -0.6197
 -0.5969  -0.5709  -0.5298  -0.4871  -0.4647  -0.4500  -0.4443  -0.4203
 -0.4161  -0.4019  -0.3869  -0.3765  -0.3541  -0.3528  -0.3307  -0.3209
 -0.3163  -0.2625  -0.2592
 -- Virtual --
  0.0010   0.0081   0.0130   0.0205   0.0244   0.0349   0.0454   0.0483
  0.0534   0.0653   0.0654   0.0797   0.0839   0.0879   0.0965   0.1004
  0.1064   0.1126   0.1219   0.1310   0.1364   0.1460   0.1516   0.1592
  0.1682   0.1756   0.1776   0.1835   0.1939   0.1992   0.2097   0.2117
  0.2161   0.2206   0.2299   0.2413   0.2466   0.2508   0.2616   0.2658
  0.2788   0.2824   0.2835   0.2868   0.2904   0.3060   0.3105   0.3241
  0.3250   0.3277   0.3571   0.3647   0.3808   0.3835   0.4101   0.4140
  0.4348   0.4542   0.4913   0.6037   0.6327   0.6506   0.6588   0.6626
  0.6775   0.6924   0.7243   0.7268   0.7443   0.7477   0.7723   0.7793
  0.7977   0.8001   0.8157   0.8437   0.8543   0.9038   0.9491   0.9684
  0.9728   0.9834   1.0135   1.0226   1.0272   1.0484   1.0823   1.0922
  1.1112   1.1146   1.1182   1.1456   1.1525   1.1635   1.1741   1.1838
  1.2348   1.2568   1.2913   1.3388   1.3405   1.3705   1.3846   1.4126
  1.4757   1.4864   1.4906   1.5618   1.5688   1.6113   1.7009   1.7243
  1.7272   1.7524   1.7687   1.8050   1.8524   1.8686   1.8973   1.9002
  1.9055   1.9380   1.9777   2.0058   2.0108   2.0405   2.0494   2.0829
  2.0862   2.1262   2.1961   2.2168   2.2767   2.3078   2.3092   2.3422
  2.3957   2.4045   2.4108   2.4151   2.4465   2.5604   2.5824   2.6218
  2.6663   2.6806   2.6987   2.7551   2.7732   2.8280   2.8652   3.0103
  3.1888   4.0882   4.1930   4.2359   4.2863   4.3281   4.4178   4.5959
  4.6008   4.6679
 --------------------------------------------------------------
 
          Ground-State Mulliken Net Atomic Charges

     Atom                 Charge (a.u.)
  ----------------------------------------
      1 C                    -0.233594
      2 C                    -0.522548
      3 C                    -0.257248
      4 C                    -0.433920
      5 C                    -0.370943
      6 C                    -0.436923
      7 H                     0.209298
      8 H                     0.232186
      9 H                     0.208265
     10 H                     0.208042
     11 H                     0.191436
     12 H                     0.203727
     13 H                     0.192275
     14 H                     0.209771
     15 H                     0.191234
     16 H                     0.201846
     17 H                     0.207837
     18 N                    -0.376033
     19 H                     0.406270
     20 C                     0.328602
     21 H                     0.150922
     22 O                    -0.510500
  ----------------------------------------
  Sum of atomic charges =     0.000000

 -----------------------------------------------------------------
                    Cartesian Multipole Moments
 -----------------------------------------------------------------
    Charge (ESU x 10^10)
                -0.0000
    Dipole Moment (Debye)
         X       1.7614      Y       1.1092      Z      -4.5474
       Tot       5.0012
    Quadrupole Moments (Debye-Ang)
        XX     -51.4353     XY       3.4885     YY     -54.6758
        XZ      -2.0524     YZ      -1.4106     ZZ     -57.3777
    Octopole Moments (Debye-Ang^2)
       XXX    -392.7650    XXY     -81.0159    XYY    -130.1283
       YYY    -263.8135    XXZ      10.1170    XYZ      -4.7527
       YYZ      14.3182    XZZ    -130.9926    YZZ     -86.4709
       ZZZ      38.2833
    Hexadecapole Moments (Debye-Ang^3)
      XXXX   -2981.2241   XXXY    -847.4324   XXYY    -744.0470
      XYYY    -859.1149   YYYY   -1513.7210   XXXZ     178.1746
      XXYZ      29.3965   XYYZ      58.2474   YYYZ     112.1012
      XXZZ    -540.0997   XYZZ    -283.5869   YYZZ    -297.1682
[...]

 Mode:                40                     41                     42
 Frequency:      1410.11                1504.67                1509.06
 Force Cnst:      1.7215                 1.4484                 1.4655
 Red. Mass:       1.4694                 1.0858                 1.0922
 IR Active:          YES                    YES                    YES
 IR Intens:        0.784                  0.341                  4.232
 Raman Active:       YES                    YES                    YES
               X      Y      Z        X      Y      Z        X      Y      Z
 C          0.051  0.101  0.018   -0.038  0.015 -0.030    0.015 -0.024  0.013
 C         -0.083 -0.066 -0.008   -0.009  0.012  0.001    0.010  0.008  0.005
 C          0.111  0.013  0.005    0.004  0.034  0.032   -0.015  0.020  0.017
 C         -0.010  0.032  0.004    0.023 -0.006  0.020    0.000  0.007 -0.006
 C         -0.005 -0.002  0.007    0.006 -0.013  0.000    0.049  0.036 -0.039
 C          0.030 -0.022 -0.000   -0.005 -0.021 -0.022    0.006 -0.010 -0.013
 H         -0.382 -0.044 -0.061    0.007 -0.100 -0.390    0.024 -0.052 -0.221
 H          0.387  0.337  0.037    0.033 -0.049 -0.004   -0.024 -0.023  0.002
 H         -0.200 -0.317 -0.012    0.389 -0.168 -0.063   -0.179  0.147  0.035
 H         -0.186 -0.315 -0.085    0.131 -0.095  0.409   -0.056  0.062 -0.213
 H          0.026  0.001 -0.003   -0.248  0.085  0.040    0.040 -0.060 -0.015
 H         -0.126 -0.188 -0.026   -0.083  0.061 -0.251    0.035  0.001  0.065
 H         -0.024 -0.019  0.055    0.005  0.006 -0.021   -0.148 -0.151  0.559
 H         -0.054 -0.049  0.006   -0.014  0.060  0.007   -0.497 -0.327 -0.090
 H         -0.008  0.032  0.000    0.014  0.270 -0.010   -0.044  0.143 -0.007
 H         -0.229 -0.046 -0.008   -0.009  0.071  0.266    0.020  0.044  0.147
 H         -0.339 -0.085  0.003    0.008 -0.391  0.012    0.071 -0.220  0.005
 N         -0.027 -0.015 -0.013    0.000  0.000  0.000    0.002  0.001 -0.000
 H          0.110  0.072 -0.038    0.003 -0.004  0.000   -0.020 -0.013  0.004
 C          0.023  0.014  0.006    0.000  0.000 -0.000   -0.002 -0.001  0.001
 H          0.031  0.019  0.016   -0.000  0.000 -0.000   -0.002 -0.001 -0.002
 O         -0.004 -0.003 -0.006    0.000 -0.000  0.000    0.000  0.000 -0.001
 TransDip   0.020  0.006  0.020    0.013 -0.014 -0.001   -0.050 -0.030  0.030

 Mode:                43                     44                     45
 Frequency:      1510.87                1515.77                1528.47
 Force Cnst:      1.4743                 1.4716                 1.5202
 Red. Mass:       1.0962                 1.0871                 1.1044
 IR Active:          YES                    YES                    YES
 IR Intens:        5.282                 13.158                  1.955
 Raman Active:       YES                    YES                    YES
               X      Y      Z        X      Y      Z        X      Y      Z
 C          0.028 -0.015  0.014   -0.023  0.014 -0.018   -0.029  0.021 -0.017
 C         -0.004  0.005  0.000   -0.010 -0.007 -0.001   -0.004 -0.003 -0.009
 C          0.005 -0.031 -0.019    0.003 -0.027 -0.023    0.008 -0.033 -0.022
 C          0.042 -0.020  0.026   -0.033  0.022 -0.025    0.026 -0.019  0.014
 C         -0.005 -0.001  0.003    0.001  0.002 -0.007    0.034  0.025 -0.018
 C         -0.000 -0.042 -0.029    0.007 -0.036 -0.029   -0.006  0.030  0.018
 H          0.008  0.059  0.272   -0.021  0.074  0.296   -0.004  0.074  0.323
 H          0.014 -0.021 -0.002    0.012  0.010 -0.002   -0.007 -0.003 -0.011
 H         -0.235  0.118  0.036    0.249 -0.120 -0.043    0.279 -0.165 -0.050
 H         -0.074  0.038 -0.245    0.076 -0.074  0.258    0.090 -0.063  0.303
 H         -0.385  0.179  0.064    0.351 -0.177 -0.063   -0.235  0.129  0.041
 H         -0.127  0.071 -0.401    0.110 -0.097  0.368   -0.069  0.057 -0.256
 H          0.028 -0.013 -0.045   -0.029 -0.027  0.076   -0.078 -0.080  0.328
 H          0.037  0.026  0.007   -0.066 -0.045 -0.016   -0.296 -0.197 -0.052
 H         -0.020  0.404 -0.011   -0.040  0.398 -0.014    0.035 -0.269  0.008
 H          0.009  0.090  0.390   -0.019  0.095  0.385    0.006 -0.055 -0.265
 H         -0.035  0.282 -0.004   -0.023  0.305 -0.010   -0.054  0.331 -0.009
 N          0.000 -0.002  0.000    0.011  0.007 -0.002   -0.018 -0.011  0.006
 H          0.001  0.006 -0.001   -0.034 -0.020  0.005    0.099  0.063 -0.014
 C          0.001  0.000  0.000   -0.005 -0.003 -0.000    0.011  0.007 -0.006
 H          0.000  0.001  0.000   -0.006 -0.004 -0.003    0.012  0.008  0.008
 O         -0.000  0.000 -0.000    0.001  0.000  0.002   -0.002 -0.001  0.002
 TransDip  -0.037  0.064  0.001    0.008 -0.002  0.116    0.040  0.021  0.002

 Mode:                46                     47                     48
 Frequency:      1547.75                1736.88                2211.24
 Force Cnst:      2.4205                15.6965                 6.9742
 Red. Mass:       1.7150                 8.8310                 2.4209
 IR Active:          YES                    YES                    YES
 IR Intens:      155.796                462.174                 88.076
 Raman Active:       YES                    YES                    YES
               X      Y      Z        X      Y      Z        X      Y      Z
 C          0.008  0.002  0.007   -0.014 -0.004 -0.011   -0.000 -0.000  0.000
 C          0.065  0.042 -0.046    0.021  0.013  0.023    0.002  0.001 -0.000
 C          0.005  0.008  0.008   -0.011 -0.009 -0.012   -0.000 -0.000  0.000
 C         -0.013 -0.002 -0.003   -0.000  0.005  0.004    0.000  0.000  0.000
 C         -0.002 -0.002  0.003   -0.001 -0.000 -0.001   -0.000 -0.000  0.000
 C         -0.006 -0.011 -0.004    0.005 -0.003  0.003    0.000 -0.000  0.000
 H          0.014 -0.003 -0.043    0.018  0.001  0.022    0.001 -0.000 -0.002
 H         -0.299 -0.199 -0.085   -0.079 -0.049  0.037    0.011  0.006  0.002
 H         -0.053 -0.051 -0.000    0.028  0.030 -0.009   -0.001  0.000  0.000
 H          0.001  0.027 -0.041    0.007  0.008  0.029    0.000  0.001 -0.002
 H          0.095 -0.013 -0.012   -0.003 -0.005  0.006    0.000 -0.000 -0.000
 H          0.027 -0.004  0.084   -0.018 -0.021 -0.015    0.000 -0.000 -0.000
 H          0.011  0.013 -0.044   -0.001 -0.002  0.007    0.000  0.000  0.000
 H          0.033  0.022  0.007    0.000  0.000 -0.002    0.000  0.000 -0.000
 H          0.021  0.091 -0.003   -0.007 -0.003  0.006   -0.000  0.000 -0.000
 H          0.009  0.016  0.082   -0.027 -0.007 -0.014   -0.000  0.000  0.000
 H         -0.071 -0.034  0.001    0.037  0.008 -0.012   -0.000 -0.000  0.001
 N         -0.156 -0.098  0.060    0.030  0.017 -0.098    0.012  0.007  0.001
 H          0.724  0.453 -0.093    0.297  0.178 -0.150   -0.063 -0.039  0.004
 C          0.080  0.049 -0.022   -0.124 -0.062  0.654   -0.136 -0.088 -0.118
 H          0.096  0.062  0.062    0.383  0.244  0.072    0.708  0.459  0.492
 O         -0.010 -0.006 -0.008    0.002 -0.009 -0.412    0.004  0.003  0.025
 TransDip   0.319  0.198 -0.136   -0.327 -0.197  0.573   -0.189 -0.124 -0.199

 Mode:                49                     50                     51
 Frequency:      3006.24                3009.00                3017.84
 Force Cnst:      5.6989                 5.7157                 5.7133
 Red. Mass:       1.0703                 1.0715                 1.0647
 IR Active:          YES                    YES                    YES
 IR Intens:       21.356                 29.909                  8.533
 Raman Active:       YES                    YES                    YES
               X      Y      Z        X      Y      Z        X      Y      Z
 C          0.002 -0.002  0.018   -0.001  0.000  0.011    0.013 -0.007  0.024
 C         -0.000  0.001  0.000    0.000  0.000  0.000   -0.000 -0.000  0.004
 C         -0.000 -0.002 -0.021    0.000 -0.001  0.017    0.001 -0.024 -0.056
 C          0.014 -0.009  0.043   -0.015  0.011 -0.048   -0.014  0.008 -0.016
 C         -0.000  0.001  0.001    0.006  0.002  0.020   -0.002 -0.001  0.007
 C          0.001 -0.013 -0.051    0.001 -0.012 -0.046   -0.001  0.008  0.009
 H          0.001  0.027 -0.014   -0.003  0.005  0.002   -0.021  0.302 -0.106
 H          0.001 -0.002 -0.005   -0.002 -0.001  0.003   -0.000  0.006 -0.046
 H         -0.014  0.022 -0.234   -0.009  0.013 -0.125   -0.018  0.030 -0.355
 H         -0.011  0.001  0.009    0.022 -0.012 -0.010   -0.131  0.057  0.070
 H         -0.035  0.059 -0.589    0.040 -0.070  0.664    0.014 -0.025  0.266
 H         -0.122  0.053  0.072    0.133 -0.061 -0.077    0.147 -0.071 -0.078
 H         -0.002 -0.008 -0.003   -0.081 -0.051 -0.037    0.013  0.009  0.009
 H          0.001  0.002 -0.015    0.012  0.026 -0.214    0.005  0.008 -0.091
 H          0.005 -0.016  0.678    0.002 -0.013  0.612   -0.002  0.005 -0.142
 H         -0.012  0.169 -0.065   -0.013  0.150 -0.056    0.009 -0.103  0.034
 H          0.003 -0.006  0.264   -0.002  0.004 -0.213    0.009 -0.025  0.769
 N          0.000 -0.000 -0.000   -0.000 -0.000  0.000    0.000  0.000  0.000
 H          0.000 -0.000  0.000   -0.000 -0.000  0.000    0.004 -0.001  0.001
 C          0.000  0.000 -0.000    0.000  0.000 -0.000    0.000  0.000  0.000
 H         -0.000  0.000 -0.000   -0.000 -0.000  0.000    0.000  0.000 -0.000
 O         -0.000 -0.000  0.000   -0.000  0.000  0.000   -0.000 -0.000  0.000
 TransDip   0.075 -0.125 -0.029   -0.060 -0.015 -0.164   -0.017 -0.052 -0.076

 Mode:                52                     53                     54
 Frequency:      3021.15                3027.23                3065.22
 Force Cnst:      5.7317                 5.7316                 6.0615
 Red. Mass:       1.0658                 1.0615                 1.0950
 IR Active:          YES                    YES                    YES
 IR Intens:       39.736                 34.009                 76.533
 Raman Active:       YES                    YES                    YES
               X      Y      Z        X      Y      Z        X      Y      Z
 C         -0.026  0.016 -0.054   -0.007  0.004 -0.009   -0.009  0.004  0.012
 C         -0.001 -0.002  0.010   -0.000 -0.000  0.003    0.000  0.001 -0.010
 C          0.001 -0.010 -0.026    0.000 -0.006 -0.009    0.002 -0.015  0.010
 C         -0.002  0.002 -0.001   -0.015  0.007  0.001   -0.015  0.007  0.002
 C         -0.007 -0.006  0.018    0.037  0.029 -0.044   -0.047 -0.028 -0.051
 C          0.001 -0.010 -0.007    0.001 -0.017  0.000    0.003 -0.035  0.011
 H         -0.010  0.123 -0.043   -0.004  0.071 -0.023   -0.013  0.184 -0.054
 H          0.002  0.012 -0.129    0.000  0.003 -0.033   -0.002 -0.011  0.122
 H          0.041 -0.073  0.782    0.009 -0.013  0.150   -0.007  0.009 -0.087
 H          0.260 -0.115 -0.139    0.071 -0.031 -0.035    0.121 -0.055 -0.056
 H          0.002 -0.003  0.028    0.000 -0.006  0.070    0.000 -0.006  0.051
 H          0.021 -0.013 -0.012    0.172 -0.076 -0.084    0.173 -0.081 -0.083
 H          0.074  0.046  0.044   -0.411 -0.260 -0.221    0.582  0.371  0.285
 H          0.008  0.029 -0.263   -0.022 -0.078  0.742   -0.022 -0.044  0.331
 H          0.002 -0.005  0.126    0.000 -0.006  0.062   -0.001 -0.005 -0.015
 H         -0.014  0.122 -0.040   -0.014  0.211 -0.065   -0.034  0.419 -0.123
 H          0.002 -0.010  0.359    0.002 -0.004  0.126    0.000 -0.001 -0.065
 N          0.000  0.000  0.000    0.000  0.000  0.000   -0.000 -0.000  0.000
 H          0.003  0.003  0.001    0.001  0.001  0.000   -0.000 -0.000 -0.002
 C          0.000  0.000  0.000    0.000  0.000  0.000    0.000  0.000 -0.000
 H          0.000  0.000 -0.000    0.000  0.000  0.000   -0.000 -0.000 -0.000
 O         -0.000 -0.000 -0.000   -0.000 -0.000 -0.000    0.000  0.000  0.000
 TransDip  -0.113 -0.042 -0.162    0.074  0.062 -0.160   -0.200 -0.188 -0.054

 Mode:                55                     56                     57
 Frequency:      3067.82                3071.73                3072.43
 Force Cnst:      6.0705                 6.0825                 6.0904
 Red. Mass:       1.0947                 1.0941                 1.0950
 IR Active:          YES                    YES                    YES
 IR Intens:       58.798                 33.105                 34.466
 Raman Active:       YES                    YES                    YES
               X      Y      Z        X      Y      Z        X      Y      Z
 C          0.009 -0.005  0.003   -0.028  0.012  0.023    0.015 -0.007 -0.004
 C         -0.000  0.001  0.001   -0.000  0.003 -0.040    0.001  0.000  0.005
 C         -0.000  0.001 -0.007    0.003 -0.047  0.029   -0.002  0.025 -0.006
 C          0.041 -0.018 -0.031   -0.007  0.002  0.018   -0.045  0.020  0.040
 C          0.010  0.005  0.017    0.017  0.009  0.030    0.008  0.002  0.032
 C          0.004 -0.055  0.036    0.001 -0.005  0.012    0.003 -0.034  0.024
 H          0.001 -0.007  0.002   -0.035  0.558 -0.163    0.019 -0.302  0.088
 H         -0.000  0.003 -0.014   -0.006 -0.045  0.488    0.002  0.006 -0.061
 H         -0.005  0.005 -0.076   -0.015  0.012 -0.118   -0.000  0.000 -0.026
 H         -0.097  0.042  0.046    0.339 -0.148 -0.157   -0.174  0.076  0.081
 H          0.016 -0.017  0.137   -0.013  0.019 -0.162   -0.023  0.029 -0.220
 H         -0.501  0.230  0.236    0.097 -0.046 -0.045    0.564 -0.261 -0.265
 H         -0.131 -0.085 -0.064   -0.221 -0.141 -0.108   -0.116 -0.073 -0.055
 H          0.009  0.015 -0.137    0.015  0.031 -0.248    0.016  0.039 -0.324
 H         -0.000 -0.006 -0.235    0.001  0.000 -0.124    0.002 -0.004 -0.166
 H         -0.053  0.667 -0.195   -0.005  0.058 -0.016   -0.034  0.410 -0.119
 H          0.001 -0.001  0.073   -0.004 -0.006 -0.186   -0.002  0.003 -0.015
 N          0.000 -0.000 -0.000   -0.000 -0.000  0.000   -0.000 -0.000 -0.000
 H          0.000 -0.001  0.000   -0.001 -0.000 -0.006   -0.001 -0.000  0.001
 C         -0.000 -0.000  0.000    0.000  0.000 -0.001    0.000  0.000 -0.000
 H         -0.000  0.000  0.000   -0.001 -0.000 -0.000   -0.000 -0.000 -0.000
 O         -0.000 -0.000 -0.000    0.000  0.000  0.000   -0.000 -0.000  0.000
 TransDip   0.164 -0.179  0.036   -0.045 -0.066  0.166   -0.062  0.012  0.177

 Mode:                58                     59                     60
 Frequency:      3075.44                3092.96                3586.35
 Force Cnst:      6.1147                 6.1489                 8.1681
 Red. Mass:       1.0973                 1.0909                 1.0779
 IR Active:          YES                    YES                    YES
 IR Intens:       39.177                 35.452                 22.169
 Raman Active:       YES                    YES                    YES
               X      Y      Z        X      Y      Z        X      Y      Z
 C         -0.050  0.020  0.046    0.020 -0.008 -0.027   -0.000  0.000  0.000
 C         -0.000  0.001 -0.007    0.002  0.007 -0.071    0.001  0.001 -0.001
 C         -0.003  0.045 -0.031   -0.002  0.023 -0.023   -0.000 -0.000  0.000
 C          0.001 -0.000 -0.007    0.002 -0.000 -0.008   -0.000  0.000  0.000
 C          0.001 -0.000  0.001   -0.002 -0.001 -0.006    0.000  0.000  0.000
 C         -0.000  0.001  0.007   -0.000  0.002 -0.008    0.000 -0.000  0.000
 H          0.035 -0.540  0.156    0.020 -0.275  0.079   -0.000  0.001 -0.000
 H         -0.003 -0.006  0.090   -0.017 -0.081  0.840    0.002  0.000  0.010
 H         -0.026  0.028 -0.260    0.017 -0.027  0.211   -0.000 -0.001 -0.000
 H          0.618 -0.271 -0.286   -0.255  0.114  0.118    0.001 -0.000 -0.000
 H          0.007 -0.007  0.075    0.009 -0.008  0.081    0.000  0.000 -0.000
 H         -0.024  0.012  0.011   -0.028  0.014  0.014    0.000 -0.000 -0.000
 H         -0.012 -0.006 -0.005    0.030  0.019  0.015    0.000  0.000 -0.000
 H          0.001 -0.001 -0.005   -0.004 -0.007  0.055    0.000  0.000 -0.000
 H         -0.002  0.001 -0.083    0.002  0.002  0.083    0.000  0.000 -0.000
 H          0.000 -0.012  0.004    0.003 -0.030  0.010   -0.000  0.000 -0.000
 H          0.002  0.003  0.216   -0.003  0.001  0.201   -0.002  0.000 -0.000
 N          0.000 -0.000 -0.000   -0.001 -0.001  0.001   -0.008 -0.006 -0.073
 H         -0.000  0.000 -0.001    0.003  0.003 -0.008    0.122  0.089  0.986
 C         -0.000  0.000 -0.000    0.000  0.000 -0.002   -0.002 -0.001  0.000
 H         -0.000 -0.000 -0.000   -0.001 -0.001 -0.000    0.003  0.002  0.000
 O          0.000 -0.000 -0.000    0.000  0.000  0.001   -0.000 -0.000  0.001
 TransDip  -0.121  0.158  0.021   -0.013  0.011 -0.190   -0.024 -0.011  0.148

 STANDARD THERMODYNAMIC QUANTITIES AT   298.18 K  AND     1.00 ATM

   This Molecule has  0 Imaginary Frequencies
   Zero point vibrational energy:      122.125 kcal/mol

   Atom    1 Element C  Has Mass   12.00000
   Atom    2 Element C  Has Mass   12.00000
   Atom    3 Element C  Has Mass   12.00000
   Atom    4 Element C  Has Mass   12.00000
   Atom    5 Element C  Has Mass   12.00000
   Atom    6 Element C  Has Mass   12.00000
   Atom    7 Element H  Has Mass    1.00783
   Atom    8 Element H  Has Mass    1.00783
   Atom    9 Element H  Has Mass    1.00783
   Atom   10 Element H  Has Mass    1.00783
   Atom   11 Element H  Has Mass    1.00783
   Atom   12 Element H  Has Mass    1.00783
   Atom   13 Element H  Has Mass    1.00783
   Atom   14 Element H  Has Mass    1.00783
   Atom   15 Element H  Has Mass    1.00783
   Atom   16 Element H  Has Mass    1.00783
   Atom   17 Element H  Has Mass    1.00783
   Atom   18 Element N  Has Mass   14.00307
   Atom   19 Element H  Has Mass    1.00783
   Atom   20 Element C  Has Mass   12.00000
   Atom   21 Element H  Has Mass    2.01410
   Atom   22 Element O  Has Mass   15.99491
   Molecular Mass:   128.106042 amu
   Principal axes and moments of inertia in amu*Bohr^2:
                             1           2           3
    Eigenvalues --      542.63212  2015.48327  2214.14303
          X               0.82760    -0.52047     0.21022
          Y               0.53491     0.84479    -0.01425
          Z              -0.17017     0.12424     0.97755
   Rotational Symmetry Number is   1
   The Molecule is an Asymmetric Top
   Translational Enthalpy:        0.889 kcal/mol
   Rotational Enthalpy:           0.889 kcal/mol
   Vibrational Enthalpy:        125.971 kcal/mol
   gas constant (RT):             0.593 kcal/mol
   Translational Entropy:        40.457  cal/mol.K
   Rotational Entropy:           29.272  cal/mol.K
   Vibrational Entropy:          24.933  cal/mol.K

   Total Enthalpy:              128.341 kcal/mol
   Total Entropy:                94.663  cal/mol.K
Archival summary:
1\1\node023\FREQ\ProcedureUnspecified\6-31+G*\11713\ymao90\SunMar704:25:552021SunMar704:25:552021\0\\#,FREQ,ProcedureUnspecified,6-31+G*,\\0,1\N\H,1,1.01399\C,1,1.35729,2,117.356\H,3,1.10587,1,112.343,2,0.895744,0\O,3,1.22775,1,125.748,2,-179.284,0\C,1,1.46417,2,118.207,3,-178.812,0\H,6,1.09536,1,105.07,2,-175.394,0\C,6,1.53862,1,111.044,2,-57.6075,0\H,8,1.09715,6,109.477,1,-57.4774,0\H,8,1.10103,6,109.192,1,59.1231,0\C,8,1.5381,6,111.277,1,179.811,0\H,11,1.09734,8,109.743,6,-177.672,0\H,11,1.10138,8,109.042,6,65.9725,0\C,11,1.53697,8,111.713,6,-54.9336,0\H,14,1.09805,11,110.168,8,177.037,0\H,14,1.09981,11,109.265,8,-66.3707,0\C,14,1.53695,11,111.363,8,54.4271,0\H,17,1.0975,14,110.359,11,-176.824,0\H,17,1.10144,14,109.302,11,66.3146,0\C,17,1.53795,14,111.648,11,-54.4415,0\H,20,1.09706,17,110.77,14,176.897,0\H,20,1.10076,17,109.365,14,-65.6126,0\\\@

 Total job time:  5046.24s(wall), 79843.73s(cpu) 
 Sun Mar  7 04:25:55 2021

        *************************************************************
        *                                                           *
        *  Thank you very much for using Q-Chem.  Have a nice day.  *
        *                                                           *
        *************************************************************


