                  Welcome to Q-Chem
     A Quantum Leap Into The Future Of Chemistry


 Q-Chem 5.2 (devel), Q-Chem, Inc., Pleasanton, CA (2019)

 Yihan Shao,  Zhengting Gan,  E. Epifanovsky,  A. T. B. Gilbert,  M. Wormit,  
 J. Kussmann,  A. W. Lange,  A. Behn,  Jia Deng,  Xintian Feng,  D. Ghosh,  
 M. Goldey,  P. R. Horn,  L. D. Jacobson,  I. Kaliman,  T. Kus,  A. Landau,  
 Jie Liu,  E. I. Proynov,  R. M. Richard,  R. P. Steele,  E. J. Sundstrom,  
 H. L. Woodcock III,  P. M. Zimmerman,  D. Zuev,  B. Alam,  B. Albrecht,  
 E. Alguire,  S. A. Baeppler,  D. Barton,  Z. Benda,  Y. A. Bernard,  
 E. J. Berquist,  K. B. Bravaya,  H. Burton,  K. Carter-Fenk,  D. Casanova,  
 Chun-Min Chang,  Yunqing Chen,  A. Chien,  K. D. Closser,  M. P. Coons,  
 S. Coriani,  S. Dasgupta,  A. L. Dempwolff,  M. Diedenhofen,  Hainam Do,  
 R. G. Edgar,  Po-Tung Fang,  S. Faraji,  S. Fatehi,  Qingguo Feng,  
 J. Fosso-Tande,  J. Gayvert,  Qinghui Ge,  A. Ghysels,  G. Gidofalvi,  
 J. Gomes,  J. Gonthier,  A. Gunina,  D. Hait,  M. W. D. Hanson-Heine,  
 P. H. P. Harbach,  A. W. Hauser,  M. F. Herbst,  J. E. Herr,  
 E. G. Hohenstein,  Z. C. Holden,  Kerwin Hui,  B. C. Huynh,  T.-C. Jagau,  
 Hyunjun Ji,  B. Kaduk,  K. Khistyaev,  Jaehoon Kim,  P. Klunzinger,  K. Koh,  
 D. Kosenkov,  L. Koulias,  T. Kowalczyk,  C. M. Krauter,  A. Kunitsa,  
 Ka Un Lao,  A. Laurent,  K. V. Lawler,  Joonho Lee,  D. Lefrancois,  
 S. Lehtola,  D. S. Levine,  Yi-Pei Li,  You-Sheng Lin,  Fenglai Liu,  
 Kuan-Yu Liu,  E. Livshits,  M. Loipersberger,  A. Luenser,  P. Manohar,  
 E. Mansoor,  S. F. Manzer,  Shan-Ping Mao,  Yuezhi Mao,  N. Mardirossian,  
 A. V. Marenich,  T. Markovich,  L. A. Martinez-Martinez,  S. A. Maurer,  
 N. J. Mayhall,  S. C. McKenzie,  J.-M. Mewes,  P. Morgante,  A. F. Morrison,  
 J. W. Mullinax,  K. Nanda,  T. S. Nguyen-Beck,  R. Olivares-Amaya,  
 J. A. Parkhill,  S. K. Paul,  F. Pavosevic,  Zheng Pei,  T. M. Perrine,  
 F. Plasser,  P. Pokhilko,  S. Prager,  A. Prociuk,  E. Ramos,  B. Rana,  
 D. R. Rehn,  F. Rob,  M. Scheurer,  M. Schneider,  N. Sergueev,  
 S. M. Sharada,  S. Sharma,  D. W. Small,  T. Stauch,  C. J. Stein,  
 T. Stein,  Yu-Chuan Su,  S. P. Veccham,  Zhen Tao,  A. J. W. Thom,  
 A. Tkatchenko,  T. Tsuchimochi,  N. M. Tubman,  L. Vogt,  M. L. Vidal,  
 O. Vydrov,  M. A. Watson,  J. Wenzel,  M. de Wergifosse,  T. A. Wesolowski,  
 A. White,  J. Witte,  A. Yamada,  Jun Yang,  K. Yao,  S. Yeganeh,  
 S. R. Yost,  Zhi-Qiang You,  A. Zech,  Igor Ying Zhang,  Xing Zhang,  
 Yan Zhao,  Ying Zhu,  B. R. Brooks,  G. K. L. Chan,  C. J. Cramer,  
 M. S. Gordon,  W. J. Hehre,  A. Klamt,  M. W. Schmidt,  C. D. Sherrill,  
 D. G. Truhlar,  A. Aspuru-Guzik,  R. Baer,  A. T. Bell,  N. A. Besley,  
 Jeng-Da Chai,  A. E. DePrince, III,  R. A. DiStasio Jr.,  A. Dreuw,  
 B. D. Dunietz,  T. R. Furlani,  Chao-Ping Hsu,  Yousung Jung,  Jing Kong,  
 D. S. Lambrecht,  WanZhen Liang,  C. Ochsenfeld,  V. A. Rassolov,  
 L. V. Slipchenko,  J. E. Subotnik,  T. Van Voorhis,  J. M. Herbert,  
 A. I. Krylov,  P. M. W. Gill,  M. Head-Gordon

 Contributors to earlier versions of Q-Chem not listed above: 
 R. D. Adamson,  B. Austin,  J. Baker,  G. J. O. Beran,  K. Brandhorst,  
 S. T. Brown,  E. F. C. Byrd,  A. K. Chakraborty,  C.-L. Cheng,  
 Siu Hung Chien,  D. M. Chipman,  D. L. Crittenden,  H. Dachsel,  
 R. J. Doerksen,  A. D. Dutoi,  L. Fusti-Molnar,  W. A. Goddard III,  
 A. Golubeva-Zadorozhnaya,  S. R. Gwaltney,  G. Hawkins,  A. Heyden,  
 S. Hirata,  G. Kedziora,  F. J. Keil,  C. Kelley,  Jihan Kim,  R. A. King,  
 R. Z. Khaliullin,  P. P. Korambath,  W. Kurlancheek,  A. M. Lee,  M. S. Lee,  
 S. V. Levchenko,  Ching Yeh Lin,  D. Liotard,  R. C. Lochan,  I. Lotan,  
 P. E. Maslen,  N. Nair,  D. P. O'Neill,  D. Neuhauser,  E. Neuscamman,  
 C. M. Oana,  R. Olson,  B. Peters,  R. Peverati,  P. A. Pieniazek,  
 Y. M. Rhee,  J. Ritchie,  M. A. Rohrdanz,  E. Rosta,  N. J. Russ,  
 H. F. Schaefer III,  N. E. Schultz,  N. Shenvi,  A. C. Simmonett,  A. Sodt,  
 D. Stuck,  K. S. Thanthiriwatte,  V. Vanovschi,  Tao Wang,  A. Warshel,  
 C. F. Williams,  Q. Wu,  X. Xu,  W. Zhang

 Please cite Q-Chem as follows:
 Y. Shao et al., Mol. Phys. 113, 184-215 (2015)
 DOI: 10.1080/00268976.2014.952696

 Q-Chem 5.2.2 for Intel X86 EM64T Linux

 Parts of Q-Chem use Armadillo 9.800.1 (Horizon Scraper).
 http://arma.sourceforge.net/

 Q-Chem begins on Sun Aug  8 22:25:06 2021  

Host: node028
0

     Scratch files written to /home/ymao90/scratch/CCX_CO_0_GLY_6220210808222504//
Symmetry turned off for PCM/SM12/SMD calculation

Checking the input file for inconsistencies... 	...done.

--------------------------------------------------------------
User input:
--------------------------------------------------------------
$molecule
0 1
C      1.9839655798    2.8343873569   -0.6530035790
C      2.0889665948    1.3399289492   -0.2973932582
C      3.4017166944    0.7321441035   -0.8222227424
C      4.6254659785    1.5200300416   -0.3255741318
C      4.5210827926    3.0122209378   -0.6783481608
C      3.2094896156    3.6188525050   -0.1554554411
H      3.4653882129   -0.3186255299   -0.5134835234
H      2.0538505535    1.2303619181    0.7916336585
H      1.9041773336    2.9373830819   -1.7471760654
H      1.0604862058    3.2447823031   -0.2264495779
H      4.7056113531    1.4098609561    0.7662015896
H      5.5416784391    1.0893334561   -0.7496610014
H      5.3807748665    3.5587419877   -0.2692766409
H      4.5659637339    3.1311627355   -1.7719372538
H      3.2192612515    3.6121018079    0.9447339030
H      3.1260878858    4.6703627905   -0.4590864625
H      3.3863457527    0.7409636912   -1.9242196110
N      0.9315723625    0.5939302253   -0.7942938700
H      0.8024957372    0.5217251348   -1.7968919912
C      0.0000000000    0.0000000000    0.0000000000
H     -0.7899738588   -0.5065817117   -0.5873052394
O     -0.0000000000    0.0000000000    1.2238135054
$end

$rem
JOBTYPE  OPT
METHOD  B3LYP
BASIS  6-31+G(D)
SYMMETRY  FALSE
SYM_IGNORE  TRUE
MEM_TOTAL  8000
MEM_STATIC  2000
MAX_SUB_FILE_NUM  16000
BASIS_LIN_DEP_THRESH  6
THRESH  14
SCF_CONVERGENCE  9
GEN_SCFMAN  TRUE
SCF_GUESS  SAD
FD_MAT_VEC_PROD  FALSE
XC_GRID  000099000590
NL_GRID  1
MAX_SCF_CYCLES  200
GEOM_OPT_TOL_GRADIENT  100
GEOM_OPT_TOL_DISPLACEMENT  100
GEOM_OPT_TOL_ENERGY  10
SOLVENT_METHOD       PCM
$end

$PCM
THEORY                     CPCM
METHOD                     SWIG
SOLVER                     INVERSION
HPOINTS                    302
HEAVYPOINTS                302
$END

$SOLVENT
DIELECTRIC                 62.0
$END

--------------------------------------------------------------
 ----------------------------------------------------------------
             Standard Nuclear Orientation (Angstroms)
    I     Atom           X                Y                Z
 ----------------------------------------------------------------
    1      C       1.9839655798     2.8343873569    -0.6530035790
    2      C       2.0889665948     1.3399289492    -0.2973932582
    3      C       3.4017166944     0.7321441035    -0.8222227424
    4      C       4.6254659785     1.5200300416    -0.3255741318
    5      C       4.5210827926     3.0122209378    -0.6783481608
    6      C       3.2094896156     3.6188525050    -0.1554554411
    7      H       3.4653882129    -0.3186255299    -0.5134835234
    8      H       2.0538505535     1.2303619181     0.7916336585
    9      H       1.9041773336     2.9373830819    -1.7471760654
   10      H       1.0604862058     3.2447823031    -0.2264495779
   11      H       4.7056113531     1.4098609561     0.7662015896
   12      H       5.5416784391     1.0893334561    -0.7496610014
   13      H       5.3807748665     3.5587419877    -0.2692766409
   14      H       4.5659637339     3.1311627355    -1.7719372538
   15      H       3.2192612515     3.6121018079     0.9447339030
   16      H       3.1260878858     4.6703627905    -0.4590864625
   17      H       3.3863457527     0.7409636912    -1.9242196110
   18      N       0.9315723625     0.5939302253    -0.7942938700
   19      H       0.8024957372     0.5217251348    -1.7968919912
   20      C       0.0000000000     0.0000000000     0.0000000000
   21      H      -0.7899738588    -0.5065817117    -0.5873052394
   22      O       0.0000000000     0.0000000000     1.2238135054
 ----------------------------------------------------------------
 Nuclear Repulsion Energy =         466.63298041 hartrees
 There are       35 alpha and       35 beta electrons
 Requested basis set is 6-31+G(d)
 There are 71 shells and 197 basis functions

 Total QAlloc Memory Limit   8000 MB
 Mega-Array Size      1956 MB
 MEM_STATIC part      2000 MB
 Discretize the solute cavity surface with Lebedev spheres
	Using 302 Lebedev grid points for each H atom
	Using 302 Lebedev grid points for other atoms
	Atomic van der Waals radii will be scaled by 1.20
 Remove points where switching function is < 1.0e-08
 Keep 2701 surface tesserae and discard 3943 interior tesserae
 Molecular Surface Area = 182.842 Angst**2
 A cutoff of  1.0D-14 yielded   2413 shell pairs
 There are     18998 function pairs
 Smallest overlap matrix eigenvalue = 2.48E-05

 Scale SEOQF with 1.000000e-02/1.000000e-01/1.000000e-01

 Standard Electronic Orientation quadrupole field applied
 Nucleus-field energy     =     0.0000000184 hartrees
 Guess from superposition of atomic densities
 Warning:  Energy on first SCF cycle will be non-variational
 SAD guess density has 70.000000 electrons

 -----------------------------------------------------------------------
  General SCF calculation program by
  Eric Jon Sundstrom, Paul Horn, Yuezhi Mao, Dmitri Zuev, Alec White,
  David Stuck, Shaama M.S., Shane Yost, Joonho Lee, David Small,
  Daniel Levine, Susi Lehtola, Hugh Burton, Evgeny Epifanovsky,
  Bang C. Huynh
 -----------------------------------------------------------------------
 Exchange:     0.2000 Hartree-Fock + 0.0800 Slater + 0.7200 B88
 Correlation:  0.1900 VWN1RPA + 0.8100 LYP
 Using Euler-Maclaurin-Lebedev (99,590) quadrature formula
 using 16 threads for integral computing
 -------------------------------------------------------
 OpenMP Integral computing Module                
 Release: version 2.0, May 2017, Q-Chem Inc. Pleasanton 
 -------------------------------------------------------
 A restricted SCF calculation will be
 performed using DIIS
 SCF converges when DIIS error is below 1.0e-09
 ---------------------------------------
  Cycle       Energy         DIIS error
 ---------------------------------------
    1    -406.2319506888      5.08e-02  
    2    -404.4127491775      6.38e-03  
    3    -404.1971132645      9.83e-03  
    4    -404.5862391150      1.95e-03  
    5    -404.6004309711      5.21e-04  
    6    -404.6014896016      1.49e-04  
    7    -404.6015748181      5.35e-05  
    8    -404.6015867860      9.54e-06  
    9    -404.6015871649      2.29e-06  
   10    -404.6015871873      5.01e-07  
   11    -404.6015871883      1.80e-07  
   12    -404.6015871885      2.28e-08  
   13    -404.6015871885      5.82e-09  
   14    -404.6015871885      2.79e-09  
   15    -404.6015871885      4.48e-10  Convergence criterion met
 ---------------------------------------
 SCF time:   CPU 1004.43s  wall 66.00s 

************** Final PCM Free Energy Summary **************
 G_electrostatic  =      -0.01843721 hartree =     -11.56952696 kcal/mol
 G_cavitation     =       0.00000000 hartree =       0.00000000 kcal/mol
 G_dispersion     =       0.00000000 hartree =       0.00000000 kcal/mol
 G_repulsion      =       0.00000000 hartree =       0.00000000 kcal/mol
 --------------------------------------------------
 Non-electrostatic Free Energy =       0.00000000 hartree =       0.00000000 kcal/mol
 Total                         =      -0.01843721 hartree =     -11.56952696 kcal/mol
 --------------------------------------------------
 SCF Energy (H0 + V/2)                       =    -404.60158719 
 Solute Internal Energy (H0)                 =    -404.58314997 
 Total Free Energy (H0 + V/2 + non-elec)     =    -404.60158719 hartree
                                             = -253891.32794241 kcal/mol
***********************************************************

 SCF   energy in the final basis set =     -404.6015871885
 Total energy in the final basis set =     -404.6015871885
 
 --------------------------------------------------------------
 
                    Orbital Energies (a.u.)
 --------------------------------------------------------------
 
 Alpha MOs
 -- Occupied --
-19.1376 -14.3687 -10.2947 -10.2236 -10.1818 -10.1813 -10.1792 -10.1791
-10.1773  -1.0479  -0.9302  -0.8226  -0.7405  -0.7400  -0.6350  -0.6103
 -0.5908  -0.5626  -0.5247  -0.4833  -0.4605  -0.4412  -0.4373  -0.4213
 -0.4188  -0.3951  -0.3778  -0.3754  -0.3461  -0.3419  -0.3207  -0.3116
 -0.3091  -0.2731  -0.2595
 -- Virtual --
  0.0090   0.0093   0.0183   0.0239   0.0262   0.0413   0.0483   0.0496
  0.0597   0.0698   0.0704   0.0841   0.0874   0.0962   0.1004   0.1054
  0.1129   0.1175   0.1260   0.1343   0.1412   0.1528   0.1570   0.1620
  0.1707   0.1805   0.1833   0.1900   0.2000   0.2029   0.2115   0.2155
  0.2222   0.2270   0.2309   0.2454   0.2488   0.2566   0.2633   0.2707
  0.2776   0.2812   0.2898   0.2914   0.2956   0.3034   0.3118   0.3271
  0.3303   0.3326   0.3598   0.3733   0.3797   0.3878   0.4179   0.4201
  0.4397   0.4612   0.4892   0.6117   0.6402   0.6584   0.6679   0.6687
  0.6859   0.6991   0.7310   0.7337   0.7485   0.7520   0.7763   0.7820
  0.8033   0.8064   0.8232   0.8523   0.8622   0.9082   0.9541   0.9767
  0.9807   0.9939   1.0235   1.0278   1.0319   1.0570   1.0898   1.1059
  1.1196   1.1247   1.1287   1.1444   1.1630   1.1728   1.1816   1.1897
  1.2384   1.2449   1.2808   1.3239   1.3436   1.3695   1.3934   1.4197
  1.4795   1.4895   1.4923   1.5681   1.5729   1.6115   1.7001   1.7314
  1.7357   1.7539   1.7712   1.8040   1.8504   1.8686   1.9035   1.9085
  1.9133   1.9370   1.9852   2.0134   2.0197   2.0474   2.0570   2.0888
  2.0951   2.1301   2.2032   2.2227   2.2770   2.3113   2.3160   2.3509
  2.4025   2.4116   2.4207   2.4249   2.4520   2.5627   2.5882   2.6239
  2.6745   2.6849   2.7056   2.7632   2.7783   2.8352   2.8689   3.0054
  3.1844   4.0921   4.1941   4.2309   4.2964   4.3347   4.4157   4.6050
  4.6100   4.6754
 --------------------------------------------------------------
 
          Ground-State Mulliken Net Atomic Charges

     Atom                 Charge (a.u.)
  ----------------------------------------
      1 C                    -0.276753
      2 C                    -0.411845
      3 C                    -0.298525
      4 C                    -0.450189
      5 C                    -0.381894
      6 C                    -0.453388
      7 H                     0.210153
      8 H                     0.224976
      9 H                     0.213574
     10 H                     0.209135
     11 H                     0.206932
     12 H                     0.202941
     13 H                     0.199158
     14 H                     0.202981
     15 H                     0.206855
     16 H                     0.202843
     17 H                     0.213721
     18 N                    -0.400330
     19 H                     0.450997
     20 C                     0.345649
     21 H                     0.182820
     22 O                    -0.599811
  ----------------------------------------
  Sum of atomic charges =     0.000000

 -----------------------------------------------------------------
                    Cartesian Multipole Moments
 -----------------------------------------------------------------
    Charge (ESU x 10^10)
                -0.0000
    Dipole Moment (Debye)
         X       2.0061      Y       1.3122      Z      -5.1725
       Tot       5.7009
    Quadrupole Moments (Debye-Ang)
        XX     -50.8465     XY       3.9865     YY     -54.4531
        XZ      -1.2333     YZ      -0.8576     ZZ     -57.4941
    Octopole Moments (Debye-Ang^2)
       XXX    -391.3410    XXY     -79.8498    XYY    -129.3442
       YYY    -263.0172    XXZ      13.9869    XYZ      -2.4269
       YYZ      16.0187    XZZ    -130.8480    YZZ     -86.1084
       ZZZ      36.0341
    Hexadecapole Moments (Debye-Ang^3)
      XXXX   -2979.6845   XXXY    -845.5433   XXYY    -742.8700
      XYYY    -857.9793   YYYY   -1514.3246   XXXZ     199.8638
      XXYZ      41.0261   XYYZ      66.8272   YYYZ     120.8239
      XXZZ    -542.2163   XYZZ    -284.7242   YYZZ    -298.1091
      XZZZ     198.6188   YZZZ     119.6122   ZZZZ    -254.6269
 -----------------------------------------------------------------
 Calculating analytic gradient of the SCF energy
 Gradient of SCF Energy
            1           2           3           4           5           6
    1   0.0037391   0.0015506  -0.0006879  -0.0051527  -0.0039653   0.0001494
    2  -0.0029607   0.0011118   0.0044382   0.0025461  -0.0031148  -0.0049533
    3   0.0098062   0.0005852   0.0110395  -0.0037774   0.0058141  -0.0040884
            7           8           9          10          11          12
    1   0.0001676   0.0003184  -0.0002947  -0.0010585   0.0001776   0.0025574
    2  -0.0018498   0.0002780   0.0007090   0.0005890  -0.0002622  -0.0010727
    3  -0.0004345  -0.0023901  -0.0069175  -0.0004803   0.0016766  -0.0012764
           13          14          15          16          17          18
    1   0.0018968   0.0001510   0.0000267  -0.0000507   0.0000763   0.0072368
    2   0.0012013   0.0003987   0.0000802   0.0026941   0.0001120   0.0042476
    3   0.0005009  -0.0041759   0.0015184  -0.0009139  -0.0073192   0.0048259
           19          20          21          22
    1  -0.0007189  -0.0029725  -0.0032518   0.0001051
    2  -0.0002924  -0.0018829  -0.0020958   0.0000786
    3  -0.0143458   0.0369305  -0.0067065  -0.0198713
 Max gradient component =       3.693E-02
 RMS gradient           =       6.399E-03
 Computing fast CPCM-SWIG gradient
 Updating gradient with PCM contributions...
 -- total gradient after adding PCM contribution --
---------------------------------------------------
  Atom         X              Y              Z     
---------------------------------------------------
   1       0.000283      -0.000310       0.001503
   2      -0.000785      -0.000457      -0.000397
   3      -0.000299       0.000318       0.001557
   4       0.000071       0.000032      -0.000662
   5      -0.000134      -0.000076       0.000493
   6       0.000057       0.000025      -0.000591
   7      -0.000242       0.000238      -0.000366
   8      -0.001375      -0.000765      -0.000062
   9      -0.000079       0.000690      -0.000654
  10       0.000169      -0.000362      -0.000409
  11       0.000123      -0.000236      -0.000257
  12       0.000130       0.000092       0.000373
  13      -0.000064      -0.000026      -0.000366
  14       0.000319       0.000213      -0.000090
  15      -0.000200       0.000247      -0.000231
  16       0.000160       0.000030       0.000365
  17       0.000635      -0.000236      -0.000778
  18       0.006802       0.004243      -0.007831
  19       0.000711       0.000381       0.001269
  20      -0.005484      -0.003458       0.028696
  21      -0.001599      -0.001051      -0.001386
  22       0.000801       0.000467      -0.020179
---------------------------------------------------
 Number of fixed atoms: 0
 Gradient time:  CPU 135.69 s  wall 12.26 s
 Geometry Optimization Parameters
   NAtoms,    NIC,     NZ,  NCons,   NDum,   NFix, NCnnct, MaxDiis
       22     172       0       0       0       0       0       0


** GEOMETRY OPTIMIZATION IN DELOCALIZED INTERNAL COORDINATES **
   Searching for a Minimum

   Optimization Cycle:   1

                       Coordinates (Angstroms)
     ATOM                X               Y               Z
      1  C         1.9839655798    2.8343873569   -0.6530035790
      2  C         2.0889665948    1.3399289492   -0.2973932582
      3  C         3.4017166944    0.7321441035   -0.8222227424
      4  C         4.6254659785    1.5200300416   -0.3255741318
      5  C         4.5210827926    3.0122209378   -0.6783481608
      6  C         3.2094896156    3.6188525050   -0.1554554411
      7  H         3.4653882129   -0.3186255299   -0.5134835234
      8  H         2.0538505535    1.2303619181    0.7916336585
      9  H         1.9041773336    2.9373830819   -1.7471760654
     10  H         1.0604862058    3.2447823031   -0.2264495779
     11  H         4.7056113531    1.4098609561    0.7662015896
     12  H         5.5416784391    1.0893334561   -0.7496610014
     13  H         5.3807748665    3.5587419877   -0.2692766409
     14  H         4.5659637339    3.1311627355   -1.7719372538
     15  H         3.2192612515    3.6121018079    0.9447339030
     16  H         3.1260878858    4.6703627905   -0.4590864625
     17  H         3.3863457527    0.7409636912   -1.9242196110
     18  N         0.9315723625    0.5939302253   -0.7942938700
     19  H         0.8024957372    0.5217251348   -1.7968919912
     20  C         0.0000000000    0.0000000000    0.0000000000
     21  H        -0.7899738588   -0.5065817117   -0.5873052394
     22  O         0.0000000000    0.0000000000    1.2238135054
   Point Group: c1    Number of degrees of freedom:    60


   Energy is   -404.601587188


 Attempting to generate delocalized internal coordinates
 Initial Hessian constructed with Jon Baker's OPTIMIZE code

 60 Hessian modes will be used to form the next step
  Hessian Eigenvalues:
     0.005967    0.006024    0.006964    0.007193    0.012605    0.019501
     0.019786    0.020845    0.020845    0.037215    0.038526    0.039417
     0.041724    0.048166    0.048450    0.048891    0.055292    0.055631
     0.055746    0.059934    0.066958    0.081508    0.081536    0.081616
     0.082032    0.082133    0.084029    0.087513    0.120967    0.121178
     0.142989    0.159989    0.160000    0.160554    0.174868    0.210947
     0.220000    0.220003    0.272263    0.272658    0.275535    0.286789
     0.287121    0.287175    0.329119    0.334466    0.334727    0.335769
     0.336541    0.336553    0.339301    0.339441    0.339454    0.340119
     0.340274    0.342312    0.364811    0.454000    0.528079    0.937134

 Minimum search - taking simple RFO step
 Searching for Lamda that Minimizes Along All modes
 Value Taken    Lamda =  -0.00085701
 Step Taken.  Stepsize is  0.058400

                             Maximum     Tolerance    Cnvgd?
         Gradient           0.011708      0.000100      NO
         Displacement       0.026468      0.000100      NO
         Energy change     *********      0.000000      NO


 New Cartesian Coordinates Obtained by Inverse Iteration

 Displacement from previous Coordinates is:  0.147886
 ----------------------------------------------------------------
             Standard Nuclear Orientation (Angstroms)
    I     Atom           X                Y                Z
 ----------------------------------------------------------------
    1      C       1.9839375129     2.8322887083    -0.6440894984
    2      C       2.0926587115     1.3400234649    -0.2819446477
    3      C       3.4016747119     0.7312693469    -0.8139504820
    4      C       4.6271005604     1.5220813042    -0.3266783076
    5      C       4.5192457541     3.0119519174    -0.6866219665
    6      C       3.2114370568     3.6191700130    -0.1559957002
    7      H       3.4701119218    -0.3185134030    -0.5010010227
    8      H       2.0704047489     1.2373772879     0.8080025964
    9      H       1.8982768157     2.9248855929    -1.7376041649
   10      H       1.0631219781     3.2460145117    -0.2132713215
   11      H       4.7138379904     1.4183993654     0.7655803558
   12      H       5.5397814869     1.0896821432    -0.7568913715
   13      H       5.3814223675     3.5611448240    -0.2856020246
   14      H       4.5532926223     3.1241372821    -1.7811167101
   15      H       3.2300665332     3.6153864230     0.9444612140
   16      H       3.1238271268     4.6688484758    -0.4652005379
   17      H       3.3736080862     0.7383572782    -1.9144992655
   18      N       0.9347457584     0.5949358408    -0.7852142849
   19      H       0.8115451350     0.5278245365    -1.7905183530
   20      C      -0.0035136809    -0.0004294880    -0.0177844922
   21      H      -0.7816525569    -0.4965102451    -0.6224843936
   22      O      -0.0305235560    -0.0152584393     1.2170284851
 ----------------------------------------------------------------
 Nuclear Repulsion Energy =         466.41657416 hartrees
 There are       35 alpha and       35 beta electrons
 Discretize the solute cavity surface with Lebedev spheres
	Using 302 Lebedev grid points for each H atom
	Using 302 Lebedev grid points for other atoms
	Atomic van der Waals radii will be scaled by 1.20
 Remove points where switching function is < 1.0e-08
 Keep 2707 surface tesserae and discard 3937 interior tesserae
 Molecular Surface Area = 182.971 Angst**2
 Applying Cartesian multipole field
    Component          Value
    ---------          -----
     (2,0,0)        1.00000E-12
     (0,2,0)        2.00000E-11
     (0,0,2)       -3.00000E-11
 Nucleus-field energy     =     0.0000000185 hartrees
 Requested basis set is 6-31+G(d)
 There are 71 shells and 197 basis functions
 A cutoff of  1.0D-14 yielded   2411 shell pairs
 There are     18991 function pairs
 Smallest overlap matrix eigenvalue = 2.45E-05
 Guess MOs from SCF MO coefficient file

 -----------------------------------------------------------------------
  General SCF calculation program by
  Eric Jon Sundstrom, Paul Horn, Yuezhi Mao, Dmitri Zuev, Alec White,
  David Stuck, Shaama M.S., Shane Yost, Joonho Lee, David Small,
  Daniel Levine, Susi Lehtola, Hugh Burton, Evgeny Epifanovsky,
  Bang C. Huynh
 -----------------------------------------------------------------------
 Exchange:     0.2000 Hartree-Fock + 0.0800 Slater + 0.7200 B88
 Correlation:  0.1900 VWN1RPA + 0.8100 LYP
 Using Euler-Maclaurin-Lebedev (99,590) quadrature formula
 using 16 threads for integral computing
 -------------------------------------------------------
 OpenMP Integral computing Module                
 Release: version 2.0, May 2017, Q-Chem Inc. Pleasanton 
 -------------------------------------------------------
 A restricted SCF calculation will be
 performed using Roothaan-Hall, DIIS
 SCF converges when DIIS error is below 1.0e-09
 ---------------------------------------
  Cycle       Energy         DIIS error
 ---------------------------------------
    1    -404.5822522362      6.73e-04  Roothaan Step
 ---------------------------------------
  Cycle       Energy         DIIS error
 ---------------------------------------
    1    -404.5901533504      1.31e-03  
    2    -404.5715537339      2.84e-03  
    3    -404.6018726707      2.26e-04  
    4    -404.6020514606      1.32e-04  
    5    -404.6021192096      3.68e-05  
    6    -404.6021248458      9.77e-06  
    7    -404.6021252157      3.33e-06  
    8    -404.6021252691      6.20e-07  
    9    -404.6021252707      2.61e-07  
   10    -404.6021252710      4.43e-08  
   11    -404.6021252710      1.21e-08  
   12    -404.6021252710      3.30e-09  
   13    -404.6021252710      3.97e-10  Convergence criterion met
 ---------------------------------------
 SCF time:   CPU 948.50s  wall 64.00s 

************** Final PCM Free Energy Summary **************
 G_electrostatic  =      -0.01959884 hartree =     -12.29845898 kcal/mol
 G_cavitation     =       0.00000000 hartree =       0.00000000 kcal/mol
 G_dispersion     =       0.00000000 hartree =       0.00000000 kcal/mol
 G_repulsion      =       0.00000000 hartree =       0.00000000 kcal/mol
 --------------------------------------------------
 Non-electrostatic Free Energy =       0.00000000 hartree =       0.00000000 kcal/mol
 Total                         =      -0.01959884 hartree =     -12.29845898 kcal/mol
 --------------------------------------------------
 SCF Energy (H0 + V/2)                       =    -404.60212527 
 Solute Internal Energy (H0)                 =    -404.58252643 
 Total Free Energy (H0 + V/2 + non-elec)     =    -404.60212527 hartree
                                             = -253891.66559430 kcal/mol
***********************************************************

 SCF   energy in the final basis set =     -404.6021252710
 Total energy in the final basis set =     -404.6021252710
 
 --------------------------------------------------------------
 
                    Orbital Energies (a.u.)
 --------------------------------------------------------------
 
 Alpha MOs
 -- Occupied --
-19.1361 -14.3708 -10.2942 -10.2248 -10.1821 -10.1817 -10.1794 -10.1793
-10.1773  -1.0417  -0.9322  -0.8237  -0.7420  -0.7404  -0.6361  -0.6106
 -0.5912  -0.5628  -0.5256  -0.4835  -0.4608  -0.4414  -0.4372  -0.4201
 -0.4184  -0.3952  -0.3780  -0.3742  -0.3467  -0.3426  -0.3212  -0.3114
 -0.3091  -0.2720  -0.2605
 -- Virtual --
  0.0088   0.0088   0.0179   0.0237   0.0262   0.0416   0.0481   0.0495
  0.0598   0.0700   0.0705   0.0839   0.0872   0.0958   0.1005   0.1054
  0.1128   0.1174   0.1261   0.1343   0.1409   0.1526   0.1570   0.1616
  0.1705   0.1805   0.1836   0.1898   0.1997   0.2027   0.2115   0.2144
  0.2217   0.2270   0.2306   0.2450   0.2486   0.2569   0.2640   0.2705
  0.2770   0.2818   0.2893   0.2909   0.2956   0.3027   0.3112   0.3264
  0.3304   0.3322   0.3597   0.3733   0.3832   0.3876   0.4179   0.4206
  0.4396   0.4611   0.4854   0.6108   0.6400   0.6571   0.6676   0.6681
  0.6848   0.6985   0.7311   0.7337   0.7481   0.7520   0.7763   0.7799
  0.8018   0.8063   0.8224   0.8520   0.8634   0.9118   0.9550   0.9758
  0.9803   0.9940   1.0236   1.0283   1.0314   1.0581   1.0898   1.1051
  1.1193   1.1245   1.1284   1.1435   1.1625   1.1730   1.1824   1.1911
  1.2396   1.2445   1.2818   1.3243   1.3443   1.3738   1.3911   1.4197
  1.4800   1.4883   1.4940   1.5677   1.5740   1.6132   1.6920   1.7331
  1.7349   1.7545   1.7711   1.8054   1.8525   1.8698   1.9034   1.9085
  1.9124   1.9393   1.9843   2.0110   2.0200   2.0455   2.0572   2.0861
  2.0941   2.1284   2.2019   2.2183   2.2769   2.3135   2.3156   2.3493
  2.3988   2.4111   2.4207   2.4253   2.4501   2.5624   2.5856   2.6214
  2.6741   2.6849   2.7045   2.7635   2.7797   2.8344   2.8656   2.9954
  3.1848   4.0935   4.1937   4.2292   4.2965   4.3343   4.4154   4.6048
  4.6114   4.6753
 --------------------------------------------------------------
 
          Ground-State Mulliken Net Atomic Charges

     Atom                 Charge (a.u.)
  ----------------------------------------
      1 C                    -0.271380
      2 C                    -0.427050
      3 C                    -0.291352
      4 C                    -0.452227
      5 C                    -0.381201
      6 C                    -0.455697
      7 H                     0.210768
      8 H                     0.226480
      9 H                     0.214442
     10 H                     0.209716
     11 H                     0.207347
     12 H                     0.203202
     13 H                     0.199169
     14 H                     0.203128
     15 H                     0.207246
     16 H                     0.203093
     17 H                     0.214474
     18 N                    -0.388281
     19 H                     0.452612
     20 C                     0.346903
     21 H                     0.183827
     22 O                    -0.615221
  ----------------------------------------
  Sum of atomic charges =     0.000000

 -----------------------------------------------------------------
                    Cartesian Multipole Moments
 -----------------------------------------------------------------
    Charge (ESU x 10^10)
                -0.0000
    Dipole Moment (Debye)
         X       2.2020      Y       1.4320      Z      -5.3186
       Tot       5.9318
    Quadrupole Moments (Debye-Ang)
        XX     -50.6149     XY       4.1119     YY     -54.3450
        XZ      -1.1316     YZ      -0.8199     ZZ     -57.4261
    Octopole Moments (Debye-Ang^2)
       XXX    -389.9638    XXY     -79.3728    XYY    -128.8700
       YYY    -262.3451    XXZ      13.8830    XYZ      -2.3831
       YYZ      15.8458    XZZ    -130.3380    YZZ     -85.8020
       ZZZ      35.6683
    Hexadecapole Moments (Debye-Ang^3)
      XXXX   -2977.6592   XXXY    -844.5926   XXYY    -742.0965
      XYYY    -857.5165   YYYY   -1512.7982   XXXZ     200.2917
      XXYZ      41.3633   XYYZ      66.9851   YYYZ     120.5731
      XXZZ    -541.5444   XYZZ    -284.4888   YYZZ    -297.5127
      XZZZ     198.5373   YZZZ     119.3602   ZZZZ    -252.9010
 -----------------------------------------------------------------
 Calculating analytic gradient of the SCF energy
 Gradient of SCF Energy
            1           2           3           4           5           6
    1   0.0040735   0.0018661  -0.0005271  -0.0055913  -0.0041976   0.0001322
    2  -0.0030242   0.0012340   0.0047988   0.0027253  -0.0033086  -0.0053943
    3   0.0089771   0.0008983   0.0102573  -0.0034022   0.0057410  -0.0038437
            7           8           9          10          11          12
    1   0.0004419   0.0020811  -0.0003372  -0.0013569   0.0001477   0.0025405
    2  -0.0022750   0.0012997  -0.0000327   0.0010371  -0.0000085  -0.0011973
    3  -0.0000738  -0.0020064  -0.0066638  -0.0000646   0.0022007  -0.0017334
           13          14          15          16          17          18
    1   0.0020831  -0.0001888   0.0002894  -0.0002044  -0.0007138   0.0031092
    2   0.0013164   0.0001930  -0.0001204   0.0027900   0.0003023   0.0017744
    3   0.0008813  -0.0043220   0.0020032  -0.0013441  -0.0069447   0.0086902
           19          20          21          22
    1  -0.0016891  -0.0001709  -0.0013716  -0.0004160
    2  -0.0007864  -0.0004320  -0.0007798  -0.0001118
    3  -0.0158243   0.0185222  -0.0064983  -0.0054499
 Max gradient component =       1.852E-02
 RMS gradient           =       4.478E-03
 Computing fast CPCM-SWIG gradient
 Updating gradient with PCM contributions...
 -- total gradient after adding PCM contribution --
---------------------------------------------------
  Atom         X              Y              Z     
---------------------------------------------------
   1       0.000364      -0.000242       0.000264
   2      -0.000634      -0.000477       0.000244
   3      -0.000134       0.000413       0.000365
   4      -0.000118       0.000078      -0.000084
   5      -0.000247      -0.000161       0.000156
   6       0.000030      -0.000178      -0.000110
   7      -0.000003      -0.000051      -0.000055
   8       0.000299       0.000212       0.000179
   9      -0.000070       0.000042      -0.000100
  10      -0.000047       0.000019      -0.000036
  11       0.000089       0.000004       0.000084
  12       0.000032       0.000030       0.000012
  13       0.000031       0.000031      -0.000033
  14       0.000049       0.000038      -0.000058
  15       0.000033       0.000070       0.000084
  16       0.000039       0.000022       0.000012
  17      -0.000010      -0.000059      -0.000110
  18       0.002697       0.001834      -0.004177
  19      -0.000306      -0.000184       0.000242
  20      -0.002482      -0.001884       0.009898
  21       0.000135       0.000166      -0.000960
  22       0.000251       0.000275      -0.005815
---------------------------------------------------
 Number of fixed atoms: 0
 Gradient time:  CPU 135.93 s  wall 12.16 s
 Geometry Optimization Parameters
   NAtoms,    NIC,     NZ,  NCons,   NDum,   NFix, NCnnct, MaxDiis
       22     172       0       0       0       0       0       0

 Cartesian Hessian Update
 Hessian updated using BFGS update


** GEOMETRY OPTIMIZATION IN DELOCALIZED INTERNAL COORDINATES **
   Searching for a Minimum

   Optimization Cycle:   2

                       Coordinates (Angstroms)
     ATOM                X               Y               Z
      1  C         1.9839375129    2.8322887083   -0.6440894984
      2  C         2.0926587115    1.3400234649   -0.2819446477
      3  C         3.4016747119    0.7312693469   -0.8139504820
      4  C         4.6271005604    1.5220813042   -0.3266783076
      5  C         4.5192457541    3.0119519174   -0.6866219665
      6  C         3.2114370568    3.6191700130   -0.1559957002
      7  H         3.4701119218   -0.3185134030   -0.5010010227
      8  H         2.0704047489    1.2373772879    0.8080025964
      9  H         1.8982768157    2.9248855929   -1.7376041649
     10  H         1.0631219781    3.2460145117   -0.2132713215
     11  H         4.7138379904    1.4183993654    0.7655803558
     12  H         5.5397814869    1.0896821432   -0.7568913715
     13  H         5.3814223675    3.5611448240   -0.2856020246
     14  H         4.5532926223    3.1241372821   -1.7811167101
     15  H         3.2300665332    3.6153864230    0.9444612140
     16  H         3.1238271268    4.6688484758   -0.4652005379
     17  H         3.3736080862    0.7383572782   -1.9144992655
     18  N         0.9347457584    0.5949358408   -0.7852142849
     19  H         0.8115451350    0.5278245365   -1.7905183530
     20  C        -0.0035136809   -0.0004294880   -0.0177844922
     21  H        -0.7816525569   -0.4965102451   -0.6224843936
     22  O        -0.0305235560   -0.0152584393    1.2170284851
   Point Group: c1    Number of degrees of freedom:    60


   Energy is   -404.602125271

 Hessian updated using BFGS update

 60 Hessian modes will be used to form the next step
  Hessian Eigenvalues:
     0.005967    0.006021    0.006969    0.007193    0.012604    0.019500
     0.019745    0.020845    0.020872    0.037217    0.038585    0.039416
     0.042014    0.048450    0.048822    0.048926    0.055294    0.055729
     0.056324    0.060721    0.066958    0.081529    0.081579    0.081672
     0.082049    0.082134    0.084067    0.087513    0.120967    0.121216
     0.142972    0.154920    0.160107    0.164866    0.174877    0.206747
     0.211240    0.223511    0.272344    0.272723    0.275535    0.286906
     0.287115    0.287639    0.328485    0.334380    0.334670    0.335758
     0.336547    0.336789    0.339333    0.339446    0.339463    0.340165
     0.340497    0.342316    0.365431    0.446110    0.457533    0.816414

 Minimum search - taking simple RFO step
 Searching for Lamda that Minimizes Along All modes
 Value Taken    Lamda =  -0.00014577
 Step Taken.  Stepsize is  0.028634

                             Maximum     Tolerance    Cnvgd?
         Gradient           0.004496      0.000100      NO
         Displacement       0.015519      0.000100      NO
         Energy change     -0.000538      0.000000      NO


 New Cartesian Coordinates Obtained by Inverse Iteration

 Displacement from previous Coordinates is:  0.042384
 ----------------------------------------------------------------
             Standard Nuclear Orientation (Angstroms)
    I     Atom           X                Y                Z
 ----------------------------------------------------------------
    1      C       1.9834901217     2.8330728151    -0.6416922759
    2      C       2.0936575699     1.3409297021    -0.2774434895
    3      C       3.4016791607     0.7304105871    -0.8117096766
    4      C       4.6277536728     1.5221992832    -0.3275719714
    5      C       4.5194184447     3.0120651361    -0.6893837059
    6      C       3.2122072780     3.6203525542    -0.1570072196
    7      H       3.4706938471    -0.3187254040    -0.4968151405
    8      H       2.0697797338     1.2369302302     0.8120141481
    9      H       1.8964011280     2.9233439142    -1.7349643718
   10      H       1.0636609766     3.2473964638    -0.2093773746
   11      H       4.7150943361     1.4200823137     0.7646232941
   12      H       5.5395778282     1.0886835217    -0.7584457286
   13      H       5.3822583743     3.5614858759    -0.2901954937
   14      H       4.5510407920     3.1224947446    -1.7839782682
   15      H       3.2326295583     3.6169404977     0.9432699774
   16      H       3.1236100372     4.6696312497    -0.4672129823
   17      H       3.3712049137     0.7366552928    -1.9118684866
   18      N       0.9350750554     0.5960251820    -0.7802865023
   19      H       0.8176832033     0.5324715575    -1.7869474939
   20      C      -0.0051835297     0.0012826974    -0.0255387147
   21      H      -0.7807027057    -0.4977300393    -0.6292356621
   22      O      -0.0366227112    -0.0229314349     1.2143712449
 ----------------------------------------------------------------
 Nuclear Repulsion Energy =         466.32860130 hartrees
 There are       35 alpha and       35 beta electrons
 Discretize the solute cavity surface with Lebedev spheres
	Using 302 Lebedev grid points for each H atom
	Using 302 Lebedev grid points for other atoms
	Atomic van der Waals radii will be scaled by 1.20
 Remove points where switching function is < 1.0e-08
 Keep 2710 surface tesserae and discard 3934 interior tesserae
 Molecular Surface Area = 183.014 Angst**2
 Applying Cartesian multipole field
    Component          Value
    ---------          -----
     (2,0,0)        1.00000E-12
     (0,2,0)        2.00000E-11
     (0,0,2)       -3.00000E-11
 Nucleus-field energy     =     0.0000000185 hartrees
 Requested basis set is 6-31+G(d)
 There are 71 shells and 197 basis functions
 A cutoff of  1.0D-14 yielded   2409 shell pairs
 There are     18981 function pairs
 Smallest overlap matrix eigenvalue = 2.45E-05
 Guess MOs from SCF MO coefficient file

 -----------------------------------------------------------------------
  General SCF calculation program by
  Eric Jon Sundstrom, Paul Horn, Yuezhi Mao, Dmitri Zuev, Alec White,
  David Stuck, Shaama M.S., Shane Yost, Joonho Lee, David Small,
  Daniel Levine, Susi Lehtola, Hugh Burton, Evgeny Epifanovsky,
  Bang C. Huynh
 -----------------------------------------------------------------------
 Exchange:     0.2000 Hartree-Fock + 0.0800 Slater + 0.7200 B88
 Correlation:  0.1900 VWN1RPA + 0.8100 LYP
 Using Euler-Maclaurin-Lebedev (99,590) quadrature formula
 using 16 threads for integral computing
 -------------------------------------------------------
 OpenMP Integral computing Module                
 Release: version 2.0, May 2017, Q-Chem Inc. Pleasanton 
 -------------------------------------------------------
 A restricted SCF calculation will be
 performed using Roothaan-Hall, DIIS
 SCF converges when DIIS error is below 1.0e-09
 ---------------------------------------
  Cycle       Energy         DIIS error
 ---------------------------------------
    1    -404.5822338701      6.21e-04  Roothaan Step
 ---------------------------------------
  Cycle       Energy         DIIS error
 ---------------------------------------
    1    -404.5899515352      1.32e-03  
    2    -404.5710807976      2.86e-03  
    3    -404.6019371796      2.27e-04  
    4    -404.6021257119      1.28e-04  
    5    -404.6021884677      3.80e-05  
    6    -404.6021944490      9.77e-06  
    7    -404.6021948155      3.37e-06  
    8    -404.6021948700      6.20e-07  
    9    -404.6021948717      2.63e-07  
   10    -404.6021948720      4.65e-08  
   11    -404.6021948720      1.21e-08  
   12    -404.6021948720      3.42e-09  
   13    -404.6021948720      4.03e-10  Convergence criterion met
 ---------------------------------------
 SCF time:   CPU 970.30s  wall 65.00s 

************** Final PCM Free Energy Summary **************
 G_electrostatic  =      -0.02011404 hartree =     -12.62175244 kcal/mol
 G_cavitation     =       0.00000000 hartree =       0.00000000 kcal/mol
 G_dispersion     =       0.00000000 hartree =       0.00000000 kcal/mol
 G_repulsion      =       0.00000000 hartree =       0.00000000 kcal/mol
 --------------------------------------------------
 Non-electrostatic Free Energy =       0.00000000 hartree =       0.00000000 kcal/mol
 Total                         =      -0.02011404 hartree =     -12.62175244 kcal/mol
 --------------------------------------------------
 SCF Energy (H0 + V/2)                       =    -404.60219487 
 Solute Internal Energy (H0)                 =    -404.58208083 
 Total Free Energy (H0 + V/2 + non-elec)     =    -404.60219487 hartree
                                             = -253891.70926958 kcal/mol
***********************************************************

 SCF   energy in the final basis set =     -404.6021948720
 Total energy in the final basis set =     -404.6021948720
 
 --------------------------------------------------------------
 
                    Orbital Energies (a.u.)
 --------------------------------------------------------------
 
 Alpha MOs
 -- Occupied --
-19.1349 -14.3717 -10.2939 -10.2253 -10.1824 -10.1820 -10.1796 -10.1794
-10.1774  -1.0390  -0.9332  -0.8241  -0.7426  -0.7406  -0.6368  -0.6107
 -0.5916  -0.5630  -0.5263  -0.4837  -0.4607  -0.4417  -0.4372  -0.4192
 -0.4179  -0.3952  -0.3782  -0.3736  -0.3471  -0.3428  -0.3213  -0.3116
 -0.3091  -0.2712  -0.2608
 -- Virtual --
  0.0086   0.0088   0.0179   0.0236   0.0262   0.0416   0.0480   0.0495
  0.0598   0.0700   0.0705   0.0840   0.0871   0.0957   0.1005   0.1054
  0.1128   0.1173   0.1262   0.1343   0.1409   0.1524   0.1570   0.1615
  0.1702   0.1801   0.1837   0.1897   0.1998   0.2028   0.2111   0.2141
  0.2216   0.2269   0.2306   0.2447   0.2483   0.2567   0.2642   0.2705
  0.2768   0.2816   0.2891   0.2907   0.2957   0.3026   0.3108   0.3262
  0.3304   0.3321   0.3595   0.3731   0.3846   0.3877   0.4177   0.4215
  0.4397   0.4609   0.4836   0.6103   0.6401   0.6566   0.6676   0.6681
  0.6845   0.6982   0.7310   0.7336   0.7482   0.7519   0.7760   0.7791
  0.8013   0.8060   0.8217   0.8520   0.8641   0.9127   0.9544   0.9758
  0.9803   0.9940   1.0235   1.0284   1.0310   1.0585   1.0903   1.1050
  1.1192   1.1244   1.1283   1.1429   1.1624   1.1728   1.1822   1.1910
  1.2398   1.2449   1.2820   1.3249   1.3445   1.3739   1.3904   1.4188
  1.4795   1.4883   1.4949   1.5670   1.5744   1.6151   1.6915   1.7329
  1.7341   1.7551   1.7707   1.8057   1.8528   1.8705   1.9031   1.9078
  1.9122   1.9392   1.9835   2.0109   2.0201   2.0451   2.0575   2.0851
  2.0936   2.1286   2.2009   2.2165   2.2778   2.3143   2.3163   2.3481
  2.3966   2.4101   2.4199   2.4252   2.4492   2.5611   2.5850   2.6201
  2.6733   2.6844   2.7052   2.7630   2.7817   2.8339   2.8627   2.9911
  3.1866   4.0942   4.1931   4.2284   4.2965   4.3340   4.4144   4.6044
  4.6111   4.6747
 --------------------------------------------------------------
 
          Ground-State Mulliken Net Atomic Charges

     Atom                 Charge (a.u.)
  ----------------------------------------
      1 C                    -0.269194
      2 C                    -0.431263
      3 C                    -0.289624
      4 C                    -0.452939
      5 C                    -0.381061
      6 C                    -0.456646
      7 H                     0.211171
      8 H                     0.226787
      9 H                     0.214824
     10 H                     0.210083
     11 H                     0.207512
     12 H                     0.203377
     13 H                     0.199294
     14 H                     0.203215
     15 H                     0.207401
     16 H                     0.203257
     17 H                     0.214861
     18 N                    -0.382957
     19 H                     0.452974
     20 C                     0.346410
     21 H                     0.185141
     22 O                    -0.622621
  ----------------------------------------
  Sum of atomic charges =     0.000000

 -----------------------------------------------------------------
                    Cartesian Multipole Moments
 -----------------------------------------------------------------
    Charge (ESU x 10^10)
                -0.0000
    Dipole Moment (Debye)
         X       2.2728      Y       1.4886      Z      -5.3910
       Tot       6.0369
    Quadrupole Moments (Debye-Ang)
        XX     -50.4764     XY       4.1751     YY     -54.2658
        XZ      -1.1492     YZ      -0.8128     ZZ     -57.4322
    Octopole Moments (Debye-Ang^2)
       XXX    -389.2707    XXY     -79.1712    XYY    -128.6409
       YYY    -261.9710    XXZ      13.7173    XYZ      -2.4255
       YYZ      15.7306    XZZ    -130.1662    YZZ     -85.6853
       ZZZ      35.5498
    Hexadecapole Moments (Debye-Ang^3)
      XXXX   -2975.5321   XXXY    -844.0026   XXYY    -741.6358
      XYYY    -857.0105   YYYY   -1512.1875   XXXZ     199.9963
      XXYZ      41.3432   XYYZ      66.9120   YYYZ     120.5497
      XXZZ    -541.2580   XYZZ    -284.4209   YYZZ    -297.3850
      XZZZ     198.4682   YZZZ     119.4399   ZZZZ    -252.3627
 -----------------------------------------------------------------
 Calculating analytic gradient of the SCF energy
 Gradient of SCF Energy
            1           2           3           4           5           6
    1   0.0038674   0.0023351  -0.0002467  -0.0055498  -0.0039981   0.0000577
    2  -0.0027657   0.0015595   0.0045418   0.0026362  -0.0031880  -0.0052778
    3   0.0088314   0.0004816   0.0100015  -0.0034192   0.0057084  -0.0038548
            7           8           9          10          11          12
    1   0.0004810   0.0017618  -0.0002662  -0.0014160   0.0000340   0.0025606
    2  -0.0023389   0.0010877  -0.0000947   0.0011009  -0.0000076  -0.0012923
    3   0.0000030  -0.0022456  -0.0066346   0.0000089   0.0021649  -0.0017990
           13          14          15          16          17          18
    1   0.0021184  -0.0002722   0.0002545  -0.0002882  -0.0007206   0.0007283
    2   0.0013286   0.0001369  -0.0002199   0.0028480   0.0003722  -0.0000862
    3   0.0009488  -0.0043323   0.0019703  -0.0013964  -0.0069079   0.0132887
           19          20          21          22
    1  -0.0014156   0.0015446  -0.0012095  -0.0003604
    2  -0.0007033   0.0022171  -0.0011962  -0.0006583
    3  -0.0161812   0.0088409  -0.0057251   0.0002479
 Max gradient component =       1.618E-02
 RMS gradient           =       4.102E-03
 Computing fast CPCM-SWIG gradient
 Updating gradient with PCM contributions...
 -- total gradient after adding PCM contribution --
---------------------------------------------------
  Atom         X              Y              Z     
---------------------------------------------------
   1       0.000054       0.000094      -0.000056
   2      -0.000219      -0.000207      -0.000105
   3       0.000147       0.000054      -0.000053
   4       0.000019      -0.000069      -0.000038
   5       0.000013       0.000007       0.000009
   6      -0.000054       0.000042      -0.000034
   7       0.000025      -0.000058       0.000012
   8      -0.000044      -0.000021      -0.000049
   9       0.000016      -0.000008       0.000059
  10      -0.000050       0.000051       0.000019
  11      -0.000023       0.000005       0.000006
  12       0.000008      -0.000032      -0.000018
  13       0.000026       0.000019       0.000019
  14      -0.000017      -0.000012       0.000010
  15      -0.000003      -0.000024       0.000007
  16      -0.000029       0.000024      -0.000011
  17       0.000005       0.000008       0.000059
  18       0.000392       0.000020       0.000340
  19      -0.000138      -0.000163       0.000037
  20      -0.000703       0.000818       0.000136
  21       0.000268      -0.000260      -0.000118
  22       0.000307      -0.000289      -0.000230
---------------------------------------------------
 Number of fixed atoms: 0
 Gradient time:  CPU 139.92 s  wall 12.43 s
 Geometry Optimization Parameters
   NAtoms,    NIC,     NZ,  NCons,   NDum,   NFix, NCnnct, MaxDiis
       22     172       0       0       0       0       0       0

 Cartesian Hessian Update
 Hessian updated using BFGS update


** GEOMETRY OPTIMIZATION IN DELOCALIZED INTERNAL COORDINATES **
   Searching for a Minimum

   Optimization Cycle:   3

                       Coordinates (Angstroms)
     ATOM                X               Y               Z
      1  C         1.9834901217    2.8330728151   -0.6416922759
      2  C         2.0936575699    1.3409297021   -0.2774434895
      3  C         3.4016791607    0.7304105871   -0.8117096766
      4  C         4.6277536728    1.5221992832   -0.3275719714
      5  C         4.5194184447    3.0120651361   -0.6893837059
      6  C         3.2122072780    3.6203525542   -0.1570072196
      7  H         3.4706938471   -0.3187254040   -0.4968151405
      8  H         2.0697797338    1.2369302302    0.8120141481
      9  H         1.8964011280    2.9233439142   -1.7349643718
     10  H         1.0636609766    3.2473964638   -0.2093773746
     11  H         4.7150943361    1.4200823137    0.7646232941
     12  H         5.5395778282    1.0886835217   -0.7584457286
     13  H         5.3822583743    3.5614858759   -0.2901954937
     14  H         4.5510407920    3.1224947446   -1.7839782682
     15  H         3.2326295583    3.6169404977    0.9432699774
     16  H         3.1236100372    4.6696312497   -0.4672129823
     17  H         3.3712049137    0.7366552928   -1.9118684866
     18  N         0.9350750554    0.5960251820   -0.7802865023
     19  H         0.8176832033    0.5324715575   -1.7869474939
     20  C        -0.0051835297    0.0012826974   -0.0255387147
     21  H        -0.7807027057   -0.4977300393   -0.6292356621
     22  O        -0.0366227112   -0.0229314349    1.2143712449
   Point Group: c1    Number of degrees of freedom:    60


   Energy is   -404.602194872

 Hessian updated using BFGS update

 60 Hessian modes will be used to form the next step
  Hessian Eigenvalues:
     0.005965    0.006016    0.006969    0.007192    0.012591    0.019496
     0.019636    0.020835    0.022959    0.037210    0.038521    0.039417
     0.041963    0.048449    0.048880    0.049100    0.055293    0.055727
     0.056603    0.060721    0.066955    0.081527    0.081576    0.081667
     0.082097    0.082149    0.084012    0.087514    0.120967    0.121214
     0.142998    0.147059    0.160322    0.162864    0.174879    0.209980
     0.214627    0.223628    0.272391    0.272888    0.275535    0.286948
     0.287099    0.289263    0.328375    0.334523    0.334816    0.335762
     0.336547    0.336762    0.339324    0.339442    0.339456    0.340157
     0.340448    0.342413    0.364627    0.445956    0.458169    0.797156

 Minimum search - taking simple RFO step
 Searching for Lamda that Minimizes Along All modes
 Value Taken    Lamda =  -0.00002552
 Step Taken.  Stepsize is  0.032642

                             Maximum     Tolerance    Cnvgd?
         Gradient           0.000596      0.000100      NO
         Displacement       0.025408      0.000100      NO
         Energy change     -0.000070      0.000000      NO


 New Cartesian Coordinates Obtained by Inverse Iteration

 Displacement from previous Coordinates is:  0.039909
 ----------------------------------------------------------------
             Standard Nuclear Orientation (Angstroms)
    I     Atom           X                Y                Z
 ----------------------------------------------------------------
    1      C       1.9830446028     2.8307535045    -0.6404498338
    2      C       2.0953753048     1.3388107050    -0.2765497804
    3      C       3.4035296239     0.7298024044    -0.8118555654
    4      C       4.6289730665     1.5231098149    -0.3283176301
    5      C       4.5187452842     3.0128222039    -0.6900561754
    6      C       3.2112692813     3.6193743318    -0.1564312652
    7      H       3.4737968801    -0.3191504828    -0.4969738683
    8      H       2.0716620004     1.2340311512     0.8128478451
    9      H       1.8950012801     2.9211266662    -1.7336814015
   10      H       1.0631075494     3.2435895077    -0.2072225004
   11      H       4.7170632938     1.4210131570     0.7637824687
   12      H       5.5410880673     1.0908120475    -0.7596895898
   13      H       5.3811799557     3.5631217109    -0.2913758932
   14      H       4.5494361102     3.1234469894    -1.7846487835
   15      H       3.2325233846     3.6157171024     0.9437893828
   16      H       3.1213065252     4.6685918082    -0.4662849928
   17      H       3.3722804220     0.7361656495    -1.9120335512
   18      N       0.9375293835     0.5925878885    -0.7801275468
   19      H       0.8216784888     0.5312731028    -1.7871800749
   20      C      -0.0028210361    -0.0022663142    -0.0270765691
   21      H      -0.7870814529    -0.4886052439    -0.6295588911
   22      O      -0.0442809306    -0.0130609643     1.2136983227
 ----------------------------------------------------------------
 Nuclear Repulsion Energy =         466.33060295 hartrees
 There are       35 alpha and       35 beta electrons
 Discretize the solute cavity surface with Lebedev spheres
	Using 302 Lebedev grid points for each H atom
	Using 302 Lebedev grid points for other atoms
	Atomic van der Waals radii will be scaled by 1.20
 Remove points where switching function is < 1.0e-08
 Keep 2710 surface tesserae and discard 3934 interior tesserae
 Molecular Surface Area = 183.004 Angst**2
 Applying Cartesian multipole field
    Component          Value
    ---------          -----
     (2,0,0)        1.00000E-12
     (0,2,0)        2.00000E-11
     (0,0,2)       -3.00000E-11
 Nucleus-field energy     =     0.0000000185 hartrees
 Requested basis set is 6-31+G(d)
 There are 71 shells and 197 basis functions
 A cutoff of  1.0D-14 yielded   2409 shell pairs
 There are     18981 function pairs
 Smallest overlap matrix eigenvalue = 2.45E-05
 Guess MOs from SCF MO coefficient file

 -----------------------------------------------------------------------
  General SCF calculation program by
  Eric Jon Sundstrom, Paul Horn, Yuezhi Mao, Dmitri Zuev, Alec White,
  David Stuck, Shaama M.S., Shane Yost, Joonho Lee, David Small,
  Daniel Levine, Susi Lehtola, Hugh Burton, Evgeny Epifanovsky,
  Bang C. Huynh
 -----------------------------------------------------------------------
 Exchange:     0.2000 Hartree-Fock + 0.0800 Slater + 0.7200 B88
 Correlation:  0.1900 VWN1RPA + 0.8100 LYP
 Using Euler-Maclaurin-Lebedev (99,590) quadrature formula
 using 16 threads for integral computing
 -------------------------------------------------------
 OpenMP Integral computing Module                
 Release: version 2.0, May 2017, Q-Chem Inc. Pleasanton 
 -------------------------------------------------------
 A restricted SCF calculation will be
 performed using Roothaan-Hall, DIIS
 SCF converges when DIIS error is below 1.0e-09
 ---------------------------------------
  Cycle       Energy         DIIS error
 ---------------------------------------
    1    -404.5818962953      6.31e-04  Roothaan Step
 ---------------------------------------
  Cycle       Energy         DIIS error
 ---------------------------------------
    1    -404.5901123899      1.30e-03  
    2    -404.5722121279      2.80e-03  
    3    -404.6019220983      2.23e-04  
    4    -404.6021074457      1.26e-04  
    5    -404.6021681341      3.84e-05  
    6    -404.6021742326      9.93e-06  
    7    -404.6021746093      3.41e-06  
    8    -404.6021746653      6.30e-07  
    9    -404.6021746670      2.65e-07  
   10    -404.6021746674      4.73e-08  
   11    -404.6021746674      1.21e-08  
   12    -404.6021746674      3.46e-09  
   13    -404.6021746674      4.07e-10  Convergence criterion met
 ---------------------------------------
 SCF time:   CPU 960.58s  wall 63.00s 

************** Final PCM Free Energy Summary **************
 G_electrostatic  =      -0.02019622 hartree =     -12.67331950 kcal/mol
 G_cavitation     =       0.00000000 hartree =       0.00000000 kcal/mol
 G_dispersion     =       0.00000000 hartree =       0.00000000 kcal/mol
 G_repulsion      =       0.00000000 hartree =       0.00000000 kcal/mol
 --------------------------------------------------
 Non-electrostatic Free Energy =       0.00000000 hartree =       0.00000000 kcal/mol
 Total                         =      -0.02019622 hartree =     -12.67331950 kcal/mol
 --------------------------------------------------
 SCF Energy (H0 + V/2)                       =    -404.60217467 
 Solute Internal Energy (H0)                 =    -404.58197845 
 Total Free Energy (H0 + V/2 + non-elec)     =    -404.60217467 hartree
                                             = -253891.69659097 kcal/mol
***********************************************************

 SCF   energy in the final basis set =     -404.6021746674
 Total energy in the final basis set =     -404.6021746674
 
 --------------------------------------------------------------
 
                    Orbital Energies (a.u.)
 --------------------------------------------------------------
 
 Alpha MOs
 -- Occupied --
-19.1348 -14.3718 -10.2939 -10.2254 -10.1824 -10.1820 -10.1796 -10.1795
-10.1774  -1.0386  -0.9333  -0.8241  -0.7427  -0.7406  -0.6369  -0.6108
 -0.5918  -0.5630  -0.5264  -0.4838  -0.4607  -0.4417  -0.4372  -0.4193
 -0.4177  -0.3951  -0.3782  -0.3735  -0.3472  -0.3429  -0.3214  -0.3116
 -0.3091  -0.2710  -0.2609
 -- Virtual --
  0.0084   0.0089   0.0178   0.0236   0.0262   0.0416   0.0480   0.0495
  0.0598   0.0700   0.0705   0.0840   0.0871   0.0956   0.1005   0.1054
  0.1128   0.1173   0.1262   0.1343   0.1409   0.1524   0.1570   0.1615
  0.1702   0.1800   0.1837   0.1897   0.1995   0.2030   0.2110   0.2141
  0.2216   0.2268   0.2307   0.2447   0.2484   0.2566   0.2642   0.2705
  0.2767   0.2815   0.2891   0.2907   0.2957   0.3026   0.3108   0.3262
  0.3303   0.3322   0.3595   0.3731   0.3849   0.3877   0.4177   0.4216
  0.4397   0.4608   0.4834   0.6102   0.6402   0.6565   0.6676   0.6679
  0.6845   0.6982   0.7311   0.7336   0.7471   0.7526   0.7757   0.7794
  0.8010   0.8060   0.8215   0.8522   0.8641   0.9128   0.9541   0.9758
  0.9803   0.9940   1.0235   1.0286   1.0310   1.0586   1.0904   1.1050
  1.1192   1.1244   1.1283   1.1428   1.1624   1.1728   1.1821   1.1911
  1.2404   1.2441   1.2821   1.3251   1.3446   1.3737   1.3901   1.4186
  1.4814   1.4860   1.4951   1.5679   1.5740   1.6151   1.6913   1.7329
  1.7343   1.7553   1.7705   1.8060   1.8521   1.8716   1.9029   1.9079
  1.9121   1.9391   1.9835   2.0107   2.0201   2.0450   2.0576   2.0851
  2.0934   2.1286   2.2010   2.2160   2.2782   2.3128   2.3170   2.3480
  2.3963   2.4100   2.4200   2.4252   2.4491   2.5608   2.5851   2.6199
  2.6731   2.6842   2.7055   2.7632   2.7818   2.8338   2.8621   2.9901
  3.1866   4.0943   4.1931   4.2282   4.2965   4.3340   4.4141   4.6044
  4.6112   4.6746
 --------------------------------------------------------------
 
          Ground-State Mulliken Net Atomic Charges

     Atom                 Charge (a.u.)
  ----------------------------------------
      1 C                    -0.269448
      2 C                    -0.431929
      3 C                    -0.288392
      4 C                    -0.453170
      5 C                    -0.381020
      6 C                    -0.456954
      7 H                     0.211227
      8 H                     0.226901
      9 H                     0.214916
     10 H                     0.210191
     11 H                     0.207542
     12 H                     0.203368
     13 H                     0.199326
     14 H                     0.203242
     15 H                     0.207459
     16 H                     0.203300
     17 H                     0.214865
     18 N                    -0.382501
     19 H                     0.453200
     20 C                     0.346073
     21 H                     0.185381
     22 O                    -0.623575
  ----------------------------------------
  Sum of atomic charges =     0.000000

 -----------------------------------------------------------------
                    Cartesian Multipole Moments
 -----------------------------------------------------------------
    Charge (ESU x 10^10)
                 0.0000
    Dipole Moment (Debye)
         X       2.3012      Y       1.4721      Z      -5.4017
       Tot       6.0531
    Quadrupole Moments (Debye-Ang)
        XX     -50.4510     XY       4.1905     YY     -54.2546
        XZ      -1.1224     YZ      -0.8648     ZZ     -57.4279
    Octopole Moments (Debye-Ang^2)
       XXX    -389.1871    XXY     -79.1131    XYY    -128.5809
       YYY    -261.8972    XXZ      13.6967    XYZ      -2.4315
       YYZ      15.7223    XZZ    -130.1011    YZZ     -85.7006
       ZZZ      35.5332
    Hexadecapole Moments (Debye-Ang^3)
      XXXX   -2976.0858   XXXY    -843.5489   XXYY    -741.4265
      XYYY    -856.6364   YYYY   -1510.9727   XXXZ     200.2681
      XXYZ      41.1921   XYYZ      66.9869   YYYZ     120.1368
      XXZZ    -541.3236   XYZZ    -284.3176   YYZZ    -297.1809
      XZZZ     198.7002   YZZZ     119.0079   ZZZZ    -252.2639
 -----------------------------------------------------------------
 Calculating analytic gradient of the SCF energy
 Gradient of SCF Energy
            1           2           3           4           5           6
    1   0.0038554   0.0024202  -0.0003863  -0.0055964  -0.0039571   0.0000832
    2  -0.0027411   0.0018434   0.0044484   0.0027010  -0.0031739  -0.0052826
    3   0.0088420   0.0004782   0.0100051  -0.0033809   0.0056829  -0.0037992
            7           8           9          10          11          12
    1   0.0004594   0.0017664  -0.0002752  -0.0013415   0.0000390   0.0025488
    2  -0.0023149   0.0010361  -0.0000997   0.0010349  -0.0000177  -0.0012685
    3   0.0000163  -0.0022234  -0.0066955  -0.0000166   0.0021616  -0.0017950
           13          14          15          16          17          18
    1   0.0020944  -0.0002692   0.0002581  -0.0002616  -0.0007332  -0.0001593
    2   0.0013107   0.0001410  -0.0002126   0.0028241   0.0003728   0.0001596
    3   0.0009432  -0.0043469   0.0019519  -0.0013903  -0.0069642   0.0137306
           19          20          21          22
    1  -0.0013551   0.0041041  -0.0020307  -0.0012633
    2  -0.0003454  -0.0007862  -0.0001041   0.0004747
    3  -0.0162824   0.0073271  -0.0054874   0.0012429
 Max gradient component =       1.628E-02
 RMS gradient           =       4.106E-03
 Computing fast CPCM-SWIG gradient
 Updating gradient with PCM contributions...
 -- total gradient after adding PCM contribution --
---------------------------------------------------
  Atom         X              Y              Z     
---------------------------------------------------
   1       0.000029       0.000092      -0.000055
   2      -0.000140       0.000077      -0.000100
   3       0.000044      -0.000082      -0.000101
   4       0.000007      -0.000017       0.000029
   5       0.000057       0.000040      -0.000035
   6      -0.000028       0.000042       0.000017
   7       0.000003       0.000000       0.000010
   8      -0.000052      -0.000053      -0.000034
   9       0.000011      -0.000012       0.000024
  10      -0.000002      -0.000007       0.000013
  11      -0.000019       0.000000      -0.000014
  12      -0.000014      -0.000006      -0.000007
  13      -0.000005      -0.000004       0.000011
  14      -0.000011      -0.000008       0.000009
  15      -0.000007      -0.000016      -0.000010
  16      -0.000002      -0.000003      -0.000003
  17       0.000000       0.000010       0.000025
  18      -0.000502       0.000329       0.000766
  19      -0.000094       0.000131      -0.000034
  20       0.001899      -0.002202      -0.001391
  21      -0.000542       0.000802       0.000123
  22      -0.000634       0.000887       0.000757
---------------------------------------------------
 Number of fixed atoms: 0
 Gradient time:  CPU 134.99 s  wall 12.07 s
 Geometry Optimization Parameters
   NAtoms,    NIC,     NZ,  NCons,   NDum,   NFix, NCnnct, MaxDiis
       22     172       0       0       0       0       0       0

 Cartesian Hessian Update
 Hessian updated using BFGS update


** GEOMETRY OPTIMIZATION IN DELOCALIZED INTERNAL COORDINATES **
   Searching for a Minimum

   Optimization Cycle:   4

                       Coordinates (Angstroms)
     ATOM                X               Y               Z
      1  C         1.9830446028    2.8307535045   -0.6404498338
      2  C         2.0953753048    1.3388107050   -0.2765497804
      3  C         3.4035296239    0.7298024044   -0.8118555654
      4  C         4.6289730665    1.5231098149   -0.3283176301
      5  C         4.5187452842    3.0128222039   -0.6900561754
      6  C         3.2112692813    3.6193743318   -0.1564312652
      7  H         3.4737968801   -0.3191504828   -0.4969738683
      8  H         2.0716620004    1.2340311512    0.8128478451
      9  H         1.8950012801    2.9211266662   -1.7336814015
     10  H         1.0631075494    3.2435895077   -0.2072225004
     11  H         4.7170632938    1.4210131570    0.7637824687
     12  H         5.5410880673    1.0908120475   -0.7596895898
     13  H         5.3811799557    3.5631217109   -0.2913758932
     14  H         4.5494361102    3.1234469894   -1.7846487835
     15  H         3.2325233846    3.6157171024    0.9437893828
     16  H         3.1213065252    4.6685918082   -0.4662849928
     17  H         3.3722804220    0.7361656495   -1.9120335512
     18  N         0.9375293835    0.5925878885   -0.7801275468
     19  H         0.8216784888    0.5312731028   -1.7871800749
     20  C        -0.0028210361   -0.0022663142   -0.0270765691
     21  H        -0.7870814529   -0.4886052439   -0.6295588911
     22  O        -0.0442809306   -0.0130609643    1.2136983227
   Point Group: c1    Number of degrees of freedom:    60


   Energy is   -404.602174667

 Hessian updated using BFGS update

 60 Hessian modes will be used to form the next step
  Hessian Eigenvalues:
     0.005966    0.006017    0.006968    0.007191    0.012622    0.019500
     0.019736    0.020846    0.037203    0.038488    0.039416    0.041919
     0.048449    0.048856    0.048959    0.055290    0.055719    0.056371
     0.060714    0.066924    0.081439    0.081550    0.081647    0.082027
     0.082136    0.083796    0.084483    0.087639    0.120967    0.121218
     0.143053    0.146836    0.159557    0.162898    0.175179    0.209603
     0.211966    0.223570    0.272287    0.272685    0.275535    0.286838
     0.286999    0.288027    0.328418    0.334414    0.334682    0.335760
     0.336546    0.336763    0.339276    0.339410    0.339450    0.340063
     0.340246    0.342360    0.363132    0.447569    0.458666    0.801353

 Minimum search - taking simple RFO step
 Searching for Lamda that Minimizes Along All modes
 Value Taken    Lamda =  -0.00004869
 Step Taken.  Stepsize is  0.023559

                             Maximum     Tolerance    Cnvgd?
         Gradient           0.001590      0.000100      NO
         Displacement       0.018596      0.000100      NO
         Energy change      0.000020      0.000000      NO


 New Cartesian Coordinates Obtained by Inverse Iteration

 Displacement from previous Coordinates is:  0.027619
 ----------------------------------------------------------------
             Standard Nuclear Orientation (Angstroms)
    I     Atom           X                Y                Z
 ----------------------------------------------------------------
    1      C       1.9833538381     2.8321638871    -0.6411988688
    2      C       2.0941989303     1.3402682359    -0.2771382381
    3      C       3.4020731918     0.7302683009    -0.8116269392
    4      C       4.6280047753     1.5225846177    -0.3276941957
    5      C       4.5190998460     3.0122362937    -0.6896976559
    6      C       3.2119745549     3.6198535761    -0.1567069405
    7      H       3.4713248783    -0.3187221825    -0.4966447189
    8      H       2.0704877486     1.2361306008     0.8123781926
    9      H       1.8957687112     2.9226009988    -1.7345143782
   10      H       1.0635495187     3.2458147967    -0.2084717971
   11      H       4.7157838641     1.4205765632     0.7644687424
   12      H       5.5399682568     1.0895826055    -0.7586873503
   13      H       5.3818256488     3.5619471854    -0.2908244169
   14      H       4.5503825440     3.1227206861    -1.7843115191
   15      H       3.2328107883     3.6164919768     0.9435478984
   16      H       3.1230651615     4.6691001109    -0.4667731175
   17      H       3.3713543670     0.7363883197    -1.9118738878
   18      N       0.9358207446     0.5949753140    -0.7810125017
   19      H       0.8197418010     0.5324738316    -1.7879064631
   20      C      -0.0045594155     0.0005316099    -0.0260736457
   21      H      -0.7829234314    -0.4953329160    -0.6286889018
   22      O      -0.0386992374    -0.0195876716     1.2140548092
 ----------------------------------------------------------------
 Nuclear Repulsion Energy =         466.34069830 hartrees
 There are       35 alpha and       35 beta electrons
 Discretize the solute cavity surface with Lebedev spheres
	Using 302 Lebedev grid points for each H atom
	Using 302 Lebedev grid points for other atoms
	Atomic van der Waals radii will be scaled by 1.20
 Remove points where switching function is < 1.0e-08
 Keep 2708 surface tesserae and discard 3936 interior tesserae
 Molecular Surface Area = 183.004 Angst**2
 Applying Cartesian multipole field
    Component          Value
    ---------          -----
     (2,0,0)        1.00000E-12
     (0,2,0)        2.00000E-11
     (0,0,2)       -3.00000E-11
 Nucleus-field energy     =     0.0000000185 hartrees
 Requested basis set is 6-31+G(d)
 There are 71 shells and 197 basis functions
 A cutoff of  1.0D-14 yielded   2409 shell pairs
 There are     18981 function pairs
 Smallest overlap matrix eigenvalue = 2.44E-05
 Guess MOs from SCF MO coefficient file

 -----------------------------------------------------------------------
  General SCF calculation program by
  Eric Jon Sundstrom, Paul Horn, Yuezhi Mao, Dmitri Zuev, Alec White,
  David Stuck, Shaama M.S., Shane Yost, Joonho Lee, David Small,
  Daniel Levine, Susi Lehtola, Hugh Burton, Evgeny Epifanovsky,
  Bang C. Huynh
 -----------------------------------------------------------------------
 Exchange:     0.2000 Hartree-Fock + 0.0800 Slater + 0.7200 B88
 Correlation:  0.1900 VWN1RPA + 0.8100 LYP
 Using Euler-Maclaurin-Lebedev (99,590) quadrature formula
 using 16 threads for integral computing
 -------------------------------------------------------
 OpenMP Integral computing Module                
 Release: version 2.0, May 2017, Q-Chem Inc. Pleasanton 
 -------------------------------------------------------
 A restricted SCF calculation will be
 performed using Roothaan-Hall, DIIS
 SCF converges when DIIS error is below 1.0e-09
 ---------------------------------------
  Cycle       Energy         DIIS error
 ---------------------------------------
    1    -404.5819756384      6.27e-04  Roothaan Step
 ---------------------------------------
  Cycle       Energy         DIIS error
 ---------------------------------------
    1    -404.5903093034      1.28e-03  
    2    -404.5729871578      2.77e-03  
    3    -404.6019515739      2.21e-04  
    4    -404.6021332966      1.25e-04  
    5    -404.6021925327      3.85e-05  
    6    -404.6021986414      9.93e-06  
    7    -404.6021990178      3.40e-06  
    8    -404.6021990736      6.30e-07  
    9    -404.6021990753      2.65e-07  
   10    -404.6021990757      4.74e-08  
   11    -404.6021990757      1.21e-08  
   12    -404.6021990757      3.45e-09  
   13    -404.6021990757      4.05e-10  Convergence criterion met
 ---------------------------------------
 SCF time:   CPU 953.32s  wall 63.00s 

************** Final PCM Free Energy Summary **************
 G_electrostatic  =      -0.02012245 hartree =     -12.62702687 kcal/mol
 G_cavitation     =       0.00000000 hartree =       0.00000000 kcal/mol
 G_dispersion     =       0.00000000 hartree =       0.00000000 kcal/mol
 G_repulsion      =       0.00000000 hartree =       0.00000000 kcal/mol
 --------------------------------------------------
 Non-electrostatic Free Energy =       0.00000000 hartree =       0.00000000 kcal/mol
 Total                         =      -0.02012245 hartree =     -12.62702687 kcal/mol
 --------------------------------------------------
 SCF Energy (H0 + V/2)                       =    -404.60219908 
 Solute Internal Energy (H0)                 =    -404.58207663 
 Total Free Energy (H0 + V/2 + non-elec)     =    -404.60219908 hartree
                                             = -253891.71190740 kcal/mol
***********************************************************

 SCF   energy in the final basis set =     -404.6021990757
 Total energy in the final basis set =     -404.6021990757
 
 --------------------------------------------------------------
 
                    Orbital Energies (a.u.)
 --------------------------------------------------------------
 
 Alpha MOs
 -- Occupied --
-19.1349 -14.3717 -10.2940 -10.2253 -10.1824 -10.1820 -10.1796 -10.1794
-10.1774  -1.0389  -0.9331  -0.8241  -0.7426  -0.7406  -0.6367  -0.6108
 -0.5917  -0.5630  -0.5263  -0.4837  -0.4607  -0.4416  -0.4372  -0.4193
 -0.4179  -0.3951  -0.3781  -0.3736  -0.3472  -0.3428  -0.3214  -0.3116
 -0.3091  -0.2711  -0.2609
 -- Virtual --
  0.0086   0.0087   0.0179   0.0236   0.0262   0.0416   0.0480   0.0495
  0.0598   0.0700   0.0705   0.0839   0.0871   0.0957   0.1005   0.1054
  0.1128   0.1173   0.1262   0.1343   0.1409   0.1524   0.1570   0.1615
  0.1703   0.1800   0.1837   0.1898   0.1997   0.2028   0.2111   0.2141
  0.2216   0.2269   0.2306   0.2447   0.2484   0.2566   0.2642   0.2704
  0.2768   0.2815   0.2891   0.2907   0.2957   0.3026   0.3109   0.3262
  0.3304   0.3322   0.3595   0.3731   0.3846   0.3877   0.4178   0.4215
  0.4397   0.4609   0.4836   0.6103   0.6401   0.6566   0.6676   0.6680
  0.6845   0.6982   0.7310   0.7337   0.7478   0.7521   0.7759   0.7792
  0.8012   0.8060   0.8217   0.8520   0.8641   0.9127   0.9543   0.9757
  0.9803   0.9940   1.0235   1.0285   1.0311   1.0586   1.0904   1.1050
  1.1192   1.1244   1.1284   1.1429   1.1625   1.1728   1.1822   1.1911
  1.2400   1.2447   1.2821   1.3251   1.3444   1.3735   1.3904   1.4187
  1.4801   1.4876   1.4949   1.5673   1.5744   1.6148   1.6912   1.7330
  1.7343   1.7552   1.7706   1.8059   1.8528   1.8707   1.9030   1.9079
  1.9121   1.9393   1.9835   2.0107   2.0200   2.0451   2.0576   2.0852
  2.0935   2.1286   2.2010   2.2164   2.2779   2.3137   2.3161   2.3483
  2.3964   2.4102   2.4201   2.4252   2.4492   2.5610   2.5851   2.6200
  2.6733   2.6844   2.7053   2.7631   2.7816   2.8338   2.8627   2.9907
  3.1863   4.0942   4.1932   4.2283   4.2965   4.3341   4.4143   4.6045
  4.6112   4.6748
 --------------------------------------------------------------
 
          Ground-State Mulliken Net Atomic Charges

     Atom                 Charge (a.u.)
  ----------------------------------------
      1 C                    -0.269128
      2 C                    -0.431487
      3 C                    -0.289250
      4 C                    -0.453049
      5 C                    -0.381024
      6 C                    -0.456799
      7 H                     0.211195
      8 H                     0.226897
      9 H                     0.214829
     10 H                     0.210118
     11 H                     0.207530
     12 H                     0.203362
     13 H                     0.199307
     14 H                     0.203230
     15 H                     0.207429
     16 H                     0.203257
     17 H                     0.214837
     18 N                    -0.383308
     19 H                     0.453166
     20 C                     0.346320
[...]

 Mode:                40                     41                     42
 Frequency:      1404.07                1493.52                1495.84
 Force Cnst:      1.7065                 1.4301                 1.4332
 Red. Mass:       1.4692                 1.0882                 1.0872
 IR Active:          YES                    YES                    YES
 IR Intens:        0.492                  0.117                  5.703
 Raman Active:       YES                    YES                    YES
               X      Y      Z        X      Y      Z        X      Y      Z
 C         -0.049 -0.098 -0.016   -0.037  0.014 -0.030   -0.001 -0.013  0.002
 C          0.084  0.058  0.003   -0.010  0.014  0.001    0.006  0.004  0.003
 C         -0.111 -0.008 -0.007    0.004  0.034  0.032   -0.012  0.005  0.005
 C          0.002 -0.048 -0.002    0.025 -0.005  0.021   -0.014  0.016 -0.016
 C          0.010  0.007 -0.006    0.007 -0.013  0.000    0.047  0.035 -0.042
 C         -0.044  0.020  0.003   -0.006 -0.023 -0.023    0.008 -0.019 -0.021
 H          0.396  0.055  0.066    0.007 -0.105 -0.386    0.012 -0.010 -0.051
 H         -0.394 -0.275 -0.036    0.042 -0.064 -0.006   -0.020 -0.015 -0.000
 H          0.185  0.267  0.003    0.379 -0.158 -0.066   -0.012  0.060  0.007
 H          0.202  0.334  0.087    0.130 -0.094  0.394   -0.005  0.017 -0.036
 H          0.007  0.058  0.009   -0.262  0.084  0.044    0.191 -0.144 -0.042
 H          0.150  0.234  0.025   -0.089  0.060 -0.261    0.086 -0.034  0.224
 H          0.031  0.025 -0.060    0.005  0.002 -0.015   -0.145 -0.146  0.567
 H          0.054  0.038 -0.008   -0.025  0.066  0.007   -0.497 -0.327 -0.079
 H          0.061 -0.015  0.002    0.022  0.278 -0.015   -0.064  0.254 -0.013
 H          0.273  0.049  0.010   -0.004  0.075  0.271    0.018  0.072  0.251
 H          0.319  0.078 -0.012    0.003 -0.390  0.019    0.053 -0.047 -0.000
 N          0.025  0.015  0.014   -0.000 -0.000  0.000    0.001  0.000  0.000
 H         -0.096 -0.063  0.034    0.002  0.001 -0.000   -0.006 -0.004  0.002
 C         -0.021 -0.013 -0.005    0.000  0.000 -0.000   -0.001 -0.000 -0.000
 H         -0.028 -0.017 -0.014   -0.000  0.001  0.000   -0.001 -0.001 -0.001
 O          0.003  0.002  0.004   -0.000  0.000 -0.000    0.000  0.000 -0.000
 TransDip  -0.020 -0.008 -0.006    0.009 -0.007 -0.001   -0.021 -0.019  0.071

 Mode:                43                     44                     45
 Frequency:      1498.96                1499.86                1511.85
 Force Cnst:      1.4545                 1.4492                 1.4827
 Red. Mass:       1.0987                 1.0934                 1.1010
 IR Active:          YES                    YES                    YES
 IR Intens:        7.698                 10.500                  0.590
 Raman Active:       YES                    YES                    YES
               X      Y      Z        X      Y      Z        X      Y      Z
 C         -0.034  0.020 -0.019   -0.024  0.022 -0.020   -0.028  0.022 -0.016
 C          0.001 -0.005 -0.001   -0.013 -0.008 -0.004   -0.010 -0.006 -0.007
 C         -0.002  0.025  0.015    0.011 -0.040 -0.032    0.009 -0.032 -0.021
 C         -0.046  0.021 -0.028   -0.021  0.012 -0.014    0.031 -0.021  0.017
 C         -0.001 -0.003  0.001   -0.018 -0.013  0.012    0.031  0.022 -0.017
 C          0.001  0.038  0.027    0.003 -0.034 -0.025   -0.006  0.034  0.021
 H         -0.015 -0.047 -0.208   -0.030  0.105  0.414   -0.002  0.073  0.308
 H         -0.003  0.011 -0.000    0.019  0.014 -0.004    0.018  0.013 -0.006
 H          0.294 -0.164 -0.051    0.277 -0.159 -0.052    0.264 -0.163 -0.048
 H          0.097 -0.057  0.313    0.086 -0.093  0.297    0.087 -0.060  0.289
 H          0.408 -0.191 -0.071    0.220 -0.087 -0.038   -0.275  0.150  0.049
 H          0.137 -0.072  0.421    0.057 -0.070  0.215   -0.085  0.059 -0.294
 H         -0.014  0.031 -0.017    0.037  0.033 -0.165   -0.062 -0.067  0.294
 H          0.026 -0.002  0.001    0.144  0.097  0.021   -0.263 -0.175 -0.038
 H          0.025 -0.361  0.014   -0.010  0.351 -0.015    0.038 -0.314  0.011
 H         -0.023 -0.084 -0.347   -0.022  0.080  0.333    0.001 -0.067 -0.305
 H          0.029 -0.218  0.006   -0.060  0.427 -0.017   -0.056  0.317 -0.010
 N         -0.000  0.001  0.000    0.001  0.001  0.000   -0.007 -0.004  0.003
 H          0.001  0.000 -0.000    0.011  0.007 -0.001    0.048  0.030 -0.006
 C          0.000  0.000 -0.000    0.001  0.000 -0.001    0.006  0.004 -0.005
 H          0.000 -0.001  0.000    0.000  0.000  0.001    0.004  0.003  0.004
 O         -0.000 -0.000  0.000   -0.000 -0.000  0.001   -0.001 -0.000  0.002
 TransDip   0.057 -0.068  0.007    0.046  0.039  0.085    0.021  0.011 -0.006

 Mode:                46                     47                     48
 Frequency:      1556.81                1666.86                2242.86
 Force Cnst:      2.5171                13.9158                 7.0955
 Red. Mass:       1.7627                 8.5007                 2.3940
 IR Active:          YES                    YES                    YES
 IR Intens:      271.895                925.461                 98.514
 Raman Active:       YES                    YES                    YES
               X      Y      Z        X      Y      Z        X      Y      Z
 C          0.007  0.002  0.007   -0.017 -0.004 -0.012   -0.000 -0.000  0.000
 C          0.059  0.039 -0.044    0.023  0.014  0.024    0.002  0.002  0.000
 C          0.005  0.007  0.007   -0.011 -0.012 -0.013   -0.001 -0.000  0.000
 C         -0.007 -0.005 -0.001    0.000  0.007  0.005   -0.000  0.000  0.000
 C         -0.000 -0.000  0.002   -0.001 -0.001 -0.001   -0.000 -0.000 -0.000
 C         -0.006 -0.004 -0.001    0.008 -0.003  0.004    0.000 -0.000  0.000
 H          0.010  0.001 -0.024    0.018 -0.002  0.023    0.001 -0.000 -0.000
 H         -0.272 -0.175 -0.078   -0.055 -0.035  0.038    0.006  0.003  0.002
 H         -0.033 -0.046  0.002    0.021  0.026 -0.016   -0.000  0.000  0.000
 H          0.002  0.017 -0.026    0.005  0.014  0.025    0.000  0.001 -0.000
 H          0.033  0.005 -0.004   -0.004 -0.001  0.007   -0.000 -0.000  0.000
 H          0.013  0.011  0.027   -0.027 -0.030 -0.022   -0.000 -0.000 -0.000
 H          0.006  0.007 -0.022   -0.003 -0.003  0.013   -0.000 -0.000  0.000
 H          0.014  0.009  0.003   -0.004 -0.002 -0.003   -0.000 -0.000 -0.000
 H          0.016  0.027 -0.002   -0.003 -0.005  0.006   -0.000 -0.000  0.000
 H          0.014  0.004  0.024   -0.040 -0.011 -0.021   -0.000  0.000 -0.000
 H         -0.057 -0.013  0.004    0.029  0.010 -0.018    0.000 -0.000  0.001
 N         -0.164 -0.105  0.058    0.040  0.027 -0.113    0.013  0.008 -0.001
 H          0.752  0.476 -0.076    0.381  0.236 -0.167   -0.049 -0.031 -0.001
 C          0.086  0.054 -0.020   -0.141 -0.090  0.648   -0.136 -0.086 -0.109
 H          0.100  0.064  0.067    0.320  0.205  0.003    0.702  0.447  0.516
 O         -0.009 -0.006 -0.010    0.009  0.005 -0.383    0.004  0.002  0.017
 TransDip   0.401  0.256 -0.229   -0.411 -0.265  0.843   -0.185 -0.118 -0.230

 Mode:                49                     50                     51
 Frequency:      3014.17                3015.08                3018.53
 Force Cnst:      5.7224                 5.7217                 5.7183
 Red. Mass:       1.0690                 1.0683                 1.0652
 IR Active:          YES                    YES                    YES
 IR Intens:       35.154                 50.169                 10.096
 Raman Active:       YES                    YES                    YES
               X      Y      Z        X      Y      Z        X      Y      Z
 C          0.003 -0.002 -0.001    0.012 -0.007  0.030   -0.003  0.001  0.013
 C          0.000  0.000 -0.002   -0.001  0.001  0.001    0.001  0.001 -0.003
 C         -0.001  0.007  0.009   -0.001 -0.013 -0.041   -0.000  0.015  0.037
 C          0.000 -0.002  0.019    0.012 -0.007  0.037   -0.002  0.001 -0.012
 C          0.019  0.018 -0.059    0.002  0.003 -0.009    0.016  0.011 -0.007
 C         -0.000  0.002  0.029   -0.000 -0.010 -0.029    0.001 -0.024 -0.048
 H          0.008 -0.086  0.031   -0.009  0.159 -0.060    0.013 -0.180  0.065
 H         -0.000 -0.002  0.020    0.001 -0.000 -0.009   -0.001 -0.005  0.043
 H          0.002  0.001 -0.002   -0.029  0.033 -0.420   -0.011  0.014 -0.138
 H         -0.040  0.021  0.021   -0.114  0.049  0.064    0.043 -0.021 -0.019
 H         -0.018  0.022 -0.233   -0.036  0.044 -0.504    0.011 -0.015  0.149
 H          0.014 -0.002 -0.002   -0.097  0.043  0.057    0.009 -0.002 -0.006
 H         -0.210 -0.131 -0.116   -0.025 -0.021 -0.016   -0.188 -0.121 -0.094
 H         -0.016 -0.078  0.834   -0.002 -0.013  0.122    0.000 -0.012  0.166
 H         -0.007  0.003 -0.362    0.009 -0.006  0.398    0.014 -0.012  0.680
 H          0.005 -0.019  0.012   -0.008  0.125 -0.047   -0.024  0.296 -0.103
 H         -0.002  0.004 -0.137    0.014 -0.009  0.550   -0.012  0.010 -0.513
 N          0.000  0.000 -0.000    0.000 -0.000 -0.000   -0.000 -0.000  0.000
 H         -0.001 -0.000 -0.000    0.001 -0.000  0.000   -0.002 -0.000 -0.000
 C         -0.000 -0.000  0.000    0.000 -0.000  0.000    0.000  0.000 -0.001
 H          0.000  0.000  0.000   -0.000  0.000 -0.000   -0.000 -0.000  0.000
 O          0.000  0.000 -0.000    0.000 -0.000 -0.000    0.000  0.000  0.000
 TransDip   0.135  0.131 -0.028    0.135 -0.176 -0.048    0.048  0.001 -0.090

 Mode:                52                     53                     54
 Frequency:      3019.33                3021.12                3062.04
 Force Cnst:      5.7046                 5.7130                 6.0476
 Red. Mass:       1.0621                 1.0624                 1.0947
 IR Active:          YES                    YES                    YES
 IR Intens:       19.932                144.554                121.792
 Raman Active:       YES                    YES                    YES
               X      Y      Z        X      Y      Z        X      Y      Z
 C          0.016 -0.009  0.028   -0.026  0.015 -0.042   -0.010  0.005  0.014
 C          0.000  0.000 -0.000   -0.001 -0.001  0.007    0.000  0.001 -0.007
 C          0.001 -0.017 -0.016    0.001 -0.015 -0.029    0.002 -0.014  0.013
 C         -0.030  0.017 -0.042   -0.014  0.007 -0.005   -0.016  0.008  0.003
 C          0.013  0.009 -0.006    0.011  0.009 -0.011   -0.054 -0.032 -0.049
 C         -0.000  0.005  0.003    0.002 -0.021 -0.012    0.002 -0.020  0.003
 H         -0.016  0.209 -0.071   -0.014  0.185 -0.064   -0.013  0.171 -0.052
 H         -0.001  0.000  0.008    0.002  0.008 -0.090   -0.001 -0.008  0.086
 H         -0.028  0.034 -0.429    0.042 -0.052  0.649   -0.009  0.010 -0.104
 H         -0.164  0.074  0.088    0.267 -0.122 -0.142    0.133 -0.062 -0.064
 H          0.043 -0.056  0.663    0.007 -0.011  0.141    0.001 -0.004  0.042
 H          0.308 -0.145 -0.163    0.155 -0.075 -0.079    0.185 -0.088 -0.089
 H         -0.153 -0.095 -0.076   -0.135 -0.085 -0.067    0.659  0.419  0.308
 H          0.001 -0.013  0.149   -0.002 -0.017  0.194   -0.016 -0.035  0.290
 H         -0.003  0.002 -0.049    0.005 -0.007  0.219   -0.000 -0.003  0.032
 H          0.007 -0.064  0.021   -0.024  0.255 -0.083   -0.021  0.238 -0.072
 H          0.008 -0.008  0.254    0.010 -0.008  0.415   -0.002 -0.001 -0.103
 N         -0.000 -0.000  0.000    0.000  0.000  0.000   -0.000 -0.000  0.000
 H          0.001 -0.001  0.000    0.003  0.002  0.001   -0.001 -0.000 -0.001
 C          0.000  0.000 -0.000   -0.000  0.000  0.001    0.000  0.000 -0.000
 H         -0.000 -0.000  0.000    0.000  0.000 -0.000   -0.000 -0.000 -0.000
 O         -0.000 -0.000  0.000   -0.000 -0.000 -0.000    0.000  0.000  0.000
 TransDip  -0.017  0.029 -0.139   -0.110 -0.027 -0.368   -0.284 -0.198 -0.071

 Mode:                55                     56                     57
 Frequency:      3063.37                3066.96                3068.37
 Force Cnst:      6.0637                 6.0776                 6.0865
 Red. Mass:       1.0967                 1.0967                 1.0972
 IR Active:          YES                    YES                    YES
 IR Intens:      132.141                 77.795                102.711
 Raman Active:       YES                    YES                    YES
               X      Y      Z        X      Y      Z        X      Y      Z
 C          0.014 -0.007 -0.004    0.017 -0.008 -0.006   -0.034  0.014  0.033
 C         -0.000  0.001  0.000    0.001  0.000  0.004   -0.000  0.002 -0.026
 C          0.001 -0.014  0.002   -0.002  0.021 -0.004    0.004 -0.046  0.033
 C          0.041 -0.018 -0.040   -0.039  0.018  0.040   -0.005  0.002  0.020
 C          0.002  0.001  0.002    0.006  0.002  0.025    0.018  0.010  0.023
 C          0.004 -0.051  0.037    0.005 -0.044  0.033    0.001 -0.006  0.017
 H         -0.011  0.165 -0.051    0.017 -0.249  0.076   -0.036  0.554 -0.169
 H         -0.000  0.001 -0.002    0.001  0.005 -0.059   -0.004 -0.028  0.324
 H         -0.001  0.001 -0.027    0.000 -0.000 -0.021   -0.023  0.019 -0.202
 H         -0.161  0.072  0.077   -0.202  0.091  0.096    0.421 -0.189 -0.201
 H          0.026 -0.025  0.240   -0.027  0.028 -0.251   -0.018  0.020 -0.197
 H         -0.513  0.242  0.244    0.494 -0.235 -0.236    0.087 -0.041 -0.041
 H         -0.018 -0.013 -0.009   -0.082 -0.052 -0.038   -0.222 -0.142 -0.104
 H          0.002  0.001 -0.016    0.009  0.027 -0.253    0.008  0.020 -0.174
 H         -0.005 -0.006 -0.261   -0.003 -0.006 -0.239   -0.003 -0.001 -0.177
 H         -0.051  0.615 -0.184   -0.046  0.531 -0.159   -0.007  0.082 -0.024
 H          0.001 -0.002  0.027   -0.002  0.003 -0.018   -0.007 -0.007 -0.232
 N          0.000 -0.000 -0.000   -0.000 -0.000  0.000    0.000  0.000  0.000
 H          0.000 -0.000  0.000   -0.000 -0.000  0.001   -0.001 -0.000 -0.004
 C          0.000 -0.000 -0.000    0.000  0.000 -0.000    0.000  0.000 -0.000
 H         -0.000  0.000  0.000   -0.000 -0.000  0.000   -0.000 -0.000 -0.000
 O         -0.000  0.000  0.000   -0.000 -0.000  0.000    0.000  0.000  0.000
 TransDip   0.210 -0.302 -0.013   -0.057 -0.045  0.273   -0.058 -0.078  0.310

 Mode:                58                     59                     60
 Frequency:      3070.20                3096.73                3577.56
 Force Cnst:      6.1127                 6.1468                 8.1328
 Red. Mass:       1.1006                 1.0879                 1.0785
 IR Active:          YES                    YES                    YES
 IR Intens:       47.011                 65.427                 70.220
 Raman Active:       YES                    YES                    YES
               X      Y      Z        X      Y      Z        X      Y      Z
 C          0.043 -0.018 -0.047    0.012 -0.005 -0.019   -0.000 -0.000  0.000
 C          0.000 -0.001  0.002    0.002  0.007 -0.078    0.001  0.001 -0.000
 C          0.003 -0.046  0.037   -0.001  0.015 -0.017   -0.000 -0.000  0.000
 C         -0.006  0.002  0.015    0.000  0.000 -0.004   -0.000  0.000  0.000
 C         -0.001  0.000 -0.001   -0.001 -0.001 -0.001    0.000  0.000  0.000
 C         -0.001  0.009 -0.015   -0.000  0.000 -0.004    0.000 -0.000  0.000
 H         -0.037  0.555 -0.169    0.014 -0.179  0.054   -0.000  0.000 -0.000
 H          0.001  0.001 -0.024   -0.019 -0.087  0.928    0.003  0.001  0.011
 H          0.031 -0.029  0.305    0.014 -0.018  0.155   -0.000 -0.001 -0.000
 H         -0.544  0.244  0.258   -0.157  0.073  0.075    0.000 -0.000 -0.000
 H         -0.012  0.012 -0.130    0.006 -0.003  0.047    0.000  0.000 -0.000
 H          0.087 -0.041 -0.041   -0.004  0.002  0.003    0.000 -0.000 -0.000
 H          0.010  0.004  0.004    0.013  0.008  0.006   -0.000 -0.000 -0.000
 H         -0.001  0.001  0.007   -0.001 -0.002  0.010   -0.000  0.000 -0.000
 H          0.004  0.001  0.149    0.003  0.001  0.048    0.000  0.000 -0.000
 H          0.009 -0.106  0.031    0.001 -0.005  0.002   -0.000  0.000 -0.000
 H         -0.007 -0.005 -0.270   -0.001  0.002  0.153   -0.002  0.000 -0.000
 N         -0.000  0.000  0.000   -0.001 -0.001  0.001   -0.007 -0.004 -0.073
 H         -0.000  0.000  0.000    0.003  0.002 -0.010    0.112  0.061  0.989
 C          0.000 -0.000  0.000    0.001  0.000 -0.002   -0.002 -0.001 -0.000
 H          0.000  0.000  0.000   -0.001 -0.001 -0.000    0.002  0.001  0.000
 O         -0.000  0.000 -0.000    0.000  0.000  0.001   -0.000 -0.000  0.001
 TransDip   0.127 -0.176 -0.033   -0.017  0.015 -0.258   -0.037 -0.025  0.265

 STANDARD THERMODYNAMIC QUANTITIES AT   298.18 K  AND     1.00 ATM

   This Molecule has  1 Imaginary Frequencies
   Zero point vibrational energy:      121.833 kcal/mol

   Atom    1 Element C  Has Mass   12.00000
   Atom    2 Element C  Has Mass   12.00000
   Atom    3 Element C  Has Mass   12.00000
   Atom    4 Element C  Has Mass   12.00000
   Atom    5 Element C  Has Mass   12.00000
   Atom    6 Element C  Has Mass   12.00000
   Atom    7 Element H  Has Mass    1.00783
   Atom    8 Element H  Has Mass    1.00783
   Atom    9 Element H  Has Mass    1.00783
   Atom   10 Element H  Has Mass    1.00783
   Atom   11 Element H  Has Mass    1.00783
   Atom   12 Element H  Has Mass    1.00783
   Atom   13 Element H  Has Mass    1.00783
   Atom   14 Element H  Has Mass    1.00783
   Atom   15 Element H  Has Mass    1.00783
   Atom   16 Element H  Has Mass    1.00783
   Atom   17 Element H  Has Mass    1.00783
   Atom   18 Element N  Has Mass   14.00307
   Atom   19 Element H  Has Mass    1.00783
   Atom   20 Element C  Has Mass   12.00000
   Atom   21 Element H  Has Mass    2.01410
   Atom   22 Element O  Has Mass   15.99491
   Molecular Mass:   128.106042 amu
   Principal axes and moments of inertia in amu*Bohr^2:
                             1           2           3
    Eigenvalues --      537.54605  2029.52735  2231.33144
          X               0.82508    -0.52902     0.19847
          Y               0.53968     0.84187     0.00045
          Z              -0.16732     0.10674     0.98011
   Rotational Symmetry Number is   1
   The Molecule is an Asymmetric Top
   Translational Enthalpy:        0.889 kcal/mol
   Rotational Enthalpy:           0.889 kcal/mol
   Vibrational Enthalpy:        125.115 kcal/mol
   gas constant (RT):             0.593 kcal/mol
   Translational Entropy:        40.457  cal/mol.K
   Rotational Entropy:           29.278  cal/mol.K
   Vibrational Entropy:          18.112  cal/mol.K

   Total Enthalpy:              127.485 kcal/mol
   Total Entropy:                87.846  cal/mol.K
Archival summary:
1\1\node028\FREQ\ProcedureUnspecified\6-31+G*\11713\ymao90\SunAug822:48:472021SunAug822:48:472021\0\\#,FREQ,ProcedureUnspecified,6-31+G*,\\0,1\N\H,1,1.01547\C,1,1.34441,2,116.73\H,3,1.1022,1,112.698,2,0.773111,0\O,3,1.24075,1,125.979,2,-179.345,0\C,1,1.46681,2,117.526,3,-178.973,0\H,6,1.09472,1,106.038,2,-176.566,0\C,6,1.53893,1,110.516,2,-58.5224,0\H,8,1.09745,6,109.445,1,-59.069,0\H,8,1.10069,6,108.741,1,57.608,0\C,8,1.53781,6,111.345,1,178.345,0\H,11,1.0977,8,109.604,6,-177.629,0\H,11,1.10042,8,109.154,6,65.8815,0\C,11,1.53689,8,111.64,6,-54.9688,0\H,14,1.098,11,110.122,8,177.256,0\H,14,1.10062,11,109.239,8,-65.777,0\C,14,1.53685,11,111.217,8,54.8674,0\H,17,1.09772,14,110.421,11,-177.065,0\H,17,1.10045,14,109.233,11,65.9302,0\C,17,1.53775,14,111.578,11,-54.8766,0\H,20,1.09746,17,110.631,14,176.939,0\H,20,1.10054,17,109.536,14,-65.2251,0\\\@

 Total job time:  957.84s(wall), 13430.27s(cpu) 
 Sun Aug  8 22:48:47 2021

        *************************************************************
        *                                                           *
        *  Thank you very much for using Q-Chem.  Have a nice day.  *
        *                                                           *
        *************************************************************


