                  Welcome to Q-Chem
     A Quantum Leap Into The Future Of Chemistry


 Q-Chem 5.2 (devel), Q-Chem, Inc., Pleasanton, CA (2019)

 Yihan Shao,  Zhengting Gan,  E. Epifanovsky,  A. T. B. Gilbert,  M. Wormit,  
 J. Kussmann,  A. W. Lange,  A. Behn,  Jia Deng,  Xintian Feng,  D. Ghosh,  
 M. Goldey,  P. R. Horn,  L. D. Jacobson,  I. Kaliman,  T. Kus,  A. Landau,  
 Jie Liu,  E. I. Proynov,  R. M. Richard,  R. P. Steele,  E. J. Sundstrom,  
 H. L. Woodcock III,  P. M. Zimmerman,  D. Zuev,  B. Alam,  B. Albrecht,  
 E. Alguire,  S. A. Baeppler,  D. Barton,  Z. Benda,  Y. A. Bernard,  
 E. J. Berquist,  K. B. Bravaya,  H. Burton,  K. Carter-Fenk,  D. Casanova,  
 Chun-Min Chang,  Yunqing Chen,  A. Chien,  K. D. Closser,  M. P. Coons,  
 S. Coriani,  S. Dasgupta,  A. L. Dempwolff,  M. Diedenhofen,  Hainam Do,  
 R. G. Edgar,  Po-Tung Fang,  S. Faraji,  S. Fatehi,  Qingguo Feng,  
 J. Fosso-Tande,  J. Gayvert,  Qinghui Ge,  A. Ghysels,  G. Gidofalvi,  
 J. Gomes,  J. Gonthier,  A. Gunina,  D. Hait,  M. W. D. Hanson-Heine,  
 P. H. P. Harbach,  A. W. Hauser,  M. F. Herbst,  J. E. Herr,  
 E. G. Hohenstein,  Z. C. Holden,  Kerwin Hui,  B. C. Huynh,  T.-C. Jagau,  
 Hyunjun Ji,  B. Kaduk,  K. Khistyaev,  Jaehoon Kim,  P. Klunzinger,  K. Koh,  
 D. Kosenkov,  L. Koulias,  T. Kowalczyk,  C. M. Krauter,  A. Kunitsa,  
 Ka Un Lao,  A. Laurent,  K. V. Lawler,  Joonho Lee,  D. Lefrancois,  
 S. Lehtola,  D. S. Levine,  Yi-Pei Li,  You-Sheng Lin,  Fenglai Liu,  
 Kuan-Yu Liu,  E. Livshits,  M. Loipersberger,  A. Luenser,  P. Manohar,  
 E. Mansoor,  S. F. Manzer,  Shan-Ping Mao,  Yuezhi Mao,  N. Mardirossian,  
 A. V. Marenich,  T. Markovich,  L. A. Martinez-Martinez,  S. A. Maurer,  
 N. J. Mayhall,  S. C. McKenzie,  J.-M. Mewes,  P. Morgante,  A. F. Morrison,  
 J. W. Mullinax,  K. Nanda,  T. S. Nguyen-Beck,  R. Olivares-Amaya,  
 J. A. Parkhill,  S. K. Paul,  F. Pavosevic,  Zheng Pei,  T. M. Perrine,  
 F. Plasser,  P. Pokhilko,  S. Prager,  A. Prociuk,  E. Ramos,  B. Rana,  
 D. R. Rehn,  F. Rob,  M. Scheurer,  M. Schneider,  N. Sergueev,  
 S. M. Sharada,  S. Sharma,  D. W. Small,  T. Stauch,  C. J. Stein,  
 T. Stein,  Yu-Chuan Su,  S. P. Veccham,  Zhen Tao,  A. J. W. Thom,  
 A. Tkatchenko,  T. Tsuchimochi,  N. M. Tubman,  L. Vogt,  M. L. Vidal,  
 O. Vydrov,  M. A. Watson,  J. Wenzel,  M. de Wergifosse,  T. A. Wesolowski,  
 A. White,  J. Witte,  A. Yamada,  Jun Yang,  K. Yao,  S. Yeganeh,  
 S. R. Yost,  Zhi-Qiang You,  A. Zech,  Igor Ying Zhang,  Xing Zhang,  
 Yan Zhao,  Ying Zhu,  B. R. Brooks,  G. K. L. Chan,  C. J. Cramer,  
 M. S. Gordon,  W. J. Hehre,  A. Klamt,  M. W. Schmidt,  C. D. Sherrill,  
 D. G. Truhlar,  A. Aspuru-Guzik,  R. Baer,  A. T. Bell,  N. A. Besley,  
 Jeng-Da Chai,  A. E. DePrince, III,  R. A. DiStasio Jr.,  A. Dreuw,  
 B. D. Dunietz,  T. R. Furlani,  Chao-Ping Hsu,  Yousung Jung,  Jing Kong,  
 D. S. Lambrecht,  WanZhen Liang,  C. Ochsenfeld,  V. A. Rassolov,  
 L. V. Slipchenko,  J. E. Subotnik,  T. Van Voorhis,  J. M. Herbert,  
 A. I. Krylov,  P. M. W. Gill,  M. Head-Gordon

 Contributors to earlier versions of Q-Chem not listed above: 
 R. D. Adamson,  B. Austin,  J. Baker,  G. J. O. Beran,  K. Brandhorst,  
 S. T. Brown,  E. F. C. Byrd,  A. K. Chakraborty,  C.-L. Cheng,  
 Siu Hung Chien,  D. M. Chipman,  D. L. Crittenden,  H. Dachsel,  
 R. J. Doerksen,  A. D. Dutoi,  L. Fusti-Molnar,  W. A. Goddard III,  
 A. Golubeva-Zadorozhnaya,  S. R. Gwaltney,  G. Hawkins,  A. Heyden,  
 S. Hirata,  G. Kedziora,  F. J. Keil,  C. Kelley,  Jihan Kim,  R. A. King,  
 R. Z. Khaliullin,  P. P. Korambath,  W. Kurlancheek,  A. M. Lee,  M. S. Lee,  
 S. V. Levchenko,  Ching Yeh Lin,  D. Liotard,  R. C. Lochan,  I. Lotan,  
 P. E. Maslen,  N. Nair,  D. P. O'Neill,  D. Neuhauser,  E. Neuscamman,  
 C. M. Oana,  R. Olson,  B. Peters,  R. Peverati,  P. A. Pieniazek,  
 Y. M. Rhee,  J. Ritchie,  M. A. Rohrdanz,  E. Rosta,  N. J. Russ,  
 H. F. Schaefer III,  N. E. Schultz,  N. Shenvi,  A. C. Simmonett,  A. Sodt,  
 D. Stuck,  K. S. Thanthiriwatte,  V. Vanovschi,  Tao Wang,  A. Warshel,  
 C. F. Williams,  Q. Wu,  X. Xu,  W. Zhang

 Please cite Q-Chem as follows:
 Y. Shao et al., Mol. Phys. 113, 184-215 (2015)
 DOI: 10.1080/00268976.2014.952696

 Q-Chem 5.2.2 for Intel X86 EM64T Linux

 Parts of Q-Chem use Armadillo 9.800.1 (Horizon Scraper).
 http://arma.sourceforge.net/

 Q-Chem begins on Sun Mar  7 02:56:11 2021  

Host: node028
0

     Scratch files written to /home/ymao90/scratch/CCX_CO_-10020210307025610//

Checking the input file for inconsistencies... 	...done.

--------------------------------------------------------------
User input:
--------------------------------------------------------------
$molecule
0 1
C      1.9839655798    2.8343873569   -0.6530035790
C      2.0889665948    1.3399289492   -0.2973932582
C      3.4017166944    0.7321441035   -0.8222227424
C      4.6254659785    1.5200300416   -0.3255741318
C      4.5210827926    3.0122209378   -0.6783481608
C      3.2094896156    3.6188525050   -0.1554554411
H      3.4653882129   -0.3186255299   -0.5134835234
H      2.0538505535    1.2303619181    0.7916336585
H      1.9041773336    2.9373830819   -1.7471760654
H      1.0604862058    3.2447823031   -0.2264495779
H      4.7056113531    1.4098609561    0.7662015896
H      5.5416784391    1.0893334561   -0.7496610014
H      5.3807748665    3.5587419877   -0.2692766409
H      4.5659637339    3.1311627355   -1.7719372538
H      3.2192612515    3.6121018079    0.9447339030
H      3.1260878858    4.6703627905   -0.4590864625
H      3.3863457527    0.7409636912   -1.9242196110
N      0.9315723625    0.5939302253   -0.7942938700
H      0.8024957372    0.5217251348   -1.7968919912
C      0.0000000000    0.0000000000    0.0000000000
H     -0.7899738588   -0.5065817117   -0.5873052394
O     -0.0000000000    0.0000000000    1.2238135054
$end

$rem
JOBTYPE  OPT
METHOD  B3LYP
BASIS  6-31+G(D)
SYMMETRY  FALSE
SYM_IGNORE  TRUE
MEM_TOTAL  8000
MEM_STATIC  2000
MAX_SUB_FILE_NUM  16000
BASIS_LIN_DEP_THRESH  6
THRESH  14
SCF_CONVERGENCE  9
GEN_SCFMAN  TRUE
SCF_GUESS  SAD
FD_MAT_VEC_PROD  FALSE
XC_GRID  000099000590
NL_GRID  1
MAX_SCF_CYCLES  200
GEOM_OPT_TOL_GRADIENT  100
GEOM_OPT_TOL_DISPLACEMENT  100
GEOM_OPT_TOL_ENERGY  10
$end

$multipole_field
Z   0.019448
$end


--------------------------------------------------------------
 ----------------------------------------------------------------
             Standard Nuclear Orientation (Angstroms)
    I     Atom           X                Y                Z
 ----------------------------------------------------------------
    1      C       1.9839655798     2.8343873569    -0.6530035790
    2      C       2.0889665948     1.3399289492    -0.2973932582
    3      C       3.4017166944     0.7321441035    -0.8222227424
    4      C       4.6254659785     1.5200300416    -0.3255741318
    5      C       4.5210827926     3.0122209378    -0.6783481608
    6      C       3.2094896156     3.6188525050    -0.1554554411
    7      H       3.4653882129    -0.3186255299    -0.5134835234
    8      H       2.0538505535     1.2303619181     0.7916336585
    9      H       1.9041773336     2.9373830819    -1.7471760654
   10      H       1.0604862058     3.2447823031    -0.2264495779
   11      H       4.7056113531     1.4098609561     0.7662015896
   12      H       5.5416784391     1.0893334561    -0.7496610014
   13      H       5.3807748665     3.5587419877    -0.2692766409
   14      H       4.5659637339     3.1311627355    -1.7719372538
   15      H       3.2192612515     3.6121018079     0.9447339030
   16      H       3.1260878858     4.6703627905    -0.4590864625
   17      H       3.3863457527     0.7409636912    -1.9242196110
   18      N       0.9315723625     0.5939302253    -0.7942938700
   19      H       0.8024957372     0.5217251348    -1.7968919912
   20      C       0.0000000000     0.0000000000     0.0000000000
   21      H      -0.7899738588    -0.5065817117    -0.5873052394
   22      O       0.0000000000     0.0000000000     1.2238135054
 ----------------------------------------------------------------
 Nuclear Repulsion Energy =         466.63298041 hartrees
 There are       35 alpha and       35 beta electrons
 Requested basis set is 6-31+G(d)
 There are 71 shells and 197 basis functions

 Total QAlloc Memory Limit   8000 MB
 Mega-Array Size      1956 MB
 MEM_STATIC part      2000 MB
 Applying Cartesian multipole field
    Component          Value
    ---------          -----
     (0,0,1)        1.94480E-02
 Nucleus-field energy     =    -0.7682677136 hartrees
 A cutoff of  1.0D-14 yielded   2413 shell pairs
 There are     18998 function pairs
 Smallest overlap matrix eigenvalue = 2.48E-05
 Guess from superposition of atomic densities
 Warning:  Energy on first SCF cycle will be non-variational
 SAD guess density has 70.000000 electrons

 -----------------------------------------------------------------------
  General SCF calculation program by
  Eric Jon Sundstrom, Paul Horn, Yuezhi Mao, Dmitri Zuev, Alec White,
  David Stuck, Shaama M.S., Shane Yost, Joonho Lee, David Small,
  Daniel Levine, Susi Lehtola, Hugh Burton, Evgeny Epifanovsky,
  Bang C. Huynh
 -----------------------------------------------------------------------
 Exchange:     0.2000 Hartree-Fock + 0.0800 Slater + 0.7200 B88
 Correlation:  0.1900 VWN1RPA + 0.8100 LYP
 Using Euler-Maclaurin-Lebedev (99,590) quadrature formula
 using 16 threads for integral computing
 -------------------------------------------------------
 OpenMP Integral computing Module                
 Release: version 2.0, May 2017, Q-Chem Inc. Pleasanton 
 -------------------------------------------------------
 A restricted SCF calculation will be
 performed using DIIS
 SCF converges when DIIS error is below 1.0e-09
 ---------------------------------------
  Cycle       Energy         DIIS error
 ---------------------------------------
    1    -406.2319506863      5.08e-02  
    2    -404.3950798358      7.06e-03  
    3    -403.8954028092      1.32e-02  
    4    -404.6004922362      2.66e-03  
    5    -404.6285006218      7.64e-04  
    6    -404.6307739874      2.65e-04  
    7    -404.6310668060      7.99e-05  
    8    -404.6310931984      1.61e-05  
    9    -404.6310943020      4.92e-06  
   10    -404.6310944013      1.05e-06  
   11    -404.6310944061      3.26e-07  
   12    -404.6310944066      7.83e-08  
   13    -404.6310944066      1.89e-08  
   14    -404.6310944066      3.92e-09  
   15    -404.6310944066      1.09e-09  
   16    -404.6310944066      3.73e-10  Convergence criterion met
 ---------------------------------------
 SCF time:   CPU 752.96s  wall 47.00s 
 SCF   energy in the final basis set =     -404.6310944066
 Total energy in the final basis set =     -404.6310944066
 
 --------------------------------------------------------------
 
                    Orbital Energies (a.u.)
 --------------------------------------------------------------
 
 Alpha MOs
 -- Occupied --
-19.1342 -14.3622 -10.2898 -10.2225 -10.1846 -10.1813 -10.1762 -10.1736
-10.1719  -1.0438  -0.9245  -0.8206  -0.7386  -0.7374  -0.6300  -0.6088
 -0.5859  -0.5615  -0.5200  -0.4806  -0.4579  -0.4392  -0.4355  -0.4178
 -0.4151  -0.3926  -0.3753  -0.3727  -0.3412  -0.3408  -0.3192  -0.3089
 -0.3066  -0.2693  -0.2538
 -- Virtual --
 -0.0353  -0.0021   0.0012   0.0152   0.0270   0.0353   0.0432   0.0546
  0.0658   0.0722   0.0783   0.0864   0.0935   0.0975   0.1159   0.1212
  0.1311   0.1329   0.1381   0.1438   0.1460   0.1614   0.1713   0.1763
  0.1800   0.1844   0.1894   0.1965   0.2066   0.2108   0.2186   0.2195
  0.2276   0.2351   0.2378   0.2507   0.2532   0.2652   0.2704   0.2822
  0.2868   0.2906   0.2968   0.2993   0.3066   0.3089   0.3182   0.3359
  0.3360   0.3472   0.3662   0.3839   0.3861   0.4003   0.4253   0.4258
  0.4469   0.4647   0.4942   0.6165   0.6445   0.6637   0.6690   0.6737
  0.6850   0.6992   0.7327   0.7410   0.7525   0.7579   0.7823   0.7849
  0.8062   0.8118   0.8259   0.8536   0.8701   0.9153   0.9583   0.9775
  0.9877   0.9948   1.0219   1.0288   1.0377   1.0655   1.0957   1.1189
  1.1269   1.1308   1.1344   1.1472   1.1591   1.1817   1.1898   1.1927
  1.2410   1.2465   1.2813   1.3240   1.3469   1.3741   1.3962   1.4223
  1.4862   1.4939   1.4962   1.5717   1.5760   1.6141   1.7026   1.7345
  1.7380   1.7569   1.7738   1.8076   1.8546   1.8725   1.9059   1.9110
  1.9155   1.9416   1.9867   2.0161   2.0217   2.0505   2.0594   2.0924
  2.0970   2.1337   2.2065   2.2266   2.2820   2.3169   2.3174   2.3539
  2.4059   2.4153   2.4230   2.4255   2.4539   2.5666   2.5923   2.6269
  2.6766   2.6892   2.7090   2.7653   2.7815   2.8387   2.8725   3.0092
  3.1881   4.0988   4.1966   4.2337   4.2979   4.3386   4.4209   4.6059
  4.6119   4.6784
 --------------------------------------------------------------
 
          Ground-State Mulliken Net Atomic Charges

     Atom                 Charge (a.u.)
  ----------------------------------------
      1 C                    -0.224648
      2 C                    -0.445472
      3 C                    -0.239343
      4 C                    -0.488681
      5 C                    -0.307366
      6 C                    -0.496940
      7 H                     0.198529
      8 H                     0.189127
      9 H                     0.260625
     10 H                     0.190389
     11 H                     0.139606
     12 H                     0.226732
     13 H                     0.175866
     14 H                     0.265273
     15 H                     0.138047
     16 H                     0.217429
     17 H                     0.261662
     18 N                    -0.402435
     19 H                     0.453116
     20 C                     0.303496
     21 H                     0.181033
     22 O                    -0.596044
  ----------------------------------------
  Sum of atomic charges =     0.000000

 -----------------------------------------------------------------
                    Cartesian Multipole Moments
 -----------------------------------------------------------------
    Charge (ESU x 10^10)
                 0.0000
    Dipole Moment (Debye)
         X       1.9288      Y       1.2253      Z      -7.8730
       Tot       8.1979
    Quadrupole Moments (Debye-Ang)
        XX     -50.9919     XY       3.6720     YY     -54.5882
        XZ      -9.8969     YZ      -6.5242     ZZ     -55.5493
    Octopole Moments (Debye-Ang^2)
       XXX    -391.0553    XXY     -80.7238    XYY    -129.8939
       YYY    -263.4990    XXZ     -21.2483    XYZ     -21.8821
       YYZ      -2.2016    XZZ    -123.8582    YZZ     -81.8656
       ZZZ      24.3238
    Hexadecapole Moments (Debye-Ang^3)
      XXXX   -2973.9146   XXXY    -847.8937   XXYY    -744.5179
      XYYY    -859.7829   YYYY   -1516.1961   XXXZ      44.8108
      XXYZ     -37.0978   XYYZ       5.5176   YYYZ      57.6236
      XXZZ    -514.0253   XYZZ    -269.9734   YYZZ    -285.2278
      XZZZ     162.6303   YZZZ      96.2840   ZZZZ    -240.0179
 -----------------------------------------------------------------
 Calculating analytic gradient of the SCF energy
 Gradient of SCF Energy
            1           2           3           4           5           6
    1   0.0002774  -0.0010665   0.0002135   0.0001088   0.0002285   0.0000274
    2   0.0001193  -0.0004609   0.0000261  -0.0003388   0.0001666  -0.0001179
    3   0.0030073   0.0014166   0.0030489   0.0041589   0.0019871   0.0043049
            7           8           9          10          11          12
    1  -0.0000535  -0.0000475  -0.0000246   0.0009593   0.0000870   0.0009325
    2   0.0006020   0.0001205  -0.0006869  -0.0004653   0.0002786  -0.0004033
    3   0.0008065  -0.0017946  -0.0023617   0.0004985  -0.0048360   0.0007902
           13          14          15          16          17          18
    1  -0.0009552  -0.0003143  -0.0000541   0.0000452  -0.0008736   0.0079130
    2  -0.0006810  -0.0000061   0.0006023   0.0005353   0.0006356   0.0046569
    3   0.0005887  -0.0023299  -0.0050202   0.0009746  -0.0023022  -0.0102172
           19          20          21          22
    1   0.0005511  -0.0066194  -0.0019338   0.0005987
    2   0.0004842  -0.0042203  -0.0012339   0.0003868
    3   0.0031729   0.0331804  -0.0012868  -0.0277868
 Max gradient component =       3.318E-02
 RMS gradient           =       5.878E-03
 Gradient time:  CPU 120.29 s  wall 7.62 s
 Geometry Optimization Parameters
   NAtoms,    NIC,     NZ,  NCons,   NDum,   NFix, NCnnct, MaxDiis
       22     172       0       0       0       0       0       0


** GEOMETRY OPTIMIZATION IN DELOCALIZED INTERNAL COORDINATES **
   Searching for a Minimum

   Optimization Cycle:   1

                       Coordinates (Angstroms)
     ATOM                X               Y               Z
      1  C         1.9839655798    2.8343873569   -0.6530035790
      2  C         2.0889665948    1.3399289492   -0.2973932582
      3  C         3.4017166944    0.7321441035   -0.8222227424
      4  C         4.6254659785    1.5200300416   -0.3255741318
      5  C         4.5210827926    3.0122209378   -0.6783481608
      6  C         3.2094896156    3.6188525050   -0.1554554411
      7  H         3.4653882129   -0.3186255299   -0.5134835234
      8  H         2.0538505535    1.2303619181    0.7916336585
      9  H         1.9041773336    2.9373830819   -1.7471760654
     10  H         1.0604862058    3.2447823031   -0.2264495779
     11  H         4.7056113531    1.4098609561    0.7662015896
     12  H         5.5416784391    1.0893334561   -0.7496610014
     13  H         5.3807748665    3.5587419877   -0.2692766409
     14  H         4.5659637339    3.1311627355   -1.7719372538
     15  H         3.2192612515    3.6121018079    0.9447339030
     16  H         3.1260878858    4.6703627905   -0.4590864625
     17  H         3.3863457527    0.7409636912   -1.9242196110
     18  N         0.9315723625    0.5939302253   -0.7942938700
     19  H         0.8024957372    0.5217251348   -1.7968919912
     20  C         0.0000000000    0.0000000000    0.0000000000
     21  H        -0.7899738588   -0.5065817117   -0.5873052394
     22  O         0.0000000000    0.0000000000    1.2238135054
   Point Group: c1    Number of degrees of freedom:    60


   Energy is   -404.631094407


 Attempting to generate delocalized internal coordinates
 Initial Hessian constructed with Jon Baker's OPTIMIZE code

 60 Hessian modes will be used to form the next step
  Hessian Eigenvalues:
     0.005967    0.006024    0.006964    0.007193    0.012605    0.019501
     0.019786    0.020845    0.020845    0.037215    0.038526    0.039417
     0.041724    0.048166    0.048450    0.048891    0.055292    0.055631
     0.055746    0.059934    0.066958    0.081508    0.081536    0.081616
     0.082032    0.082133    0.084029    0.087513    0.120967    0.121178
     0.142989    0.159989    0.160000    0.160554    0.174868    0.210947
     0.220000    0.220003    0.272263    0.272658    0.275535    0.286789
     0.287121    0.287175    0.329119    0.334466    0.334727    0.335769
     0.336541    0.336553    0.339301    0.339441    0.339454    0.340119
     0.340274    0.342312    0.364811    0.454000    0.528079    0.937134

 Minimum search - taking simple RFO step
 Searching for Lamda that Minimizes Along All modes
 Value Taken    Lamda =  -0.00171858
 Step Taken.  Stepsize is  0.188243

                             Maximum     Tolerance    Cnvgd?
         Gradient           0.015273      0.000100      NO
         Displacement       0.067960      0.000100      NO
         Energy change     *********      0.000000      NO


 New Cartesian Coordinates Obtained by Inverse Iteration

 Displacement from previous Coordinates is:  0.359282
 ----------------------------------------------------------------
             Standard Nuclear Orientation (Angstroms)
    I     Atom           X                Y                Z
 ----------------------------------------------------------------
    1      C       1.9834787812     2.8333879738    -0.6868760201
    2      C       2.0908836032     1.3406981561    -0.3230557938
    3      C       3.4017067171     0.7347823760    -0.8569167404
    4      C       4.6175999173     1.5123534230    -0.3256919662
    5      C       4.5236659190     3.0126077209    -0.6500321455
    6      C       3.1974053110     3.6133080449    -0.1546625302
    7      H       3.4611275433    -0.3237411970    -0.5729397941
    8      H       2.0703122948     1.2403960259     0.7699079990
    9      H       1.9299919663     2.9429966108    -1.7784007192
   10      H       1.0476369949     3.2431388768    -0.2842246953
   11      H       4.6788829488     1.3787531314     0.7725111789
   12      H       5.5368542461     1.0901175089    -0.7489370010
   13      H       5.3755238196     3.5525745962    -0.2128324736
   14      H       4.5992668886     3.1519882253    -1.7355508226
   15      H       3.1788391482     3.5958002821     0.9533554200
   16      H       3.1206768897     4.6650873810    -0.4575085960
   17      H       3.4030127678     0.7642875689    -1.9549994169
   18      N       0.9235257582     0.5876449440    -0.7844375418
   19      H       0.7739833223     0.4960403424    -1.7866382435
   20      C       0.0159547814     0.0123046755     0.0331463633
   21      H      -0.7797490248    -0.5010439122    -0.5328212347
   22      O       0.0338264908     0.0295839862     1.2722088798
 ----------------------------------------------------------------
 Nuclear Repulsion Energy =         466.57402619 hartrees
 There are       35 alpha and       35 beta electrons
 Applying Cartesian multipole field
    Component          Value
    ---------          -----
     (0,0,1)        1.94480E-02
 Nucleus-field energy     =    -0.7595411689 hartrees
 Requested basis set is 6-31+G(d)
 There are 71 shells and 197 basis functions
 A cutoff of  1.0D-14 yielded   2413 shell pairs
 There are     19013 function pairs
 Smallest overlap matrix eigenvalue = 2.55E-05
 Guess MOs from SCF MO coefficient file

 -----------------------------------------------------------------------
  General SCF calculation program by
  Eric Jon Sundstrom, Paul Horn, Yuezhi Mao, Dmitri Zuev, Alec White,
  David Stuck, Shaama M.S., Shane Yost, Joonho Lee, David Small,
  Daniel Levine, Susi Lehtola, Hugh Burton, Evgeny Epifanovsky,
  Bang C. Huynh
 -----------------------------------------------------------------------
 Exchange:     0.2000 Hartree-Fock + 0.0800 Slater + 0.7200 B88
 Correlation:  0.1900 VWN1RPA + 0.8100 LYP
 Using Euler-Maclaurin-Lebedev (99,590) quadrature formula
 using 16 threads for integral computing
 -------------------------------------------------------
 OpenMP Integral computing Module                
 Release: version 2.0, May 2017, Q-Chem Inc. Pleasanton 
 -------------------------------------------------------
 A restricted SCF calculation will be
 performed using DIIS
 SCF converges when DIIS error is below 1.0e-09
 ---------------------------------------
  Cycle       Energy         DIIS error
 ---------------------------------------
    1    -404.6301487450      4.81e-04  
    2    -404.6320928136      8.40e-05  
    3    -404.6320937913      9.49e-05  
    4    -404.6321286949      2.62e-05  
    5    -404.6321307529      1.26e-05  
    6    -404.6321313792      2.22e-06  
    7    -404.6321313970      9.98e-07  
    8    -404.6321314012      1.35e-07  
    9    -404.6321314013      6.22e-08  
   10    -404.6321314013      6.04e-09  
   11    -404.6321314013      2.29e-09  
   12    -404.6321314013      7.29e-10  Convergence criterion met
 ---------------------------------------
 SCF time:   CPU 564.01s  wall 36.00s 
 SCF   energy in the final basis set =     -404.6321314013
 Total energy in the final basis set =     -404.6321314013
 
 --------------------------------------------------------------
 
                    Orbital Energies (a.u.)
 --------------------------------------------------------------
 
 Alpha MOs
 -- Occupied --
-19.1336 -14.3659 -10.2907 -10.2231 -10.1859 -10.1826 -10.1763 -10.1738
-10.1729  -1.0366  -0.9272  -0.8216  -0.7389  -0.7383  -0.6325  -0.6083
 -0.5874  -0.5619  -0.5211  -0.4812  -0.4567  -0.4401  -0.4356  -0.4165
 -0.4140  -0.3928  -0.3758  -0.3707  -0.3416  -0.3412  -0.3196  -0.3103
 -0.3066  -0.2687  -0.2556
 -- Virtual --
 -0.0346  -0.0019   0.0015   0.0130   0.0270   0.0354   0.0431   0.0538
  0.0646   0.0720   0.0787   0.0861   0.0938   0.0969   0.1155   0.1208
  0.1305   0.1315   0.1388   0.1438   0.1465   0.1611   0.1714   0.1758
  0.1793   0.1832   0.1877   0.1962   0.2053   0.2110   0.2193   0.2211
  0.2264   0.2342   0.2373   0.2502   0.2529   0.2661   0.2698   0.2812
  0.2850   0.2885   0.2963   0.3000   0.3046   0.3092   0.3165   0.3365
  0.3377   0.3457   0.3642   0.3845   0.3863   0.4015   0.4242   0.4257
  0.4434   0.4672   0.4871   0.6161   0.6436   0.6649   0.6690   0.6746
  0.6847   0.6991   0.7320   0.7395   0.7540   0.7574   0.7804   0.7828
  0.8046   0.8115   0.8257   0.8544   0.8702   0.9157   0.9590   0.9768
  0.9873   0.9943   1.0202   1.0281   1.0344   1.0611   1.0939   1.1151
  1.1232   1.1279   1.1350   1.1494   1.1571   1.1824   1.1909   1.1954
  1.2414   1.2461   1.2807   1.3266   1.3492   1.3773   1.3947   1.4260
  1.4809   1.4890   1.4976   1.5688   1.5728   1.6144   1.7087   1.7352
  1.7367   1.7522   1.7753   1.8078   1.8519   1.8689   1.9059   1.9084
  1.9166   1.9418   1.9897   2.0133   2.0221   2.0507   2.0584   2.0874
  2.0916   2.1330   2.2084   2.2248   2.2825   2.3121   2.3182   2.3486
  2.4010   2.4138   2.4202   2.4214   2.4532   2.5664   2.5917   2.6209
  2.6768   2.6868   2.7037   2.7659   2.7827   2.8381   2.8700   2.9951
  3.1848   4.0995   4.1967   4.2304   4.2958   4.3368   4.4177   4.6077
  4.6132   4.6787
 --------------------------------------------------------------
 
          Ground-State Mulliken Net Atomic Charges

     Atom                 Charge (a.u.)
  ----------------------------------------
      1 C                    -0.222463
      2 C                    -0.472938
      3 C                    -0.240411
      4 C                    -0.484070
      5 C                    -0.304912
      6 C                    -0.492357
      7 H                     0.200702
      8 H                     0.192104
      9 H                     0.262864
     10 H                     0.192580
     11 H                     0.139009
     12 H                     0.226644
     13 H                     0.174402
     14 H                     0.265490
     15 H                     0.137311
     16 H                     0.217228
     17 H                     0.264285
     18 N                    -0.384069
     19 H                     0.453868
     20 C                     0.304287
     21 H                     0.180348
     22 O                    -0.609903
  ----------------------------------------
  Sum of atomic charges =     0.000000

 -----------------------------------------------------------------
                    Cartesian Multipole Moments
 -----------------------------------------------------------------
    Charge (ESU x 10^10)
                 0.0000
    Dipole Moment (Debye)
         X       1.9380      Y       1.2069      Z      -8.1137
       Tot       8.4288
    Quadrupole Moments (Debye-Ang)
        XX     -50.8201     XY       3.7534     YY     -54.4897
        XZ     -10.2239     YZ      -6.7374     ZZ     -55.9403
    Octopole Moments (Debye-Ang^2)
       XXX    -390.6867    XXY     -80.5054    XYY    -129.7306
       YYY    -263.4699    XXZ     -22.3080    XYZ     -22.1524
       YYZ      -2.9591    XZZ    -123.9637    YZZ     -82.1211
       ZZZ      22.5839
    Hexadecapole Moments (Debye-Ang^3)
      XXXX   -2966.6542   XXXY    -844.4930   XXYY    -742.1426
      XYYY    -857.2311   YYYY   -1512.5019   XXXZ      41.4225
      XXYZ     -38.5091   XYYZ       4.2654   YYYZ      55.7075
      XXZZ    -513.4929   XYZZ    -269.0907   YYZZ    -285.7306
      XZZZ     162.5922   YZZZ      96.0838   ZZZZ    -248.3650
 -----------------------------------------------------------------
 Calculating analytic gradient of the SCF energy
 Gradient of SCF Energy
            1           2           3           4           5           6
    1   0.0005487  -0.0007623   0.0008227  -0.0004084   0.0005876  -0.0003678
    2   0.0004824  -0.0003392   0.0002602  -0.0002626   0.0004058  -0.0003625
    3   0.0001345  -0.0000663   0.0001641   0.0000946   0.0002030   0.0001582
            7           8           9          10          11          12
    1  -0.0001452  -0.0005939  -0.0000535  -0.0000663   0.0000126   0.0000329
    2   0.0000318  -0.0003499  -0.0000078  -0.0001210   0.0000241  -0.0001173
    3   0.0001065  -0.0000524  -0.0000510   0.0000794   0.0000233   0.0001980
           13          14          15          16          17          18
    1  -0.0000714  -0.0000154  -0.0000009  -0.0001213  -0.0000151   0.0027114
    2  -0.0000382  -0.0000313   0.0000167   0.0000647  -0.0000351   0.0015771
    3   0.0001232   0.0003002  -0.0000223   0.0001838  -0.0000555  -0.0036050
           19          20          21          22
    1   0.0000808  -0.0024609   0.0002496   0.0000360
    2   0.0001462  -0.0014919   0.0001234   0.0000242
    3  -0.0000607   0.0107816  -0.0016627  -0.0069744
 Max gradient component =       1.078E-02
 RMS gradient           =       1.753E-03
 Gradient time:  CPU 120.71 s  wall 7.67 s
 Geometry Optimization Parameters
   NAtoms,    NIC,     NZ,  NCons,   NDum,   NFix, NCnnct, MaxDiis
       22     172       0       0       0       0       0       0

 Cartesian Hessian Update
 Hessian updated using BFGS update


** GEOMETRY OPTIMIZATION IN DELOCALIZED INTERNAL COORDINATES **
   Searching for a Minimum

   Optimization Cycle:   2

                       Coordinates (Angstroms)
     ATOM                X               Y               Z
      1  C         1.9834787812    2.8333879738   -0.6868760201
      2  C         2.0908836032    1.3406981561   -0.3230557938
      3  C         3.4017067171    0.7347823760   -0.8569167404
      4  C         4.6175999173    1.5123534230   -0.3256919662
      5  C         4.5236659190    3.0126077209   -0.6500321455
      6  C         3.1974053110    3.6133080449   -0.1546625302
      7  H         3.4611275433   -0.3237411970   -0.5729397941
      8  H         2.0703122948    1.2403960259    0.7699079990
      9  H         1.9299919663    2.9429966108   -1.7784007192
     10  H         1.0476369949    3.2431388768   -0.2842246953
     11  H         4.6788829488    1.3787531314    0.7725111789
     12  H         5.5368542461    1.0901175089   -0.7489370010
     13  H         5.3755238196    3.5525745962   -0.2128324736
     14  H         4.5992668886    3.1519882253   -1.7355508226
     15  H         3.1788391482    3.5958002821    0.9533554200
     16  H         3.1206768897    4.6650873810   -0.4575085960
     17  H         3.4030127678    0.7642875689   -1.9549994169
     18  N         0.9235257582    0.5876449440   -0.7844375418
     19  H         0.7739833223    0.4960403424   -1.7866382435
     20  C         0.0159547814    0.0123046755    0.0331463633
     21  H        -0.7797490248   -0.5010439122   -0.5328212347
     22  O         0.0338264908    0.0295839862    1.2722088798
   Point Group: c1    Number of degrees of freedom:    60


   Energy is   -404.632131401

 Hessian updated using BFGS update

 60 Hessian modes will be used to form the next step
  Hessian Eigenvalues:
     0.005853    0.005976    0.006926    0.007193    0.012603    0.019500
     0.019789    0.020845    0.020847    0.037121    0.038542    0.039416
     0.041737    0.048207    0.048450    0.048883    0.055295    0.055727
     0.055958    0.060162    0.066958    0.081161    0.081533    0.081607
     0.082032    0.082133    0.084244    0.087504    0.120967    0.121288
     0.142956    0.159928    0.160157    0.162116    0.174888    0.210814
     0.219719    0.222784    0.272004    0.272673    0.275535    0.286856
     0.287030    0.287509    0.328144    0.334531    0.334848    0.335791
     0.336545    0.339221    0.339416    0.339435    0.339936    0.340137
     0.341299    0.345331    0.366080    0.453793    0.484912    0.819614

 Minimum search - taking simple RFO step
 Searching for Lamda that Minimizes Along All modes
 Value Taken    Lamda =  -0.00020179
 Step Taken.  Stepsize is  0.099873

                             Maximum     Tolerance    Cnvgd?
         Gradient           0.004587      0.000100      NO
         Displacement       0.041609      0.000100      NO
         Energy change     -0.001037      0.000000      NO


 New Cartesian Coordinates Obtained by Inverse Iteration

 Displacement from previous Coordinates is:  0.167453
 ----------------------------------------------------------------
             Standard Nuclear Orientation (Angstroms)
    I     Atom           X                Y                Z
 ----------------------------------------------------------------
    1      C       1.9839417632     2.8321847125    -0.7017452845
    2      C       2.0924889071     1.3417527032    -0.3315349344
    3      C       3.4000943821     0.7371068705    -0.8720603993
    4      C       4.6139970754     1.5085739007    -0.3261260699
    5      C       4.5235866779     3.0117835167    -0.6370116407
    6      C       3.1921974668     3.6119074085    -0.1552046370
    7      H       3.4590445726    -0.3247931686    -0.6007851352
    8      H       2.0847585615     1.2493703297     0.7623251904
    9      H       1.9440173106     2.9402267925    -1.7937204461
   10      H       1.0436765210     3.2432032906    -0.3109847547
   11      H       4.6663034377     1.3637616503     0.7717713502
   12      H       5.5360492478     1.0906077776    -0.7470870236
   13      H       5.3698822160     3.5466648728    -0.1823103315
   14      H       4.6158417662     3.1620456949    -1.7197912276
   15      H       3.1600531205     3.5908974466     0.9531657278
   16      H       3.1203083128     4.6642541776    -0.4567037670
   17      H       3.4051586145     0.7802049884    -1.9693634481
   18      N       0.9203760459     0.5849138946    -0.7783456039
   19      H       0.7644878218     0.4858599692    -1.7793104560
   20      C       0.0215307370     0.0155129239     0.0442431377
   21      H      -0.7820915884    -0.5029690261    -0.5034530070
   22      O       0.0487041152     0.0399960144     1.2886368667
 ----------------------------------------------------------------
 Nuclear Repulsion Energy =         466.66712742 hartrees
 There are       35 alpha and       35 beta electrons
 Applying Cartesian multipole field
    Component          Value
    ---------          -----
     (0,0,1)        1.94480E-02
 Nucleus-field energy     =    -0.7567924381 hartrees
 Requested basis set is 6-31+G(d)
 There are 71 shells and 197 basis functions
 A cutoff of  1.0D-14 yielded   2413 shell pairs
 There are     19013 function pairs
 Smallest overlap matrix eigenvalue = 2.55E-05
 Guess MOs from SCF MO coefficient file

 -----------------------------------------------------------------------
  General SCF calculation program by
  Eric Jon Sundstrom, Paul Horn, Yuezhi Mao, Dmitri Zuev, Alec White,
  David Stuck, Shaama M.S., Shane Yost, Joonho Lee, David Small,
  Daniel Levine, Susi Lehtola, Hugh Burton, Evgeny Epifanovsky,
  Bang C. Huynh
 -----------------------------------------------------------------------
 Exchange:     0.2000 Hartree-Fock + 0.0800 Slater + 0.7200 B88
 Correlation:  0.1900 VWN1RPA + 0.8100 LYP
 Using Euler-Maclaurin-Lebedev (99,590) quadrature formula
 using 16 threads for integral computing
 -------------------------------------------------------
 OpenMP Integral computing Module                
 Release: version 2.0, May 2017, Q-Chem Inc. Pleasanton 
 -------------------------------------------------------
 A restricted SCF calculation will be
 performed using DIIS
 SCF converges when DIIS error is below 1.0e-09
 ---------------------------------------
  Cycle       Energy         DIIS error
 ---------------------------------------
    1    -404.6318228019      2.18e-04  
    2    -404.6322294770      4.46e-05  
    3    -404.6322184494      7.42e-05  
    4    -404.6322377059      1.48e-05  
    5    -404.6322385813      4.44e-06  
    6    -404.6322386672      7.92e-07  
    7    -404.6322386695      3.47e-07  
    8    -404.6322386699      5.40e-08  
    9    -404.6322386700      1.59e-08  
   10    -404.6322386700      3.95e-09  
   11    -404.6322386700      8.13e-10  Convergence criterion met
 ---------------------------------------
 SCF time:   CPU 524.72s  wall 33.00s 
 SCF   energy in the final basis set =     -404.6322386700
 Total energy in the final basis set =     -404.6322386700
 
 --------------------------------------------------------------
 
                    Orbital Energies (a.u.)
 --------------------------------------------------------------
 
 Alpha MOs
 -- Occupied --
-19.1326 -14.3671 -10.2907 -10.2234 -10.1862 -10.1829 -10.1763 -10.1738
-10.1734  -1.0339  -0.9280  -0.8223  -0.7394  -0.7386  -0.6331  -0.6084
 -0.5879  -0.5622  -0.5221  -0.4819  -0.4563  -0.4405  -0.4357  -0.4159
 -0.4136  -0.3931  -0.3761  -0.3699  -0.3417  -0.3413  -0.3196  -0.3107
 -0.3067  -0.2679  -0.2561
 -- Virtual --
 -0.0344  -0.0017   0.0016   0.0125   0.0269   0.0355   0.0431   0.0535
  0.0642   0.0720   0.0788   0.0859   0.0940   0.0968   0.1154   0.1205
  0.1303   0.1308   0.1393   0.1437   0.1471   0.1612   0.1717   0.1756
  0.1792   0.1823   0.1873   0.1963   0.2044   0.2111   0.2193   0.2218
  0.2257   0.2342   0.2372   0.2499   0.2531   0.2665   0.2697   0.2805
  0.2844   0.2880   0.2962   0.3006   0.3041   0.3093   0.3159   0.3372
  0.3388   0.3455   0.3636   0.3846   0.3871   0.4018   0.4240   0.4260
  0.4426   0.4689   0.4850   0.6159   0.6434   0.6653   0.6688   0.6749
  0.6847   0.6993   0.7315   0.7387   0.7548   0.7575   0.7795   0.7829
  0.8044   0.8117   0.8255   0.8554   0.8711   0.9155   0.9582   0.9769
  0.9872   0.9941   1.0196   1.0287   1.0335   1.0595   1.0926   1.1141
  1.1224   1.1273   1.1353   1.1490   1.1578   1.1823   1.1913   1.1969
  1.2415   1.2460   1.2809   1.3278   1.3508   1.3790   1.3936   1.4279
  1.4791   1.4878   1.4986   1.5663   1.5727   1.6129   1.7085   1.7350
  1.7366   1.7516   1.7766   1.8079   1.8517   1.8685   1.9053   1.9084
  1.9181   1.9424   1.9913   2.0121   2.0233   2.0511   2.0575   2.0867
  2.0899   2.1338   2.2087   2.2239   2.2842   2.3122   2.3198   2.3470
  2.3989   2.4135   2.4191   2.4219   2.4538   2.5656   2.5920   2.6184
  2.6775   2.6862   2.7020   2.7665   2.7848   2.8379   2.8681   2.9898
  3.1852   4.1000   4.1965   4.2295   4.2951   4.3366   4.4154   4.6093
  4.6143   4.6788
 --------------------------------------------------------------
 
          Ground-State Mulliken Net Atomic Charges

     Atom                 Charge (a.u.)
  ----------------------------------------
      1 C                    -0.219728
      2 C                    -0.487147
      3 C                    -0.238347
      4 C                    -0.480862
      5 C                    -0.306549
      6 C                    -0.489224
      7 H                     0.201708
      8 H                     0.193457
      9 H                     0.263504
     10 H                     0.193598
     11 H                     0.139324
     12 H                     0.226575
     13 H                     0.173244
     14 H                     0.265483
     15 H                     0.137583
     16 H                     0.217225
     17 H                     0.265023
     18 N                    -0.377463
     19 H                     0.454046
     20 C                     0.303571
     21 H                     0.180529
     22 O                    -0.615551
  ----------------------------------------
  Sum of atomic charges =     0.000000

 -----------------------------------------------------------------
                    Cartesian Multipole Moments
 -----------------------------------------------------------------
    Charge (ESU x 10^10)
                -0.0000
    Dipole Moment (Debye)
         X       1.9424      Y       1.2031      Z      -8.1913
       Tot       8.5040
    Quadrupole Moments (Debye-Ang)
        XX     -50.7023     XY       3.8118     YY     -54.4253
        XZ     -10.3091     YZ      -6.7836     ZZ     -56.1139
    Octopole Moments (Debye-Ang^2)
       XXX    -390.4255    XXY     -80.4109    XYY    -129.6261
       YYY    -263.3268    XXZ     -22.4596    XYZ     -22.1508
       YYZ      -3.1043    XZZ    -123.9871    YZZ     -82.1768
       ZZZ      22.0243
    Hexadecapole Moments (Debye-Ang^3)
      XXXX   -2962.7573   XXXY    -843.6201   XXYY    -741.2622
      XYYY    -856.0730   YYYY   -1510.3486   XXXZ      41.2642
      XXYZ     -38.6020   XYYZ       4.1627   YYYZ      55.6065
      XXZZ    -513.0902   XYZZ    -268.5948   YYZZ    -285.8327
      XZZZ     162.6098   YZZZ      96.1084   ZZZZ    -251.6230
 -----------------------------------------------------------------
 Calculating analytic gradient of the SCF energy
 Gradient of SCF Energy
            1           2           3           4           5           6
    1   0.0004817  -0.0002805   0.0002562  -0.0001324   0.0000826  -0.0001757
    2   0.0000063  -0.0001461   0.0004309  -0.0001265   0.0000472  -0.0000259
    3  -0.0001206  -0.0001405  -0.0000639  -0.0002116   0.0001979  -0.0002369
            7           8           9          10          11          12
    1  -0.0000590  -0.0000240   0.0000546  -0.0001132  -0.0000925  -0.0000086
    2  -0.0000595  -0.0000178   0.0000805  -0.0000181  -0.0000481  -0.0000150
    3  -0.0000312   0.0001231   0.0001112  -0.0000434   0.0004593   0.0001928
           13          14          15          16          17          18
    1  -0.0000399   0.0001030  -0.0000765  -0.0000280   0.0001083   0.0004442
    2  -0.0000173   0.0000533  -0.0001123   0.0000110  -0.0000065   0.0002381
    3   0.0002047   0.0003184   0.0004455   0.0001691   0.0001226  -0.0003250
           19          20          21          22
    1  -0.0001321  -0.0004437   0.0000272   0.0000482
    2  -0.0000560  -0.0002988   0.0000305   0.0000502
    3  -0.0002700   0.0006046  -0.0005566  -0.0009495
 Max gradient component =       9.495E-04
 RMS gradient           =       2.434E-04
 Gradient time:  CPU 119.50 s  wall 7.64 s
 Geometry Optimization Parameters
   NAtoms,    NIC,     NZ,  NCons,   NDum,   NFix, NCnnct, MaxDiis
       22     172       0       0       0       0       0       0

 Cartesian Hessian Update
 Hessian updated using BFGS update


** GEOMETRY OPTIMIZATION IN DELOCALIZED INTERNAL COORDINATES **
   Searching for a Minimum

   Optimization Cycle:   3

                       Coordinates (Angstroms)
     ATOM                X               Y               Z
      1  C         1.9839417632    2.8321847125   -0.7017452845
      2  C         2.0924889071    1.3417527032   -0.3315349344
      3  C         3.4000943821    0.7371068705   -0.8720603993
      4  C         4.6139970754    1.5085739007   -0.3261260699
      5  C         4.5235866779    3.0117835167   -0.6370116407
      6  C         3.1921974668    3.6119074085   -0.1552046370
      7  H         3.4590445726   -0.3247931686   -0.6007851352
      8  H         2.0847585615    1.2493703297    0.7623251904
      9  H         1.9440173106    2.9402267925   -1.7937204461
     10  H         1.0436765210    3.2432032906   -0.3109847547
     11  H         4.6663034377    1.3637616503    0.7717713502
     12  H         5.5360492478    1.0906077776   -0.7470870236
     13  H         5.3698822160    3.5466648728   -0.1823103315
     14  H         4.6158417662    3.1620456949   -1.7197912276
     15  H         3.1600531205    3.5908974466    0.9531657278
     16  H         3.1203083128    4.6642541776   -0.4567037670
     17  H         3.4051586145    0.7802049884   -1.9693634481
     18  N         0.9203760459    0.5849138946   -0.7783456039
     19  H         0.7644878218    0.4858599692   -1.7793104560
     20  C         0.0215307370    0.0155129239    0.0442431377
     21  H        -0.7820915884   -0.5029690261   -0.5034530070
     22  O         0.0487041152    0.0399960144    1.2886368667
   Point Group: c1    Number of degrees of freedom:    60


   Energy is   -404.632238670

 Hessian updated using BFGS update

 60 Hessian modes will be used to form the next step
  Hessian Eigenvalues:
     0.005888    0.005975    0.007022    0.007192    0.012597    0.019499
     0.019871    0.020843    0.020851    0.037410    0.038544    0.039418
     0.041759    0.048302    0.048451    0.048982    0.055295    0.055730
     0.055960    0.060161    0.066958    0.080566    0.081534    0.081605
     0.082035    0.082133    0.084112    0.087504    0.120433    0.120968
     0.142932    0.153492    0.160574    0.162220    0.174895    0.210675
     0.218654    0.225285    0.271661    0.272652    0.275535    0.286247
     0.286893    0.288007    0.327692    0.334537    0.334857    0.336006
     0.336545    0.339065    0.339427    0.339436    0.340002    0.340170
     0.341566    0.348135    0.365913    0.454796    0.474480    0.797058

 Minimum search - taking simple RFO step
 Searching for Lamda that Minimizes Along All modes
 Value Taken    Lamda =  -0.00000549
 Step Taken.  Stepsize is  0.009500

                             Maximum     Tolerance    Cnvgd?
         Gradient           0.000587      0.000100      NO
         Displacement       0.004015      0.000100      NO
         Energy change     -0.000107      0.000000      NO


 New Cartesian Coordinates Obtained by Inverse Iteration

 Displacement from previous Coordinates is:  0.010806
 ----------------------------------------------------------------
             Standard Nuclear Orientation (Angstroms)
    I     Atom           X                Y                Z
 ----------------------------------------------------------------
    1      C       1.9833468572     2.8321728086    -0.7017370065
    2      C       2.0927899211     1.3418187629    -0.3311414646
    3      C       3.3999249311     0.7366254920    -0.8724042002
    4      C       4.6141157258     1.5083043514    -0.3265107831
    5      C       4.5234501617     3.0116568746    -0.6364208602
    6      C       3.1919263312     3.6120319411    -0.1553454210
    7      H       3.4595600192    -0.3253264201    -0.6018739295
    8      H       2.0848722036     1.2491949124     0.7623998923
    9      H       1.9441078562     2.9396180814    -1.7939549715
   10      H       1.0432646619     3.2436156897    -0.3113853605
   11      H       4.6669742027     1.3623613792     0.7707362762
   12      H       5.5362079193     1.0911372747    -0.7482190010
   13      H       5.3693699459     3.5461244220    -0.1802824637
   14      H       4.6166959494     3.1626479665    -1.7191663225
   15      H       3.1590511106     3.5921433680     0.9525481185
   16      H       3.1206062102     4.6641291909    -0.4577497710
   17      H       3.4047149301     0.7809586254    -1.9698217295
   18      N       0.9205549237     0.5850242710    -0.7775168980
   19      H       0.7666805830     0.4858474811    -1.7786831426
   20      C       0.0214289237     0.0161374069     0.0443922126
   21      H      -0.7818693823    -0.5030869120    -0.5027570179
   22      O       0.0466330998     0.0399297727     1.2894979501
 ----------------------------------------------------------------
 Nuclear Repulsion Energy =         466.63384909 hartrees
 There are       35 alpha and       35 beta electrons
 Applying Cartesian multipole field
    Component          Value
    ---------          -----
     (0,0,1)        1.94480E-02
 Nucleus-field energy     =    -0.7563381415 hartrees
 Requested basis set is 6-31+G(d)
 There are 71 shells and 197 basis functions
 A cutoff of  1.0D-14 yielded   2412 shell pairs
 There are     19009 function pairs
 Smallest overlap matrix eigenvalue = 2.55E-05
 Guess MOs from SCF MO coefficient file

 -----------------------------------------------------------------------
  General SCF calculation program by
  Eric Jon Sundstrom, Paul Horn, Yuezhi Mao, Dmitri Zuev, Alec White,
  David Stuck, Shaama M.S., Shane Yost, Joonho Lee, David Small,
  Daniel Levine, Susi Lehtola, Hugh Burton, Evgeny Epifanovsky,
  Bang C. Huynh
 -----------------------------------------------------------------------
 Exchange:     0.2000 Hartree-Fock + 0.0800 Slater + 0.7200 B88
 Correlation:  0.1900 VWN1RPA + 0.8100 LYP
 Using Euler-Maclaurin-Lebedev (99,590) quadrature formula
 using 16 threads for integral computing
 -------------------------------------------------------
 OpenMP Integral computing Module                
 Release: version 2.0, May 2017, Q-Chem Inc. Pleasanton 
 -------------------------------------------------------
 A restricted SCF calculation will be
 performed using DIIS
 SCF converges when DIIS error is below 1.0e-09
 ---------------------------------------
  Cycle       Energy         DIIS error
 ---------------------------------------
    1    -404.6322375214      2.16e-05  
    2    -404.6322410680      7.41e-06  
    3    -404.6322406804      1.25e-05  
    4    -404.6322412834      1.77e-06  
    5    -404.6322412952      4.60e-07  
    6    -404.6322412962      9.17e-08  
    7    -404.6322412962      4.35e-08  
    8    -404.6322412962      8.64e-09  
    9    -404.6322412962      2.71e-09  
   10    -404.6322412962      7.19e-10  Convergence criterion met
 ---------------------------------------
 SCF time:   CPU 478.15s  wall 30.00s 
 SCF   energy in the final basis set =     -404.6322412962
 Total energy in the final basis set =     -404.6322412962
 
 --------------------------------------------------------------
 
                    Orbital Energies (a.u.)
 --------------------------------------------------------------
 
 Alpha MOs
 -- Occupied --
-19.1325 -14.3672 -10.2907 -10.2235 -10.1862 -10.1829 -10.1764 -10.1739
-10.1734  -1.0335  -0.9282  -0.8224  -0.7395  -0.7387  -0.6332  -0.6085
 -0.5881  -0.5622  -0.5222  -0.4819  -0.4563  -0.4406  -0.4357  -0.4158
 -0.4135  -0.3931  -0.3762  -0.3698  -0.3417  -0.3414  -0.3196  -0.3107
 -0.3068  -0.2678  -0.2562
 -- Virtual --
 -0.0344  -0.0017   0.0016   0.0125   0.0269   0.0354   0.0431   0.0535
  0.0642   0.0720   0.0788   0.0859   0.0940   0.0967   0.1153   0.1205
  0.1302   0.1308   0.1393   0.1437   0.1471   0.1612   0.1717   0.1756
  0.1791   0.1823   0.1873   0.1962   0.2042   0.2111   0.2193   0.2219
  0.2256   0.2341   0.2372   0.2498   0.2531   0.2664   0.2697   0.2804
  0.2844   0.2879   0.2962   0.3005   0.3040   0.3093   0.3158   0.3372
  0.3388   0.3456   0.3635   0.3845   0.3871   0.4017   0.4240   0.4262
  0.4424   0.4689   0.4849   0.6157   0.6434   0.6652   0.6687   0.6748
  0.6846   0.6993   0.7314   0.7386   0.7548   0.7575   0.7793   0.7829
  0.8043   0.8116   0.8254   0.8552   0.8712   0.9158   0.9581   0.9771
  0.9871   0.9940   1.0196   1.0287   1.0334   1.0595   1.0927   1.1142
  1.1223   1.1274   1.1352   1.1489   1.1580   1.1822   1.1912   1.1970
  1.2414   1.2459   1.2809   1.3280   1.3507   1.3784   1.3933   1.4276
  1.4789   1.4877   1.4985   1.5665   1.5727   1.6134   1.7083   1.7347
  1.7366   1.7516   1.7765   1.8078   1.8517   1.8684   1.9054   1.9083
  1.9180   1.9424   1.9907   2.0122   2.0233   2.0510   2.0576   2.0866
  2.0898   2.1336   2.2087   2.2237   2.2839   2.3122   2.3194   2.3468
  2.3985   2.4135   2.4187   2.4217   2.4537   2.5654   2.5919   2.6184
  2.6776   2.6861   2.7019   2.7663   2.7848   2.8378   2.8679   2.9890
  3.1855   4.1001   4.1964   4.2293   4.2951   4.3365   4.4155   4.6093
  4.6141   4.6786
 --------------------------------------------------------------
 
          Ground-State Mulliken Net Atomic Charges

     Atom                 Charge (a.u.)
  ----------------------------------------
      1 C                    -0.219797
      2 C                    -0.486797
      3 C                    -0.238833
      4 C                    -0.480591
      5 C                    -0.306974
      6 C                    -0.489022
      7 H                     0.201821
      8 H                     0.193373
      9 H                     0.263465
     10 H                     0.193707
     11 H                     0.139445
     12 H                     0.226640
     13 H                     0.173146
     14 H                     0.265479
     15 H                     0.137694
     16 H                     0.217308
     17 H                     0.264976
     18 N                    -0.377184
     19 H                     0.454188
     20 C                     0.303498
     21 H                     0.180558
     22 O                    -0.616100
  ----------------------------------------
  Sum of atomic charges =     0.000000

 -----------------------------------------------------------------
                    Cartesian Multipole Moments
 -----------------------------------------------------------------
    Charge (ESU x 10^10)
                 0.0000
    Dipole Moment (Debye)
         X       1.9551      Y       1.2065      Z      -8.1964
       Tot       8.5123
    Quadrupole Moments (Debye-Ang)
        XX     -50.6833     XY       3.8165     YY     -54.4153
        XZ     -10.3058     YZ      -6.7816     ZZ     -56.1226
    Octopole Moments (Debye-Ang^2)
       XXX    -390.3064    XXY     -80.4005    XYY    -129.5961
       YYY    -263.2897    XXZ     -22.4654    XYZ     -22.1416
       YYZ      -3.1079    XZZ    -123.9350    YZZ     -82.1694
       ZZZ      21.9798
    Hexadecapole Moments (Debye-Ang^3)
      XXXX   -2962.3763   XXXY    -843.5099   XXYY    -741.2170
      XYYY    -855.9595   YYYY   -1510.2138   XXXZ      41.3970
      XXYZ     -38.5691   XYYZ       4.2180   YYYZ      55.6315
      XXZZ    -512.9932   XYZZ    -268.5173   YYZZ    -285.8051
      XZZZ     162.6714   YZZZ      96.0968   ZZZZ    -251.7082
 -----------------------------------------------------------------
 Calculating analytic gradient of the SCF energy
 Gradient of SCF Energy
            1           2           3           4           5           6
    1   0.0000492  -0.0000892   0.0000828  -0.0000521   0.0000324  -0.0000614
    2   0.0000213  -0.0000533   0.0000480  -0.0000366   0.0000136  -0.0000299
    3   0.0000053  -0.0001045   0.0000294   0.0000473   0.0002198   0.0000343
            7           8           9          10          11          12
    1   0.0000182  -0.0001114   0.0001033  -0.0000445  -0.0000997   0.0000166
    2  -0.0000324  -0.0000590   0.0000746   0.0000243  -0.0000558   0.0000128
    3  -0.0000537  -0.0000898   0.0000090  -0.0000737   0.0001908   0.0002027
           13          14          15          16          17          18
    1  -0.0000105   0.0001046  -0.0001050   0.0000006   0.0001269   0.0001664
    2  -0.0000094   0.0000569  -0.0000750  -0.0000108   0.0000566   0.0000829
    3   0.0002789   0.0002131   0.0001790   0.0001765   0.0000262  -0.0002206
           19          20          21          22
    1   0.0000864  -0.0000378   0.0000291  -0.0002050
    2   0.0000563   0.0000794  -0.0000123  -0.0001523
    3  -0.0002238  -0.0002928  -0.0003675  -0.0001860
 Max gradient component =       3.675E-04
 RMS gradient           =       1.200E-04
 Gradient time:  CPU 119.46 s  wall 7.57 s
 Geometry Optimization Parameters
   NAtoms,    NIC,     NZ,  NCons,   NDum,   NFix, NCnnct, MaxDiis
       22     172       0       0       0       0       0       0

 Cartesian Hessian Update
 Hessian updated using BFGS update


** GEOMETRY OPTIMIZATION IN DELOCALIZED INTERNAL COORDINATES **
   Searching for a Minimum

   Optimization Cycle:   4

                       Coordinates (Angstroms)
     ATOM                X               Y               Z
      1  C         1.9833468572    2.8321728086   -0.7017370065
      2  C         2.0927899211    1.3418187629   -0.3311414646
      3  C         3.3999249311    0.7366254920   -0.8724042002
      4  C         4.6141157258    1.5083043514   -0.3265107831
      5  C         4.5234501617    3.0116568746   -0.6364208602
      6  C         3.1919263312    3.6120319411   -0.1553454210
      7  H         3.4595600192   -0.3253264201   -0.6018739295
      8  H         2.0848722036    1.2491949124    0.7623998923
      9  H         1.9441078562    2.9396180814   -1.7939549715
     10  H         1.0432646619    3.2436156897   -0.3113853605
     11  H         4.6669742027    1.3623613792    0.7707362762
     12  H         5.5362079193    1.0911372747   -0.7482190010
     13  H         5.3693699459    3.5461244220   -0.1802824637
     14  H         4.6166959494    3.1626479665   -1.7191663225
     15  H         3.1590511106    3.5921433680    0.9525481185
     16  H         3.1206062102    4.6641291909   -0.4577497710
     17  H         3.4047149301    0.7809586254   -1.9698217295
     18  N         0.9205549237    0.5850242710   -0.7775168980
     19  H         0.7666805830    0.4858474811   -1.7786831426
     20  C         0.0214289237    0.0161374069    0.0443922126
     21  H        -0.7818693823   -0.5030869120   -0.5027570179
     22  O         0.0466330998    0.0399297727    1.2894979501
   Point Group: c1    Number of degrees of freedom:    60


   Energy is   -404.632241296

 Hessian updated using BFGS update

 60 Hessian modes will be used to form the next step
  Hessian Eigenvalues:
     0.005808    0.005973    0.006927    0.007167    0.012592    0.019498
     0.019848    0.020840    0.021164    0.037282    0.038725    0.039427
     0.041842    0.048021    0.048459    0.048867    0.055294    0.055737
     0.056055    0.060102    0.066961    0.081067    0.081528    0.081611
     0.082024    0.082140    0.083828    0.087504    0.119339    0.120968
     0.142917    0.149775    0.160530    0.161734    0.174924    0.210968
     0.220189    0.248234    0.271969    0.273322    0.275485    0.281221
     0.286888    0.289802    0.326587    0.330013    0.334538    0.334862
     0.336540    0.336846    0.339368    0.339447    0.339483    0.340174
     0.340288    0.344060    0.375834    0.454429    0.469032    0.822198

 Minimum search - taking simple RFO step
 Searching for Lamda that Minimizes Along All modes
 Value Taken    Lamda =  -0.00000047
 Step Taken.  Stepsize is  0.003670

                             Maximum     Tolerance    Cnvgd?
         Gradient           0.000146      0.000100      NO
         Displacement       0.001827      0.000100      NO
         Energy change     -0.000003      0.000000      NO


 New Cartesian Coordinates Obtained by Inverse Iteration

 Displacement from previous Coordinates is:  0.004472
 ----------------------------------------------------------------
             Standard Nuclear Orientation (Angstroms)
    I     Atom           X                Y                Z
 ----------------------------------------------------------------
    1      C       1.9832843431     2.8319102806    -0.7015913440
    2      C       2.0929003672     1.3415914094    -0.3310282198
    3      C       3.3999734990     0.7366017060    -0.8724890102
    4      C       4.6142519685     1.5083401265    -0.3265795107
    5      C       4.5234160967     3.0117162151    -0.6362446574
    6      C       3.1918481868     3.6120365221    -0.1552963341
    7      H       3.4597072178    -0.3252759419    -0.6019190082
    8      H       2.0850830016     1.2488790484     0.7625110196
    9      H       1.9439015207     2.9392537740    -1.7938441924
   10      H       1.0432734766     3.2431244949    -0.3110097086
   11      H       4.6673737482     1.3620804919     0.7704983425
   12      H       5.5362991516     1.0913728529    -0.7486229329
   13      H       5.3691986379     3.5461442338    -0.1798008104
   14      H       4.6168130174     3.1628846049    -1.7189565724
   15      H       3.1588771078     3.5925268885     0.9524781333
   16      H       3.1204815231     4.6640459814    -0.4580565291
   17      H       3.4045866409     0.7811009043    -1.9699350841
   18      N       0.9206336222     0.5846370696    -0.7775954275
   19      H       0.7671102740     0.4854347932    -1.7787886549
   20      C       0.0215068154     0.0158704458     0.0442216630
   21      H      -0.7825888817    -0.5024468660    -0.5026413610
   22      O       0.0464757501     0.0412377049     1.2892943054
 ----------------------------------------------------------------
 Nuclear Repulsion Energy =         466.64049683 hartrees
 There are       35 alpha and       35 beta electrons
 Applying Cartesian multipole field
    Component          Value
    ---------          -----
     (0,0,1)        1.94480E-02
 Nucleus-field energy     =    -0.7563784262 hartrees
 Requested basis set is 6-31+G(d)
 There are 71 shells and 197 basis functions
 A cutoff of  1.0D-14 yielded   2413 shell pairs
 There are     19013 function pairs
 Smallest overlap matrix eigenvalue = 2.55E-05
 Guess MOs from SCF MO coefficient file

 -----------------------------------------------------------------------
  General SCF calculation program by
  Eric Jon Sundstrom, Paul Horn, Yuezhi Mao, Dmitri Zuev, Alec White,
  David Stuck, Shaama M.S., Shane Yost, Joonho Lee, David Small,
  Daniel Levine, Susi Lehtola, Hugh Burton, Evgeny Epifanovsky,
  Bang C. Huynh
 -----------------------------------------------------------------------
 Exchange:     0.2000 Hartree-Fock + 0.0800 Slater + 0.7200 B88
 Correlation:  0.1900 VWN1RPA + 0.8100 LYP
 Using Euler-Maclaurin-Lebedev (99,590) quadrature formula
 using 16 threads for integral computing
 -------------------------------------------------------
 OpenMP Integral computing Module                
 Release: version 2.0, May 2017, Q-Chem Inc. Pleasanton 
 -------------------------------------------------------
 A restricted SCF calculation will be
 performed using DIIS
 SCF converges when DIIS error is below 1.0e-09
 ---------------------------------------
  Cycle       Energy         DIIS error
 ---------------------------------------
    1    -404.6322401698      1.17e-05  
    2    -404.6322413195      1.57e-06  
    3    -404.6322413325      8.02e-07  
    4    -404.6322413345      4.60e-07  
    5    -404.6322413353      1.30e-07  
    6    -404.6322413353      5.61e-08  
    7    -404.6322413353      1.59e-08  
    8    -404.6322413353      3.18e-09  
    9    -404.6322413353      8.12e-10  Convergence criterion met
 ---------------------------------------
 SCF time:   CPU 444.38s  wall 28.00s 
 SCF   energy in the final basis set =     -404.6322413353
 Total energy in the final basis set =     -404.6322413353
 
 --------------------------------------------------------------
 
                    Orbital Energies (a.u.)
 --------------------------------------------------------------
 
 Alpha MOs
 -- Occupied --
-19.1325 -14.3672 -10.2907 -10.2235 -10.1862 -10.1829 -10.1764 -10.1739
-10.1734  -1.0335  -0.9281  -0.8223  -0.7395  -0.7387  -0.6332  -0.6085
 -0.5881  -0.5622  -0.5222  -0.4819  -0.4563  -0.4406  -0.4357  -0.4159
 -0.4135  -0.3931  -0.3762  -0.3698  -0.3417  -0.3414  -0.3196  -0.3107
 -0.3068  -0.2678  -0.2562
 -- Virtual --
 -0.0344  -0.0017   0.0016   0.0125   0.0269   0.0355   0.0431   0.0535
  0.0642   0.0720   0.0788   0.0859   0.0940   0.0967   0.1153   0.1205
  0.1302   0.1308   0.1393   0.1437   0.1471   0.1612   0.1717   0.1755
  0.1792   0.1823   0.1873   0.1962   0.2042   0.2111   0.2193   0.2219
  0.2256   0.2341   0.2372   0.2498   0.2531   0.2665   0.2697   0.2804
  0.2844   0.2879   0.2962   0.3005   0.3040   0.3093   0.3158   0.3372
  0.3388   0.3456   0.3635   0.3845   0.3872   0.4017   0.4240   0.4262
  0.4425   0.4689   0.4849   0.6157   0.6434   0.6652   0.6687   0.6748
  0.6846   0.6993   0.7314   0.7386   0.7547   0.7575   0.7793   0.7829
  0.8042   0.8117   0.8253   0.8552   0.8712   0.9158   0.9581   0.9771
  0.9871   0.9941   1.0196   1.0287   1.0335   1.0595   1.0927   1.1142
  1.1224   1.1274   1.1353   1.1489   1.1581   1.1822   1.1912   1.1970
  1.2415   1.2459   1.2809   1.3280   1.3506   1.3785   1.3933   1.4276
  1.4790   1.4876   1.4985   1.5666   1.5726   1.6133   1.7084   1.7348
  1.7366   1.7517   1.7764   1.8078   1.8516   1.8686   1.9054   1.9083
  1.9179   1.9423   1.9905   2.0122   2.0233   2.0511   2.0576   2.0867
  2.0899   2.1336   2.2088   2.2237   2.2841   2.3122   2.3194   2.3467
  2.3984   2.4136   2.4188   2.4217   2.4536   2.5653   2.5919   2.6183
  2.6776   2.6861   2.7020   2.7663   2.7848   2.8377   2.8679   2.9891
  3.1855   4.1000   4.1964   4.2293   4.2951   4.3366   4.4154   4.6093
  4.6141   4.6786
 --------------------------------------------------------------
 
          Ground-State Mulliken Net Atomic Charges

     Atom                 Charge (a.u.)
  ----------------------------------------
      1 C                    -0.219839
      2 C                    -0.486728
      3 C                    -0.238740
      4 C                    -0.480551
      5 C                    -0.307088
      6 C                    -0.489024
      7 H                     0.201813
      8 H                     0.193414
      9 H                     0.263443
     10 H                     0.193717
     11 H                     0.139461
     12 H                     0.226661
     13 H                     0.173117
     14 H                     0.265479
     15 H                     0.137716
     16 H                     0.217334
     17 H                     0.264953
     18 N                    -0.377269
     19 H                     0.454184
     20 C                     0.303462
     21 H                     0.180597
     22 O                    -0.616111
  ----------------------------------------
  Sum of atomic charges =     0.000000

 -----------------------------------------------------------------
                    Cartesian Multipole Moments
 -----------------------------------------------------------------
    Charge (ESU x 10^10)
                 0.0000
    Dipole Moment (Debye)
         X       1.9554      Y       1.2034      Z      -8.1957
       Tot       8.5112
    Quadrupole Moments (Debye-Ang)
        XX     -50.6828     XY       3.8173     YY     -54.4160
        XZ     -10.3023     YZ      -6.7844     ZZ     -56.1209
    Octopole Moments (Debye-Ang^2)
       XXX    -390.3189    XXY     -80.4028    XYY    -129.5969
       YYY    -263.2964    XXZ     -22.4550    XYZ     -22.1368
       YYZ      -3.0998    XZZ    -123.9290    YZZ     -82.1758
       ZZZ      21.9856
    Hexadecapole Moments (Debye-Ang^3)
      XXXX   -2962.5016   XXXY    -843.5131   XXYY    -741.2282
      XYYY    -855.9473   YYYY   -1510.1480   XXXZ      41.4401
      XXYZ     -38.5728   XYYZ       4.2338   YYYZ      55.5948
      XXZZ    -512.9806   XYZZ    -268.5016   YYZZ    -285.7832
      XZZZ     162.6736   YZZZ      96.0421   ZZZZ    -251.6729
 -----------------------------------------------------------------
 Calculating analytic gradient of the SCF energy
 Gradient of SCF Energy
            1           2           3           4           5           6
    1   0.0000164  -0.0000532   0.0000397  -0.0000190   0.0000183  -0.0000236
    2   0.0000169  -0.0000166   0.0000057  -0.0000109   0.0000082  -0.0000162
    3   0.0000098  -0.0000840   0.0000259   0.0001418   0.0002085   0.0001236
            7           8           9          10          11          12
    1   0.0000092  -0.0000958   0.0001064  -0.0000089  -0.0000949   0.0000249
    2   0.0000063  -0.0000550   0.0000618  -0.0000034  -0.0000555   0.0000131
    3  -0.0000406  -0.0000761  -0.0000148  -0.0000686   0.0001287   0.0001973
           13          14          15          16          17          18
    1  -0.0000176   0.0001003  -0.0001063   0.0000076   0.0001154   0.0000217
    2  -0.0000147   0.0000561  -0.0000634  -0.0000011   0.0000697   0.0000627
    3   0.0002929   0.0002070   0.0001125   0.0001714   0.0000012  -0.0001584
           19          20          21          22
    1   0.0000931   0.0000977  -0.0000413  -0.0001902
    2   0.0000759  -0.0002095   0.0000682   0.0000018
    3  -0.0002050  -0.0003639  -0.0003691  -0.0002403
 Max gradient component =       3.691E-04
 RMS gradient           =       1.186E-04
 Gradient time:  CPU 122.09 s  wall 7.81 s
 Geometry Optimization Parameters
   NAtoms,    NIC,     NZ,  NCons,   NDum,   NFix, NCnnct, MaxDiis
       22     172       0       0       0       0       0       0

 Cartesian Hessian Update
 Hessian updated using BFGS update


** GEOMETRY OPTIMIZATION IN DELOCALIZED INTERNAL COORDINATES **
   Searching for a Minimum

   Optimization Cycle:   5

                       Coordinates (Angstroms)
     ATOM                X               Y               Z
      1  C         1.9832843431    2.8319102806   -0.7015913440
      2  C         2.0929003672    1.3415914094   -0.3310282198
      3  C         3.3999734990    0.7366017060   -0.8724890102
      4  C         4.6142519685    1.5083401265   -0.3265795107
      5  C         4.5234160967    3.0117162151   -0.6362446574
      6  C         3.1918481868    3.6120365221   -0.1552963341
      7  H         3.4597072178   -0.3252759419   -0.6019190082
      8  H         2.0850830016    1.2488790484    0.7625110196
      9  H         1.9439015207    2.9392537740   -1.7938441924
     10  H         1.0432734766    3.2431244949   -0.3110097086
     11  H         4.6673737482    1.3620804919    0.7704983425
     12  H         5.5362991516    1.0913728529   -0.7486229329
     13  H         5.3691986379    3.5461442338   -0.1798008104
     14  H         4.6168130174    3.1628846049   -1.7189565724
     15  H         3.1588771078    3.5925268885    0.9524781333
     16  H         3.1204815231    4.6640459814   -0.4580565291
     17  H         3.4045866409    0.7811009043   -1.9699350841
     18  N         0.9206336222    0.5846370696   -0.7775954275
     19  H         0.7671102740    0.4854347932   -1.7787886549
     20  C         0.0215068154    0.0158704458    0.0442216630
     21  H        -0.7825888817   -0.5024468660   -0.5026413610
     22  O         0.0464757501    0.0412377049    1.2892943054
   Point Group: c1    Number of degrees of freedom:    60


   Energy is   -404.632241335

 Hessian updated using BFGS update

 60 Hessian modes will be used to form the next step
  Hessian Eigenvalues:
     0.005704    0.005962    0.006553    0.007177    0.012567    0.019492
     0.019870    0.020723    0.036759    0.037859    0.039405    0.040507
     0.047849    0.048417    0.048597    0.054654    0.055333    0.055753
     0.058152    0.062457    0.067098    0.081159    0.081524    0.081679
     0.081762    0.082166    0.083936    0.087513    0.119446    0.120970
     0.142636    0.148849    0.158892    0.160859    0.175125    0.209259
     0.219308    0.223840    0.271287    0.272078    0.275138    0.276827
     0.286895    0.288141    0.321345    0.327857    0.334565    0.334974
     0.336537    0.337034    0.339166    0.339436    0.339490    0.340141
     0.340296    0.343945    0.358564    0.454400    0.472269    0.797963

 Minimum search - taking simple RFO step
 Searching for Lamda that Minimizes Along All modes
 Value Taken    Lamda =  -0.00000046
 Step Taken.  Stepsize is  0.003171

                             Maximum     Tolerance    Cnvgd?
         Gradient           0.000132      0.000100      NO
         Displacement       0.002332      0.000100      NO
         Energy change     -0.000000      0.000000     YES


 New Cartesian Coordinates Obtained by Inverse Iteration

 Displacement from previous Coordinates is:  0.003635
 ----------------------------------------------------------------
             Standard Nuclear Orientation (Angstroms)
    I     Atom           X                Y                Z
 ----------------------------------------------------------------
    1      C       1.9833270997     2.8320292216    -0.7015701278
    2      C       2.0927763974     1.3417433635    -0.3309420547
    3      C       3.3997568956     0.7366688317    -0.8723917553
    4      C       4.6141747375     1.5082886221    -0.3264896997
    5      C       4.5234762264     3.0116583102    -0.6361845813
    6      C       3.1919641389     3.6121869659    -0.1553790792
    7      H       3.4593487058    -0.3251402849    -0.6016366872
    8      H       2.0849468104     1.2490450921     0.7626171523
    9      H       1.9438391325     2.9392716907    -1.7938332042
   10      H       1.0434116241     3.2432401840    -0.3108430622
   11      H       4.6673680823     1.3619606207     0.7705327934
   12      H       5.5361300523     1.0912185316    -0.7486556244
   13      H       5.3692557751     3.5459956410    -0.1796430546
   14      H       4.6169822409     3.1627883603    -1.7188823368
   15      H       3.1589222350     3.5929925376     0.9523496841
   16      H       3.1206886874     4.6641244506    -0.4584601997
   17      H       3.4043360569     0.7810966532    -1.9698467116
   18      N       0.9203638231     0.5848735015    -0.7777044963
   19      H       0.7670354535     0.4856174313    -1.7789140205
   20      C       0.0212293705     0.0161330832     0.0440729817
   21      H      -0.7823233982    -0.5031731241    -0.5026838911
   22      O       0.0473969378     0.0404470567     1.2890920813
 ----------------------------------------------------------------
 Nuclear Repulsion Energy =         466.64477364 hartrees
 There are       35 alpha and       35 beta electrons
 Applying Cartesian multipole field
    Component          Value
    ---------          -----
     (0,0,1)        1.94480E-02
 Nucleus-field energy     =    -0.7564318810 hartrees
 Requested basis set is 6-31+G(d)
 There are 71 shells and 197 basis functions
 A cutoff of  1.0D-14 yielded   2413 shell pairs
 There are     19013 function pairs
 Smallest overlap matrix eigenvalue = 2.55E-05
 Guess MOs from SCF MO coefficient file

 -----------------------------------------------------------------------
  General SCF calculation program by
  Eric Jon Sundstrom, Paul Horn, Yuezhi Mao, Dmitri Zuev, Alec White,
  David Stuck, Shaama M.S., Shane Yost, Joonho Lee, David Small,
  Daniel Levine, Susi Lehtola, Hugh Burton, Evgeny Epifanovsky,
  Bang C. Huynh
 -----------------------------------------------------------------------
 Exchange:     0.2000 Hartree-Fock + 0.0800 Slater + 0.7200 B88
 Correlation:  0.1900 VWN1RPA + 0.8100 LYP
 Using Euler-Maclaurin-Lebedev (99,590) quadrature formula
 using 16 threads for integral computing
 -------------------------------------------------------
 OpenMP Integral computing Module                
 Release: version 2.0, May 2017, Q-Chem Inc. Pleasanton 
 -------------------------------------------------------
 A restricted SCF calculation will be
 performed using DIIS
 SCF converges when DIIS error is below 1.0e-09
 ---------------------------------------
  Cycle       Energy         DIIS error
 ---------------------------------------
    1    -404.6322403318      1.12e-05  
    2    -404.6322413927      1.62e-06  
    3    -404.6322414015      1.29e-06  
    4    -404.6322414051      9.20e-07  
    5    -404.6322414084      1.11e-07  
    6    -404.6322414084      4.64e-08  
    7    -404.6322414085      1.28e-08  
    8    -404.6322414085      2.95e-09  
    9    -404.6322414085      6.62e-10  Convergence criterion met
 ---------------------------------------
 SCF time:   CPU 443.81s  wall 28.00s 
 SCF   energy in the final basis set =     -404.6322414085
 Total energy in the final basis set =     -404.6322414085
 
 --------------------------------------------------------------
 
                    Orbital Energies (a.u.)
 --------------------------------------------------------------
 
 Alpha MOs
 -- Occupied --
-19.1325 -14.3672 -10.2907 -10.2235 -10.1862 -10.1828 -10.1764 -10.1739
-10.1734  -1.0336  -0.9281  -0.8223  -0.7395  -0.7386  -0.6332  -0.6085
 -0.5881  -0.5622  -0.5222  -0.4818  -0.4563  -0.4406  -0.4357  -0.4158
 -0.4135  -0.3931  -0.3762  -0.3698  -0.3417  -0.3414  -0.3196  -0.3107
 -0.3068  -0.2678  -0.2562
 -- Virtual --
 -0.0344  -0.0017   0.0016   0.0125   0.0269   0.0355   0.0431   0.0535
  0.0642   0.0720   0.0788   0.0859   0.0940   0.0967   0.1154   0.1205
  0.1302   0.1308   0.1393   0.1437   0.1471   0.1612   0.1717   0.1756
  0.1792   0.1823   0.1873   0.1962   0.2042   0.2111   0.2193   0.2219
  0.2256   0.2341   0.2372   0.2498   0.2531   0.2665   0.2697   0.2804
  0.2844   0.2880   0.2962   0.3005   0.3040   0.3092   0.3158   0.3372
  0.3389   0.3457   0.3635   0.3845   0.3872   0.4017   0.4240   0.4262
  0.4425   0.4689   0.4849   0.6157   0.6434   0.6652   0.6687   0.6748
  0.6846   0.6993   0.7314   0.7386   0.7548   0.7574   0.7794   0.7828
  0.8043   0.8117   0.8253   0.8551   0.8712   0.9157   0.9581   0.9771
  0.9871   0.9941   1.0196   1.0287   1.0335   1.0595   1.0927   1.1142
  1.1224   1.1274   1.1353   1.1489   1.1581   1.1822   1.1912   1.1970
  1.2414   1.2460   1.2809   1.3280   1.3506   1.3785   1.3933   1.4275
  1.4789   1.4878   1.4985   1.5666   1.5727   1.6132   1.7084   1.7349
  1.7367   1.7517   1.7764   1.8078   1.8517   1.8686   1.9054   1.9083
  1.9179   1.9423   1.9905   2.0121   2.0232   2.0511   2.0576   2.0868
  2.0899   2.1337   2.2088   2.2238   2.2842   2.3122   2.3194   2.3467
  2.3984   2.4137   2.4188   2.4217   2.4536   2.5653   2.5919   2.6183
  2.6776   2.6861   2.7020   2.7663   2.7849   2.8377   2.8679   2.9892
  3.1855   4.1000   4.1964   4.2294   4.2951   4.3366   4.4153   4.6093
  4.6141   4.6785
 --------------------------------------------------------------
 
          Ground-State Mulliken Net Atomic Charges

     Atom                 Charge (a.u.)
  ----------------------------------------
      1 C                    -0.219625
      2 C                    -0.486781
      3 C                    -0.238857
      4 C                    -0.480556
      5 C                    -0.307126
      6 C                    -0.489022
      7 H                     0.201814
      8 H                     0.193454
      9 H                     0.263433
     10 H                     0.193693
     11 H                     0.139467
     12 H                     0.226669
     13 H                     0.173107
     14 H                     0.265480
     15 H                     0.137716
     16 H                     0.217354
     17 H                     0.264943
     18 N                    -0.377335
     19 H                     0.454174
     20 C                     0.303477
     21 H                     0.180616
     22 O                    -0.616093
  ----------------------------------------
  Sum of atomic charges =     0.000000

 -----------------------------------------------------------------
                    Cartesian Multipole Moments
 -----------------------------------------------------------------
    Charge (ESU x 10^10)
                -0.0000
    Dipole Moment (Debye)
         X       1.9532      Y       1.2047      Z      -8.1949
       Tot       8.5101
    Quadrupole Moments (Debye-Ang)
        XX     -50.6830     XY       3.8174     YY     -54.4171
        XZ     -10.3044     YZ      -6.7798     ZZ     -56.1188
    Octopole Moments (Debye-Ang^2)
       XXX    -390.3262    XXY     -80.4051    XYY    -129.6017
       YYY    -263.3053    XXZ     -22.4478    XYZ     -22.1358
       YYZ      -3.0966    XZZ    -123.9322    YZZ     -82.1705
       ZZZ      21.9923
    Hexadecapole Moments (Debye-Ang^3)
      XXXX   -2962.4689   XXXY    -843.5550   XXYY    -741.2457
      XYYY    -855.9824   YYYY   -1510.2626   XXXZ      41.4208
      XXYZ     -38.5600   XYYZ       4.2213   YYYZ      55.6213
      XXZZ    -512.9597   XYZZ    -268.5031   YYZZ    -285.7864
[...]

 Mode:                40                     41                     42
 Frequency:      1414.95                1501.53                1506.68
 Force Cnst:      1.7042                 1.4465                 1.4537
 Red. Mass:       1.4447                 1.0889                 1.0869
 IR Active:          YES                    YES                    YES
 IR Intens:        1.592                  0.444                  9.333
 Raman Active:       YES                    YES                    YES
               X      Y      Z        X      Y      Z        X      Y      Z
 C          0.053  0.097  0.017   -0.019  0.005 -0.018    0.012 -0.021  0.010
 C         -0.085 -0.063 -0.009   -0.009  0.013  0.001    0.008  0.005  0.004
 C          0.111  0.014  0.007    0.004  0.016  0.018   -0.014  0.007  0.007
 C         -0.012  0.025  0.007    0.038 -0.014  0.031   -0.014  0.017 -0.019
 C         -0.000 -0.001  0.007    0.006 -0.008 -0.001    0.045  0.034 -0.031
 C          0.019 -0.021  0.003   -0.003 -0.040 -0.039    0.010 -0.020 -0.023
 H         -0.364 -0.039 -0.069    0.015 -0.054 -0.220    0.014 -0.014 -0.082
 H          0.419  0.327  0.022    0.034 -0.054 -0.005   -0.030 -0.019  0.001
 H         -0.219 -0.330 -0.019    0.228 -0.083 -0.030   -0.139  0.129  0.025
 H         -0.171 -0.297 -0.089    0.066 -0.062  0.228   -0.040  0.044 -0.169
 H          0.040  0.018  0.001   -0.375  0.145  0.053    0.188 -0.131 -0.039
 H         -0.113 -0.158 -0.029   -0.120  0.096 -0.395    0.077 -0.053  0.230
 H         -0.023 -0.017  0.055    0.008 -0.018  0.006   -0.160 -0.151  0.512
 H         -0.064 -0.045  0.000   -0.035  0.039  0.002   -0.476 -0.318 -0.113
 H          0.026  0.035  0.003   -0.002  0.449 -0.009   -0.057  0.250 -0.010
 H         -0.190 -0.041 -0.015   -0.017  0.113  0.453   -0.000  0.069  0.261
 H         -0.376 -0.090 -0.003   -0.006 -0.224  0.003    0.065 -0.079  0.000
 N         -0.021 -0.012 -0.016    0.001 -0.000 -0.000    0.003  0.002 -0.000
 H          0.096  0.064 -0.043    0.000 -0.003  0.000   -0.019 -0.012  0.005
 C          0.017  0.011  0.011   -0.000 -0.000 -0.000   -0.002 -0.001  0.001
 H          0.030  0.018  0.010   -0.001  0.001 -0.000   -0.003 -0.002 -0.002
 O         -0.003 -0.002 -0.007    0.000 -0.000  0.000    0.000  0.000 -0.001
 TransDip  -0.019 -0.019  0.031    0.010 -0.019  0.000   -0.069 -0.042  0.055

 Mode:                43                     44                     45
 Frequency:      1508.53                1512.06                1528.89
 Force Cnst:      1.4669                 1.4729                 1.5084
 Red. Mass:       1.0940                 1.0934                 1.0953
 IR Active:          YES                    YES                    YES
 IR Intens:        7.285                  9.131                  2.081
 Raman Active:       YES                    YES                    YES
               X      Y      Z        X      Y      Z        X      Y      Z
 C          0.042 -0.020  0.026   -0.018  0.016 -0.015   -0.034  0.025 -0.021
 C         -0.000 -0.000 -0.000   -0.010 -0.007 -0.004   -0.011 -0.008 -0.007
 C          0.003 -0.043 -0.031    0.007 -0.026 -0.021    0.009 -0.039 -0.027
 C          0.027 -0.017  0.016   -0.035  0.022 -0.026    0.018 -0.013  0.008
 C         -0.009  0.005  0.003   -0.024 -0.016  0.011    0.034  0.024 -0.015
 C          0.002 -0.024 -0.013    0.006 -0.036 -0.029   -0.004  0.020  0.011
 H          0.001  0.084  0.418   -0.029  0.062  0.281   -0.015  0.076  0.382
 H         -0.003  0.007  0.001    0.015  0.014 -0.005    0.021  0.017 -0.006
 H         -0.402  0.183  0.051    0.214 -0.127 -0.032    0.348 -0.194 -0.049
 H         -0.111  0.074 -0.404    0.054 -0.070  0.222    0.092 -0.079  0.359
 H         -0.235  0.129  0.036    0.353 -0.162 -0.055   -0.150  0.084  0.023
 H         -0.074  0.049 -0.259    0.098 -0.113  0.376   -0.041  0.039 -0.171
 H          0.029 -0.008 -0.048    0.049  0.048 -0.195   -0.088 -0.083  0.309
 H          0.062 -0.000  0.008    0.183  0.115  0.040   -0.296 -0.194 -0.068
 H         -0.021  0.198 -0.001   -0.023  0.374 -0.009    0.022 -0.172  0.002
 H          0.005  0.039  0.193   -0.037  0.085  0.372    0.007 -0.033 -0.176
 H         -0.033  0.442 -0.000   -0.042  0.299 -0.003   -0.054  0.407 -0.002
 N         -0.000 -0.002  0.000    0.008  0.005 -0.002   -0.004 -0.002  0.002
 H          0.000  0.009 -0.001   -0.024 -0.014  0.005    0.034  0.022 -0.006
 C          0.001  0.000  0.000   -0.004 -0.002  0.000    0.004  0.003 -0.005
 H          0.001  0.001  0.000   -0.005 -0.003 -0.002    0.003  0.002  0.004
 O         -0.000  0.000 -0.000    0.001  0.000  0.001   -0.000 -0.000  0.003
 TransDip  -0.041  0.076 -0.001    0.028  0.017  0.091    0.020  0.009  0.041

 Mode:                46                     47                     48
 Frequency:      1568.18                1680.17                2250.03
 Force Cnst:      2.4770                15.3892                 7.1755
 Red. Mass:       1.7095                 9.2526                 2.4056
 IR Active:          YES                    YES                    YES
 IR Intens:      132.620                546.034                 49.441
 Raman Active:       YES                    YES                    YES
               X      Y      Z        X      Y      Z        X      Y      Z
 C          0.005  0.005  0.005   -0.018 -0.007 -0.015   -0.000 -0.000  0.000
 C          0.058  0.038 -0.046    0.021  0.013  0.029    0.002  0.001 -0.000
 C          0.006  0.004  0.005   -0.015 -0.013 -0.016   -0.000 -0.000  0.000
 C         -0.008 -0.003 -0.001    0.001  0.007  0.005    0.000  0.000  0.000
 C          0.000 -0.000  0.001   -0.001 -0.000 -0.002   -0.000 -0.000  0.000
 C         -0.005 -0.006 -0.001    0.007 -0.002  0.004    0.000  0.000  0.000
 H          0.008  0.004 -0.009    0.028 -0.001  0.030    0.001  0.000 -0.001
 H         -0.274 -0.179 -0.071   -0.074 -0.048  0.056    0.009  0.005  0.000
 H         -0.024 -0.069 -0.005    0.041  0.043 -0.012   -0.001  0.000  0.001
 H          0.008  0.013 -0.007    0.010  0.017  0.038    0.000  0.001 -0.001
 H          0.049  0.004 -0.005   -0.009 -0.005  0.010   -0.000 -0.000 -0.000
 H          0.012  0.000  0.039   -0.025 -0.025 -0.027    0.000 -0.000  0.000
 H          0.004  0.006 -0.015   -0.002 -0.003  0.011    0.000  0.000  0.000
 H          0.008  0.005  0.003    0.000 -0.000 -0.002    0.000  0.000  0.000
 H          0.020  0.042 -0.002   -0.009 -0.010  0.010   -0.000  0.000 -0.000
 H          0.004  0.006  0.037   -0.034 -0.012 -0.027   -0.000  0.000  0.000
 H         -0.076 -0.001  0.000    0.054  0.015 -0.015    0.000 -0.000  0.001
 N         -0.155 -0.100  0.063    0.069  0.044 -0.140    0.014  0.009 -0.001
 H          0.743  0.473 -0.124    0.292  0.183 -0.194   -0.054 -0.035  0.004
 C          0.079  0.051 -0.006   -0.141 -0.087  0.687   -0.142 -0.092 -0.101
 H          0.114  0.073  0.063    0.312  0.201 -0.035    0.722  0.467  0.465
 O         -0.010 -0.007 -0.021   -0.006 -0.006 -0.386    0.005  0.004  0.018
 TransDip   0.301  0.191 -0.095   -0.345 -0.222  0.626   -0.141 -0.091 -0.150

 Mode:                49                     50                     51
 Frequency:      2917.71                2926.70                3025.29
 Force Cnst:      5.3838                 5.4160                 5.7650
 Red. Mass:       1.0734                 1.0732                 1.0691
 IR Active:          YES                    YES                    YES
 IR Intens:       32.541                195.708                 72.447
 Raman Active:       YES                    YES                    YES
               X      Y      Z        X      Y      Z        X      Y      Z
 C         -0.002  0.001  0.003   -0.002  0.001  0.002   -0.000  0.001  0.000
 C         -0.000  0.001  0.001    0.000 -0.000  0.003    0.000 -0.000  0.002
 C         -0.000  0.001 -0.002    0.001 -0.003  0.003    0.001 -0.001  0.000
 C          0.005 -0.006  0.037   -0.009  0.012 -0.065    0.005 -0.001 -0.007
 C          0.001  0.002  0.002    0.006  0.003  0.007   -0.061 -0.041 -0.006
 C          0.002 -0.005 -0.067    0.002 -0.003 -0.037   -0.000  0.007 -0.007
 H          0.003 -0.015  0.003   -0.006  0.034 -0.009   -0.002  0.008 -0.003
 H          0.002 -0.004 -0.009   -0.003  0.002 -0.035   -0.000  0.002 -0.024
 H         -0.005  0.004 -0.042   -0.002  0.002 -0.021    0.000  0.000 -0.000
 H          0.027 -0.016 -0.012    0.021 -0.011 -0.009    0.005 -0.004 -0.003
 H         -0.018  0.059 -0.485    0.032 -0.110  0.848    0.004 -0.008  0.053
 H         -0.039  0.015  0.034    0.068 -0.029 -0.055   -0.062  0.024  0.029
 H         -0.015 -0.017 -0.010   -0.071 -0.043 -0.037    0.712  0.448  0.400
 H          0.004  0.001 -0.018    0.009  0.012 -0.064    0.010  0.033 -0.324
 H         -0.023 -0.026  0.859   -0.017 -0.013  0.482   -0.002  0.001  0.054
 H         -0.004  0.079 -0.048   -0.004  0.044 -0.025    0.003 -0.091  0.028
 H          0.001  0.001  0.027   -0.001 -0.000 -0.042    0.000  0.000  0.003
 N         -0.000 -0.000  0.000   -0.000 -0.000  0.000   -0.000 -0.000  0.000
 H         -0.000  0.001  0.000    0.002  0.001  0.001    0.000  0.000  0.000
 C          0.000  0.000 -0.000    0.000  0.000 -0.001    0.000  0.000 -0.000
 H         -0.000  0.000  0.000    0.000 -0.000  0.000   -0.000 -0.000 -0.000
 O          0.000 -0.000  0.000   -0.000 -0.000  0.000   -0.000 -0.000  0.000
 TransDip   0.057 -0.109 -0.135   -0.069  0.031 -0.442   -0.220 -0.137 -0.084

 Mode:                52                     53                     54
 Frequency:      3041.78                3043.54                3047.48
 Force Cnst:      5.7890                 5.8667                 5.8516
 Red. Mass:       1.0619                 1.0749                 1.0694
 IR Active:          YES                    YES                    YES
 IR Intens:       25.147                 16.761                 30.674
 Raman Active:       YES                    YES                    YES
               X      Y      Z        X      Y      Z        X      Y      Z
 C         -0.053  0.027 -0.027   -0.010  0.004  0.011   -0.020  0.009  0.005
 C         -0.001 -0.002  0.016    0.000  0.005 -0.062   -0.001  0.003 -0.043
 C         -0.000  0.011  0.004   -0.002  0.025  0.035    0.003 -0.051 -0.021
 C          0.001 -0.000  0.000    0.005 -0.002 -0.004   -0.008  0.004  0.004
 C         -0.000 -0.001  0.000   -0.001 -0.001 -0.001   -0.001 -0.001 -0.000
 C          0.001 -0.012  0.006   -0.000 -0.000 -0.001    0.000 -0.005  0.002
 H          0.006 -0.138  0.039    0.021 -0.328  0.096   -0.036  0.633 -0.176
 H          0.001  0.015 -0.197   -0.000 -0.062  0.755   -0.000 -0.042  0.530
 H          0.004 -0.050  0.599   -0.006  0.008 -0.086   -0.005 -0.003  0.035
 H          0.623 -0.274 -0.278    0.127 -0.053 -0.053    0.242 -0.106 -0.104
 H         -0.001  0.001 -0.008    0.003 -0.002  0.015   -0.000  0.002 -0.000
 H         -0.012  0.006  0.006   -0.060  0.030  0.031    0.095 -0.045 -0.046
 H          0.005  0.004  0.004    0.014  0.009  0.007    0.014  0.008  0.008
 H         -0.000  0.001 -0.004   -0.001 -0.001  0.005    0.000  0.000 -0.007
 H          0.001 -0.003 -0.020    0.001  0.001  0.013    0.001  0.000 -0.005
 H         -0.013  0.151 -0.047   -0.000  0.006 -0.001   -0.004  0.058 -0.017
 H          0.000  0.007 -0.088   -0.001  0.032 -0.515   -0.003 -0.033  0.423
 N          0.001  0.000 -0.000   -0.001 -0.001  0.001   -0.000 -0.000  0.000
 H         -0.000  0.002  0.001   -0.002  0.001 -0.008    0.002  0.001 -0.006
 C         -0.000  0.000  0.001    0.000  0.000 -0.002    0.001  0.000 -0.001
 H          0.000  0.000 -0.000   -0.001 -0.000  0.000   -0.001 -0.000 -0.000
 O         -0.000 -0.000 -0.000    0.001  0.000  0.001    0.000  0.000  0.000
 TransDip  -0.138  0.071  0.041   -0.064  0.062 -0.096   -0.101 -0.125 -0.075

 Mode:                55                     56                     57
 Frequency:      3071.83                3080.24                3084.31
 Force Cnst:      6.0415                 6.0847                 6.1912
 Red. Mass:       1.0867                 1.0885                 1.1046
 IR Active:          YES                    YES                    YES
 IR Intens:       46.073                 40.504                 12.264
 Raman Active:       YES                    YES                    YES
               X      Y      Z        X      Y      Z        X      Y      Z
 C          0.013 -0.006 -0.002   -0.007  0.002  0.015    0.030 -0.009 -0.066
 C          0.000  0.001 -0.000    0.001 -0.000  0.002    0.001 -0.000 -0.004
 C          0.000 -0.001  0.004   -0.001  0.013 -0.003    0.001 -0.031  0.045
 C         -0.000  0.001 -0.002   -0.062  0.028  0.032   -0.015  0.006  0.011
 C         -0.009 -0.005 -0.017   -0.009 -0.004 -0.033   -0.001 -0.000  0.001
 C          0.005 -0.076  0.027    0.000  0.004 -0.003    0.000  0.006 -0.007
 H         -0.001  0.017 -0.004    0.008 -0.159  0.041   -0.021  0.362 -0.090
 H          0.000  0.000 -0.002    0.000  0.003 -0.030    0.003 -0.009  0.051
 H          0.001  0.002 -0.040   -0.005  0.014 -0.139    0.025 -0.062  0.624
 H         -0.155  0.066  0.065    0.089 -0.039 -0.036   -0.385  0.169  0.156
 H          0.000 -0.003  0.016   -0.010  0.008 -0.039   -0.006  0.006 -0.052
 H         -0.001 -0.000  0.001    0.746 -0.336 -0.348    0.182 -0.081 -0.085
 H          0.118  0.072  0.061    0.134  0.087  0.069    0.006  0.003  0.003
 H         -0.012 -0.021  0.146   -0.028 -0.044  0.324   -0.001  0.004 -0.011
 H          0.002 -0.009 -0.054   -0.003 -0.000  0.022    0.002  0.001  0.057
 H         -0.061  0.912 -0.270    0.004 -0.057  0.017    0.004 -0.078  0.023
 H          0.001  0.002 -0.043    0.000  0.002 -0.004    0.000  0.016 -0.440
 N         -0.000 -0.000  0.000   -0.000 -0.000 -0.000   -0.000  0.000  0.000
 H         -0.000 -0.000 -0.000   -0.000 -0.000  0.000   -0.000  0.001 -0.001
 C          0.000  0.000 -0.000    0.000  0.000 -0.000    0.000 -0.000 -0.000
 H         -0.000 -0.000 -0.000   -0.000 -0.000 -0.000    0.000 -0.000  0.000
 O         -0.000 -0.000  0.000   -0.000 -0.000  0.000    0.000  0.000  0.000
 TransDip   0.004 -0.217  0.004   -0.186  0.081  0.015    0.056 -0.093 -0.028

 Mode:                58                     59                     60
 Frequency:      3087.53                3092.86                3551.27
 Force Cnst:      6.1659                 6.2007                 8.0198
 Red. Mass:       1.0978                 1.1002                 1.0793
 IR Active:          YES                    YES                    YES
 IR Intens:        4.071                 37.404                 71.262
 Raman Active:       YES                    YES                    YES
               X      Y      Z        X      Y      Z        X      Y      Z
 C         -0.012  0.004  0.024    0.017 -0.005 -0.041   -0.000  0.000  0.000
 C         -0.001 -0.002  0.015    0.000  0.002 -0.020    0.001  0.001 -0.000
 C          0.002 -0.030  0.036   -0.001  0.030 -0.047   -0.000 -0.000  0.000
 C          0.021 -0.009 -0.013    0.013 -0.005 -0.014   -0.000  0.000  0.000
 C         -0.006  0.001 -0.064   -0.006  0.000 -0.048   -0.000 -0.000  0.000
 C         -0.001  0.011 -0.006   -0.001  0.008 -0.009    0.000 -0.000  0.000
 H         -0.020  0.349 -0.087    0.020 -0.341  0.086   -0.000  0.001 -0.000
 H          0.002  0.014 -0.175   -0.004 -0.020  0.231    0.004  0.001  0.010
 H         -0.008  0.025 -0.216    0.017 -0.042  0.402   -0.000 -0.001 -0.001
 H          0.158 -0.070 -0.064   -0.216  0.096  0.089    0.001 -0.001 -0.000
 H          0.002 -0.010  0.034    0.009 -0.014  0.096    0.000  0.000 -0.001
 H         -0.251  0.115  0.117   -0.159  0.073  0.074    0.000 -0.000 -0.000
 H          0.141  0.089  0.068    0.113  0.072  0.057    0.000  0.000  0.000
 H         -0.058 -0.095  0.689   -0.046 -0.073  0.518    0.000  0.000 -0.000
 H         -0.006  0.000  0.034   -0.003  0.002  0.082    0.000  0.000 -0.000
 H          0.011 -0.129  0.037    0.008 -0.102  0.030    0.000  0.000 -0.000
 H          0.005  0.011 -0.346   -0.003 -0.015  0.475   -0.001  0.000 -0.001
 N          0.000  0.000 -0.000   -0.000 -0.000  0.000   -0.010 -0.007 -0.073
 H         -0.002 -0.001  0.001    0.003  0.002 -0.001    0.150  0.097  0.981
 C         -0.000 -0.000  0.001    0.000  0.000 -0.001   -0.002 -0.001  0.000
 H          0.000  0.000 -0.000   -0.000 -0.000  0.000    0.002  0.001  0.000
 O         -0.000 -0.000 -0.000    0.000  0.000  0.000   -0.000 -0.000  0.001
 TransDip  -0.010 -0.063 -0.008    0.014  0.035 -0.192   -0.003  0.000  0.270

 STANDARD THERMODYNAMIC QUANTITIES AT   298.18 K  AND     1.00 ATM

   This Molecule has  0 Imaginary Frequencies
   Zero point vibrational energy:      122.239 kcal/mol

   Atom    1 Element C  Has Mass   12.00000
   Atom    2 Element C  Has Mass   12.00000
   Atom    3 Element C  Has Mass   12.00000
   Atom    4 Element C  Has Mass   12.00000
   Atom    5 Element C  Has Mass   12.00000
   Atom    6 Element C  Has Mass   12.00000
   Atom    7 Element H  Has Mass    1.00783
   Atom    8 Element H  Has Mass    1.00783
   Atom    9 Element H  Has Mass    1.00783
   Atom   10 Element H  Has Mass    1.00783
   Atom   11 Element H  Has Mass    1.00783
   Atom   12 Element H  Has Mass    1.00783
   Atom   13 Element H  Has Mass    1.00783
   Atom   14 Element H  Has Mass    1.00783
   Atom   15 Element H  Has Mass    1.00783
   Atom   16 Element H  Has Mass    1.00783
   Atom   17 Element H  Has Mass    1.00783
   Atom   18 Element N  Has Mass   14.00307
   Atom   19 Element H  Has Mass    1.00783
   Atom   20 Element C  Has Mass   12.00000
   Atom   21 Element H  Has Mass    2.01410
   Atom   22 Element O  Has Mass   15.99491
   Molecular Mass:   128.106042 amu
   Principal axes and moments of inertia in amu*Bohr^2:
                             1           2           3
    Eigenvalues --      551.24369  2005.49415  2194.69639
          X               0.82381    -0.52585     0.21169
          Y               0.53825     0.84278    -0.00112
          Z              -0.17782     0.11486     0.97734
   Rotational Symmetry Number is   1
   The Molecule is an Asymmetric Top
   Translational Enthalpy:        0.889 kcal/mol
   Rotational Enthalpy:           0.889 kcal/mol
   Vibrational Enthalpy:        125.941 kcal/mol
   gas constant (RT):             0.593 kcal/mol
   Translational Entropy:        40.457  cal/mol.K
   Rotational Entropy:           29.274  cal/mol.K
   Vibrational Entropy:          22.082  cal/mol.K

   Total Enthalpy:              128.311 kcal/mol
   Total Entropy:                91.813  cal/mol.K
Archival summary:
1\1\node028\FREQ\ProcedureUnspecified\6-31+G*\11713\ymao90\SunMar704:25:572021SunMar704:25:572021\0\\#,FREQ,ProcedureUnspecified,6-31+G*,\\0,1\N\H,1,1.01773\C,1,1.34433,2,117.345\H,3,1.10196,1,112.568,2,0.403091,0\O,3,1.24553,1,126.067,2,-179.748,0\C,1,1.46526,2,118.091,3,-179.541,0\H,6,1.09751,1,104.742,2,-176.007,0\C,6,1.53866,1,111.668,2,-58.3318,0\H,8,1.09741,6,109.864,1,-54.579,0\H,8,1.09836,6,109.831,1,62.3516,0\C,8,1.5389,6,110.384,1,-177.036,0\H,11,1.09644,8,109.649,6,-177.912,0\H,11,1.10802,8,108.837,6,65.482,0\C,11,1.53761,8,111.854,6,-55.4524,0\H,14,1.09719,11,109.172,8,-67.465,0\H,14,1.09968,11,110.249,8,176.363,0\C,14,1.53777,11,111.711,8,53.387,0\H,17,1.09705,14,110.141,11,-175.556,0\H,17,1.10839,14,109.362,11,67.2397,0\C,17,1.53876,14,111.786,11,-53.3328,0\H,20,1.09782,17,110.87,14,177.274,0\H,20,1.09823,17,109.376,14,-65.3878,0\\\@

 Total job time:  5131.87s(wall), 81290.87s(cpu) 
 Sun Mar  7 04:25:57 2021

        *************************************************************
        *                                                           *
        *  Thank you very much for using Q-Chem.  Have a nice day.  *
        *                                                           *
        *************************************************************


