                  Welcome to Q-Chem
     A Quantum Leap Into The Future Of Chemistry


 Q-Chem 5.2 (devel), Q-Chem, Inc., Pleasanton, CA (2019)

 Yihan Shao,  Zhengting Gan,  E. Epifanovsky,  A. T. B. Gilbert,  M. Wormit,  
 J. Kussmann,  A. W. Lange,  A. Behn,  Jia Deng,  Xintian Feng,  D. Ghosh,  
 M. Goldey,  P. R. Horn,  L. D. Jacobson,  I. Kaliman,  T. Kus,  A. Landau,  
 Jie Liu,  E. I. Proynov,  R. M. Richard,  R. P. Steele,  E. J. Sundstrom,  
 H. L. Woodcock III,  P. M. Zimmerman,  D. Zuev,  B. Alam,  B. Albrecht,  
 E. Alguire,  S. A. Baeppler,  D. Barton,  Z. Benda,  Y. A. Bernard,  
 E. J. Berquist,  K. B. Bravaya,  H. Burton,  K. Carter-Fenk,  D. Casanova,  
 Chun-Min Chang,  Yunqing Chen,  A. Chien,  K. D. Closser,  M. P. Coons,  
 S. Coriani,  S. Dasgupta,  A. L. Dempwolff,  M. Diedenhofen,  Hainam Do,  
 R. G. Edgar,  Po-Tung Fang,  S. Faraji,  S. Fatehi,  Qingguo Feng,  
 J. Fosso-Tande,  J. Gayvert,  Qinghui Ge,  A. Ghysels,  G. Gidofalvi,  
 J. Gomes,  J. Gonthier,  A. Gunina,  D. Hait,  M. W. D. Hanson-Heine,  
 P. H. P. Harbach,  A. W. Hauser,  M. F. Herbst,  J. E. Herr,  
 E. G. Hohenstein,  Z. C. Holden,  Kerwin Hui,  B. C. Huynh,  T.-C. Jagau,  
 Hyunjun Ji,  B. Kaduk,  K. Khistyaev,  Jaehoon Kim,  P. Klunzinger,  K. Koh,  
 D. Kosenkov,  L. Koulias,  T. Kowalczyk,  C. M. Krauter,  A. Kunitsa,  
 Ka Un Lao,  A. Laurent,  K. V. Lawler,  Joonho Lee,  D. Lefrancois,  
 S. Lehtola,  D. S. Levine,  Yi-Pei Li,  You-Sheng Lin,  Fenglai Liu,  
 Kuan-Yu Liu,  E. Livshits,  M. Loipersberger,  A. Luenser,  P. Manohar,  
 E. Mansoor,  S. F. Manzer,  Shan-Ping Mao,  Yuezhi Mao,  N. Mardirossian,  
 A. V. Marenich,  T. Markovich,  L. A. Martinez-Martinez,  S. A. Maurer,  
 N. J. Mayhall,  S. C. McKenzie,  J.-M. Mewes,  P. Morgante,  A. F. Morrison,  
 J. W. Mullinax,  K. Nanda,  T. S. Nguyen-Beck,  R. Olivares-Amaya,  
 J. A. Parkhill,  S. K. Paul,  F. Pavosevic,  Zheng Pei,  T. M. Perrine,  
 F. Plasser,  P. Pokhilko,  S. Prager,  A. Prociuk,  E. Ramos,  B. Rana,  
 D. R. Rehn,  F. Rob,  M. Scheurer,  M. Schneider,  N. Sergueev,  
 S. M. Sharada,  S. Sharma,  D. W. Small,  T. Stauch,  C. J. Stein,  
 T. Stein,  Yu-Chuan Su,  S. P. Veccham,  Zhen Tao,  A. J. W. Thom,  
 A. Tkatchenko,  T. Tsuchimochi,  N. M. Tubman,  L. Vogt,  M. L. Vidal,  
 O. Vydrov,  M. A. Watson,  J. Wenzel,  M. de Wergifosse,  T. A. Wesolowski,  
 A. White,  J. Witte,  A. Yamada,  Jun Yang,  K. Yao,  S. Yeganeh,  
 S. R. Yost,  Zhi-Qiang You,  A. Zech,  Igor Ying Zhang,  Xing Zhang,  
 Yan Zhao,  Ying Zhu,  B. R. Brooks,  G. K. L. Chan,  C. J. Cramer,  
 M. S. Gordon,  W. J. Hehre,  A. Klamt,  M. W. Schmidt,  C. D. Sherrill,  
 D. G. Truhlar,  A. Aspuru-Guzik,  R. Baer,  A. T. Bell,  N. A. Besley,  
 Jeng-Da Chai,  A. E. DePrince, III,  R. A. DiStasio Jr.,  A. Dreuw,  
 B. D. Dunietz,  T. R. Furlani,  Chao-Ping Hsu,  Yousung Jung,  Jing Kong,  
 D. S. Lambrecht,  WanZhen Liang,  C. Ochsenfeld,  V. A. Rassolov,  
 L. V. Slipchenko,  J. E. Subotnik,  T. Van Voorhis,  J. M. Herbert,  
 A. I. Krylov,  P. M. W. Gill,  M. Head-Gordon

 Contributors to earlier versions of Q-Chem not listed above: 
 R. D. Adamson,  B. Austin,  J. Baker,  G. J. O. Beran,  K. Brandhorst,  
 S. T. Brown,  E. F. C. Byrd,  A. K. Chakraborty,  C.-L. Cheng,  
 Siu Hung Chien,  D. M. Chipman,  D. L. Crittenden,  H. Dachsel,  
 R. J. Doerksen,  A. D. Dutoi,  L. Fusti-Molnar,  W. A. Goddard III,  
 A. Golubeva-Zadorozhnaya,  S. R. Gwaltney,  G. Hawkins,  A. Heyden,  
 S. Hirata,  G. Kedziora,  F. J. Keil,  C. Kelley,  Jihan Kim,  R. A. King,  
 R. Z. Khaliullin,  P. P. Korambath,  W. Kurlancheek,  A. M. Lee,  M. S. Lee,  
 S. V. Levchenko,  Ching Yeh Lin,  D. Liotard,  R. C. Lochan,  I. Lotan,  
 P. E. Maslen,  N. Nair,  D. P. O'Neill,  D. Neuhauser,  E. Neuscamman,  
 C. M. Oana,  R. Olson,  B. Peters,  R. Peverati,  P. A. Pieniazek,  
 Y. M. Rhee,  J. Ritchie,  M. A. Rohrdanz,  E. Rosta,  N. J. Russ,  
 H. F. Schaefer III,  N. E. Schultz,  N. Shenvi,  A. C. Simmonett,  A. Sodt,  
 D. Stuck,  K. S. Thanthiriwatte,  V. Vanovschi,  Tao Wang,  A. Warshel,  
 C. F. Williams,  Q. Wu,  X. Xu,  W. Zhang

 Please cite Q-Chem as follows:
 Y. Shao et al., Mol. Phys. 113, 184-215 (2015)
 DOI: 10.1080/00268976.2014.952696

 Q-Chem 5.2.2 for Intel X86 EM64T Linux

 Parts of Q-Chem use Armadillo 9.800.1 (Horizon Scraper).
 http://arma.sourceforge.net/

 Q-Chem begins on Tue Jul 27 17:24:05 2021  

Host: node028
0

     Scratch files written to /home/ymao90/scratch/CCX_CO_0_MeTHF20210727172404//
Symmetry turned off for PCM/SM12/SMD calculation

Checking the input file for inconsistencies... 	...done.

--------------------------------------------------------------
User input:
--------------------------------------------------------------
$molecule
0 1
C      1.9839655798    2.8343873569   -0.6530035790
C      2.0889665948    1.3399289492   -0.2973932582
C      3.4017166944    0.7321441035   -0.8222227424
C      4.6254659785    1.5200300416   -0.3255741318
C      4.5210827926    3.0122209378   -0.6783481608
C      3.2094896156    3.6188525050   -0.1554554411
H      3.4653882129   -0.3186255299   -0.5134835234
H      2.0538505535    1.2303619181    0.7916336585
H      1.9041773336    2.9373830819   -1.7471760654
H      1.0604862058    3.2447823031   -0.2264495779
H      4.7056113531    1.4098609561    0.7662015896
H      5.5416784391    1.0893334561   -0.7496610014
H      5.3807748665    3.5587419877   -0.2692766409
H      4.5659637339    3.1311627355   -1.7719372538
H      3.2192612515    3.6121018079    0.9447339030
H      3.1260878858    4.6703627905   -0.4590864625
H      3.3863457527    0.7409636912   -1.9242196110
N      0.9315723625    0.5939302253   -0.7942938700
H      0.8024957372    0.5217251348   -1.7968919912
C      0.0000000000    0.0000000000    0.0000000000
H     -0.7899738588   -0.5065817117   -0.5873052394
O     -0.0000000000    0.0000000000    1.2238135054
$end

$rem
JOBTYPE  OPT
METHOD  B3LYP
BASIS  6-31+G(D)
SYMMETRY  FALSE
SYM_IGNORE  TRUE
MEM_TOTAL  8000
MEM_STATIC  2000
MAX_SUB_FILE_NUM  16000
BASIS_LIN_DEP_THRESH  6
THRESH  14
SCF_CONVERGENCE  9
GEN_SCFMAN  TRUE
SCF_GUESS  SAD
FD_MAT_VEC_PROD  FALSE
XC_GRID  000099000590
NL_GRID  1
MAX_SCF_CYCLES  200
GEOM_OPT_TOL_GRADIENT  100
GEOM_OPT_TOL_DISPLACEMENT  100
GEOM_OPT_TOL_ENERGY  10
SOLVENT_METHOD       PCM
$end

$PCM
THEORY                     CPCM
METHOD                     SWIG
SOLVER                     INVERSION
HPOINTS                    302
HEAVYPOINTS                302
$END

$SOLVENT
DIELECTRIC                 6.97
$END

--------------------------------------------------------------
 ----------------------------------------------------------------
             Standard Nuclear Orientation (Angstroms)
    I     Atom           X                Y                Z
 ----------------------------------------------------------------
    1      C       1.9839655798     2.8343873569    -0.6530035790
    2      C       2.0889665948     1.3399289492    -0.2973932582
    3      C       3.4017166944     0.7321441035    -0.8222227424
    4      C       4.6254659785     1.5200300416    -0.3255741318
    5      C       4.5210827926     3.0122209378    -0.6783481608
    6      C       3.2094896156     3.6188525050    -0.1554554411
    7      H       3.4653882129    -0.3186255299    -0.5134835234
    8      H       2.0538505535     1.2303619181     0.7916336585
    9      H       1.9041773336     2.9373830819    -1.7471760654
   10      H       1.0604862058     3.2447823031    -0.2264495779
   11      H       4.7056113531     1.4098609561     0.7662015896
   12      H       5.5416784391     1.0893334561    -0.7496610014
   13      H       5.3807748665     3.5587419877    -0.2692766409
   14      H       4.5659637339     3.1311627355    -1.7719372538
   15      H       3.2192612515     3.6121018079     0.9447339030
   16      H       3.1260878858     4.6703627905    -0.4590864625
   17      H       3.3863457527     0.7409636912    -1.9242196110
   18      N       0.9315723625     0.5939302253    -0.7942938700
   19      H       0.8024957372     0.5217251348    -1.7968919912
   20      C       0.0000000000     0.0000000000     0.0000000000
   21      H      -0.7899738588    -0.5065817117    -0.5873052394
   22      O       0.0000000000     0.0000000000     1.2238135054
 ----------------------------------------------------------------
 Nuclear Repulsion Energy =         466.63298041 hartrees
 There are       35 alpha and       35 beta electrons
 Requested basis set is 6-31+G(d)
 There are 71 shells and 197 basis functions

 Total QAlloc Memory Limit   8000 MB
 Mega-Array Size      1956 MB
 MEM_STATIC part      2000 MB
 Discretize the solute cavity surface with Lebedev spheres
	Using 302 Lebedev grid points for each H atom
	Using 302 Lebedev grid points for other atoms
	Atomic van der Waals radii will be scaled by 1.20
 Remove points where switching function is < 1.0e-08
 Keep 2701 surface tesserae and discard 3943 interior tesserae
 Molecular Surface Area = 182.842 Angst**2
 A cutoff of  1.0D-14 yielded   2413 shell pairs
 There are     18998 function pairs
 Smallest overlap matrix eigenvalue = 2.48E-05

 Scale SEOQF with 1.000000e-02/1.000000e-01/1.000000e-01

 Standard Electronic Orientation quadrupole field applied
 Nucleus-field energy     =     0.0000000184 hartrees
 Guess from superposition of atomic densities
 Warning:  Energy on first SCF cycle will be non-variational
 SAD guess density has 70.000000 electrons

 -----------------------------------------------------------------------
  General SCF calculation program by
  Eric Jon Sundstrom, Paul Horn, Yuezhi Mao, Dmitri Zuev, Alec White,
  David Stuck, Shaama M.S., Shane Yost, Joonho Lee, David Small,
  Daniel Levine, Susi Lehtola, Hugh Burton, Evgeny Epifanovsky,
  Bang C. Huynh
 -----------------------------------------------------------------------
 Exchange:     0.2000 Hartree-Fock + 0.0800 Slater + 0.7200 B88
 Correlation:  0.1900 VWN1RPA + 0.8100 LYP
 Using Euler-Maclaurin-Lebedev (99,590) quadrature formula
 using 16 threads for integral computing
 -------------------------------------------------------
 OpenMP Integral computing Module                
 Release: version 2.0, May 2017, Q-Chem Inc. Pleasanton 
 -------------------------------------------------------
 A restricted SCF calculation will be
 performed using DIIS
 SCF converges when DIIS error is below 1.0e-09
 ---------------------------------------
  Cycle       Energy         DIIS error
 ---------------------------------------
    1    -406.2319506888      5.08e-02  
    2    -404.4088763147      6.40e-03  
    3    -404.1801121545      1.00e-02  
    4    -404.5825798760      2.03e-03  
    5    -404.5980706884      5.33e-04  
    6    -404.5991809938      1.53e-04  
    7    -404.5992712109      5.51e-05  
    8    -404.5992839066      9.85e-06  
    9    -404.5992843088      2.47e-06  
   10    -404.5992843346      5.31e-07  
   11    -404.5992843357      1.92e-07  
   12    -404.5992843359      2.56e-08  
   13    -404.5992843359      6.44e-09  
   14    -404.5992843359      3.15e-09  
   15    -404.5992843359      5.51e-10  Convergence criterion met
 ---------------------------------------
 SCF time:   CPU 1029.86s  wall 70.00s 

************** Final PCM Free Energy Summary **************
 G_electrostatic  =      -0.01495224 hartree =      -9.38267021 kcal/mol
 G_cavitation     =       0.00000000 hartree =       0.00000000 kcal/mol
 G_dispersion     =       0.00000000 hartree =       0.00000000 kcal/mol
 G_repulsion      =       0.00000000 hartree =       0.00000000 kcal/mol
 --------------------------------------------------
 Non-electrostatic Free Energy =       0.00000000 hartree =       0.00000000 kcal/mol
 Total                         =      -0.01495224 hartree =      -9.38267021 kcal/mol
 --------------------------------------------------
 SCF Energy (H0 + V/2)                       =    -404.59928434 
 Solute Internal Energy (H0)                 =    -404.58433210 
 Total Free Energy (H0 + V/2 + non-elec)     =    -404.59928434 hartree
                                             = -253889.88288060 kcal/mol
***********************************************************

 SCF   energy in the final basis set =     -404.5992843359
 Total energy in the final basis set =     -404.5992843359
 
 --------------------------------------------------------------
 
                    Orbital Energies (a.u.)
 --------------------------------------------------------------
 
 Alpha MOs
 -- Occupied --
-19.1357 -14.3695 -10.2941 -10.2247 -10.1837 -10.1832 -10.1811 -10.1809
-10.1792  -1.0461  -0.9309  -0.8243  -0.7421  -0.7418  -0.6362  -0.6121
 -0.5920  -0.5641  -0.5257  -0.4839  -0.4612  -0.4428  -0.4384  -0.4210
 -0.4190  -0.3966  -0.3794  -0.3760  -0.3477  -0.3439  -0.3225  -0.3133
 -0.3105  -0.2712  -0.2597
 -- Virtual --
  0.0078   0.0099   0.0160   0.0242   0.0250   0.0401   0.0481   0.0488
  0.0581   0.0687   0.0693   0.0830   0.0870   0.0947   0.0995   0.1041
  0.1113   0.1166   0.1245   0.1335   0.1403   0.1514   0.1556   0.1614
  0.1702   0.1803   0.1819   0.1886   0.1989   0.2017   0.2108   0.2145
  0.2212   0.2256   0.2313   0.2448   0.2475   0.2552   0.2625   0.2694
  0.2794   0.2807   0.2883   0.2897   0.2944   0.3045   0.3104   0.3263
  0.3290   0.3311   0.3594   0.3715   0.3802   0.3862   0.4163   0.4189
  0.4385   0.4599   0.4898   0.6101   0.6388   0.6567   0.6661   0.6674
  0.6845   0.6979   0.7298   0.7324   0.7475   0.7510   0.7753   0.7816
  0.8025   0.8048   0.8217   0.8506   0.8604   0.9070   0.9530   0.9749
  0.9789   0.9921   1.0217   1.0265   1.0314   1.0552   1.0883   1.1027
  1.1177   1.1226   1.1267   1.1447   1.1613   1.1708   1.1797   1.1888
  1.2380   1.2471   1.2828   1.3267   1.3427   1.3694   1.3917   1.4181
  1.4788   1.4892   1.4916   1.5676   1.5715   1.6116   1.6999   1.7299
  1.7341   1.7543   1.7702   1.8045   1.8505   1.8687   1.9022   1.9069
  1.9117   1.9371   1.9836   2.0120   2.0179   2.0460   2.0555   2.0879
  2.0935   2.1292   2.2016   2.2216   2.2767   2.3103   2.3147   2.3494
  2.4014   2.4101   2.4189   2.4233   2.4509   2.5622   2.5870   2.6238
  2.6729   2.6840   2.7044   2.7616   2.7771   2.8338   2.8682   3.0070
  3.1852   4.0910   4.1942   4.2317   4.2945   4.3334   4.4161   4.6032
  4.6081   4.6739
 --------------------------------------------------------------
 
          Ground-State Mulliken Net Atomic Charges

     Atom                 Charge (a.u.)
  ----------------------------------------
      1 C                    -0.272303
      2 C                    -0.426840
      3 C                    -0.294186
      4 C                    -0.446252
      5 C                    -0.382963
      6 C                    -0.449255
      7 H                     0.210791
      8 H                     0.228785
      9 H                     0.209939
     10 H                     0.210107
     11 H                     0.207155
     12 H                     0.202241
     13 H                     0.199043
     14 H                     0.201521
     15 H                     0.207124
     16 H                     0.202185
     17 H                     0.209949
     18 N                    -0.398306
     19 H                     0.442217
     20 C                     0.343854
     21 H                     0.176514
     22 O                    -0.581319
  ----------------------------------------
  Sum of atomic charges =     0.000000

 -----------------------------------------------------------------
                    Cartesian Multipole Moments
 -----------------------------------------------------------------
    Charge (ESU x 10^10)
                 0.0000
    Dipole Moment (Debye)
         X       1.9589      Y       1.2809      Z      -4.9021
       Tot       5.4322
    Quadrupole Moments (Debye-Ang)
        XX     -50.9582     XY       3.9007     YY     -54.4954
        XZ      -0.9685     YZ      -0.6803     ZZ     -57.5671
    Octopole Moments (Debye-Ang^2)
       XXX    -391.6240    XXY     -80.0235    XYY    -129.4781
       YYY    -263.1325    XXZ      14.9154    XYZ      -1.9703
       YYZ      16.5715    XZZ    -131.2785    YZZ     -86.3869
       ZZZ      37.1393
    Hexadecapole Moments (Debye-Ang^3)
      XXXX   -2980.2817   XXXY    -845.9036   XXYY    -743.0971
      XYYY    -858.2814   YYYY   -1514.5227   XXXZ     202.7738
      XXYZ      42.4023   XYYZ      67.9840   YYYZ     122.1804
      XXZZ    -543.3676   XYZZ    -285.3714   YYZZ    -298.6681
      XZZZ     199.8916   YZZZ     120.4369   ZZZZ    -255.2482
 -----------------------------------------------------------------
 Calculating analytic gradient of the SCF energy
 Gradient of SCF Energy
            1           2           3           4           5           6
    1   0.0032635   0.0012247  -0.0006129  -0.0043881  -0.0033881   0.0001556
    2  -0.0025313   0.0008600   0.0038731   0.0021980  -0.0026481  -0.0042327
    3   0.0079487   0.0004119   0.0090006  -0.0034081   0.0048136  -0.0036893
            7           8           9          10          11          12
    1   0.0001455   0.0002714  -0.0002452  -0.0009524   0.0001634   0.0021692
    2  -0.0016030   0.0002206   0.0005985   0.0005234  -0.0002307  -0.0009090
    3  -0.0003167  -0.0017668  -0.0056376  -0.0003413   0.0015810  -0.0010542
           13          14          15          16          17          18
    1   0.0016472   0.0001307   0.0000274  -0.0000451   0.0000813   0.0060122
    2   0.0010448   0.0003331   0.0000667   0.0022929   0.0000812   0.0035391
    3   0.0004713  -0.0034316   0.0014539  -0.0007504  -0.0059716   0.0039356
           19          20          21          22
    1  -0.0005886  -0.0024445  -0.0027414   0.0001145
    2  -0.0002403  -0.0015426  -0.0017714   0.0000776
    3  -0.0119132   0.0309250  -0.0055950  -0.0166658
 Max gradient component =       3.093E-02
 RMS gradient           =       5.347E-03
 Computing fast CPCM-SWIG gradient
 Updating gradient with PCM contributions...
 -- total gradient after adding PCM contribution --
---------------------------------------------------
  Atom         X              Y              Z     
---------------------------------------------------
   1       0.000250      -0.000239       0.001240
   2      -0.000684      -0.000403      -0.000410
   3      -0.000240       0.000277       0.001288
   4       0.000046       0.000024      -0.000581
   5      -0.000111      -0.000060       0.000401
   6       0.000051       0.000005      -0.000520
   7      -0.000209       0.000196      -0.000323
   8      -0.001175      -0.000657      -0.000017
   9      -0.000076       0.000569      -0.000520
  10       0.000131      -0.000303      -0.000358
  11       0.000121      -0.000198      -0.000193
  12       0.000103       0.000081       0.000321
  13      -0.000051      -0.000018      -0.000310
  14       0.000263       0.000174      -0.000053
  15      -0.000160       0.000222      -0.000170
  16       0.000134       0.000019       0.000312
  17       0.000524      -0.000206      -0.000624
  18       0.005705       0.003561      -0.006449
  19       0.000601       0.000322       0.001003
  20      -0.004561      -0.002873       0.023927
  21      -0.001353      -0.000892      -0.001206
  22       0.000690       0.000400      -0.016762
---------------------------------------------------
 Number of fixed atoms: 0
 Gradient time:  CPU 134.82 s  wall 14.61 s
 Geometry Optimization Parameters
   NAtoms,    NIC,     NZ,  NCons,   NDum,   NFix, NCnnct, MaxDiis
       22     172       0       0       0       0       0       0


** GEOMETRY OPTIMIZATION IN DELOCALIZED INTERNAL COORDINATES **
   Searching for a Minimum

   Optimization Cycle:   1

                       Coordinates (Angstroms)
     ATOM                X               Y               Z
      1  C         1.9839655798    2.8343873569   -0.6530035790
      2  C         2.0889665948    1.3399289492   -0.2973932582
      3  C         3.4017166944    0.7321441035   -0.8222227424
      4  C         4.6254659785    1.5200300416   -0.3255741318
      5  C         4.5210827926    3.0122209378   -0.6783481608
      6  C         3.2094896156    3.6188525050   -0.1554554411
      7  H         3.4653882129   -0.3186255299   -0.5134835234
      8  H         2.0538505535    1.2303619181    0.7916336585
      9  H         1.9041773336    2.9373830819   -1.7471760654
     10  H         1.0604862058    3.2447823031   -0.2264495779
     11  H         4.7056113531    1.4098609561    0.7662015896
     12  H         5.5416784391    1.0893334561   -0.7496610014
     13  H         5.3807748665    3.5587419877   -0.2692766409
     14  H         4.5659637339    3.1311627355   -1.7719372538
     15  H         3.2192612515    3.6121018079    0.9447339030
     16  H         3.1260878858    4.6703627905   -0.4590864625
     17  H         3.3863457527    0.7409636912   -1.9242196110
     18  N         0.9315723625    0.5939302253   -0.7942938700
     19  H         0.8024957372    0.5217251348   -1.7968919912
     20  C         0.0000000000    0.0000000000    0.0000000000
     21  H        -0.7899738588   -0.5065817117   -0.5873052394
     22  O         0.0000000000    0.0000000000    1.2238135054
   Point Group: c1    Number of degrees of freedom:    60


   Energy is   -404.599284336


 Attempting to generate delocalized internal coordinates
 Initial Hessian constructed with Jon Baker's OPTIMIZE code

 60 Hessian modes will be used to form the next step
  Hessian Eigenvalues:
     0.005967    0.006024    0.006964    0.007193    0.012605    0.019501
     0.019786    0.020845    0.020845    0.037215    0.038526    0.039417
     0.041724    0.048166    0.048450    0.048891    0.055292    0.055631
     0.055746    0.059934    0.066958    0.081508    0.081536    0.081616
     0.082032    0.082133    0.084029    0.087513    0.120967    0.121178
     0.142989    0.159989    0.160000    0.160554    0.174868    0.210947
     0.220000    0.220003    0.272263    0.272658    0.275535    0.286789
     0.287121    0.287175    0.329119    0.334466    0.334727    0.335769
     0.336541    0.336553    0.339301    0.339441    0.339454    0.340119
     0.340274    0.342312    0.364811    0.454000    0.528079    0.937134

 Minimum search - taking simple RFO step
 Searching for Lamda that Minimizes Along All modes
 Value Taken    Lamda =  -0.00059799
 Step Taken.  Stepsize is  0.049488

                             Maximum     Tolerance    Cnvgd?
         Gradient           0.009744      0.000100      NO
         Displacement       0.022254      0.000100      NO
         Energy change     *********      0.000000      NO


 New Cartesian Coordinates Obtained by Inverse Iteration

 Displacement from previous Coordinates is:  0.124628
 ----------------------------------------------------------------
             Standard Nuclear Orientation (Angstroms)
    I     Atom           X                Y                Z
 ----------------------------------------------------------------
    1      C       1.9839604949     2.8324821152    -0.6454872100
    2      C       2.0921940823     1.3398800090    -0.2843914830
    3      C       3.4018423663     0.7313810568    -0.8153205584
    4      C       4.6269370402     1.5218418547    -0.3265817444
    5      C       4.5195255930     3.0120761387    -0.6853850554
    6      C       3.2110810474     3.6190501052    -0.1558766091
    7      H       3.4696759367    -0.3185025190    -0.5028728752
    8      H       2.0681074521     1.2362341294     0.8053803361
    9      H       1.8992035327     2.9268576060    -1.7391501573
   10      H       1.0627863929     3.2456060996    -0.2151488468
   11      H       4.7124379186     1.4171481160     0.7655837252
   12      H       5.5402505797     1.0897564301    -0.7557593069
   13      H       5.3812615162     3.5608634582    -0.2830146456
   14      H       4.5553084657     3.1254170190    -1.7797735007
   15      H       3.2282855894     3.6144943710     0.9445048994
   16      H       3.1240384233     4.6690782557    -0.4640191249
   17      H       3.3758346228     0.7387132913    -1.9161575036
   18      N       0.9343020578     0.5945957001    -0.7867042928
   19      H       0.8101656701     0.5265726733    -1.7915025482
   20      C      -0.0032098582    -0.0002509540    -0.0149770058
   21      H      -0.7834026632    -0.4978656220    -0.6167641657
   22      O      -0.0261791757    -0.0123625937     1.2180217795
 ----------------------------------------------------------------
 Nuclear Repulsion Energy =         466.44769738 hartrees
 There are       35 alpha and       35 beta electrons
 Discretize the solute cavity surface with Lebedev spheres
	Using 302 Lebedev grid points for each H atom
	Using 302 Lebedev grid points for other atoms
	Atomic van der Waals radii will be scaled by 1.20
 Remove points where switching function is < 1.0e-08
 Keep 2708 surface tesserae and discard 3936 interior tesserae
 Molecular Surface Area = 182.950 Angst**2
 Applying Cartesian multipole field
    Component          Value
    ---------          -----
     (2,0,0)        1.00000E-12
     (0,2,0)        2.00000E-11
     (0,0,2)       -3.00000E-11
 Nucleus-field energy     =     0.0000000184 hartrees
 Requested basis set is 6-31+G(d)
 There are 71 shells and 197 basis functions
 A cutoff of  1.0D-14 yielded   2411 shell pairs
 There are     18991 function pairs
 Smallest overlap matrix eigenvalue = 2.45E-05
 Guess MOs from SCF MO coefficient file

 -----------------------------------------------------------------------
  General SCF calculation program by
  Eric Jon Sundstrom, Paul Horn, Yuezhi Mao, Dmitri Zuev, Alec White,
  David Stuck, Shaama M.S., Shane Yost, Joonho Lee, David Small,
  Daniel Levine, Susi Lehtola, Hugh Burton, Evgeny Epifanovsky,
  Bang C. Huynh
 -----------------------------------------------------------------------
 Exchange:     0.2000 Hartree-Fock + 0.0800 Slater + 0.7200 B88
 Correlation:  0.1900 VWN1RPA + 0.8100 LYP
 Using Euler-Maclaurin-Lebedev (99,590) quadrature formula
 using 16 threads for integral computing
 -------------------------------------------------------
 OpenMP Integral computing Module                
 Release: version 2.0, May 2017, Q-Chem Inc. Pleasanton 
 -------------------------------------------------------
 A restricted SCF calculation will be
 performed using Roothaan-Hall, DIIS
 SCF converges when DIIS error is below 1.0e-09
 ---------------------------------------
  Cycle       Energy         DIIS error
 ---------------------------------------
    1    -404.5836960858      5.62e-04  Roothaan Step
 ---------------------------------------
  Cycle       Energy         DIIS error
 ---------------------------------------
    1    -404.5911383256      1.11e-03  
    2    -404.5770223096      2.43e-03  
    3    -404.5994786594      1.88e-04  
    4    -404.5996107900      1.05e-04  
    5    -404.5996531057      3.04e-05  
    6    -404.5996568286      8.05e-06  
    7    -404.5996570784      2.69e-06  
    8    -404.5996571130      5.23e-07  
    9    -404.5996571142      2.17e-07  
   10    -404.5996571144      3.81e-08  
   11    -404.5996571144      9.68e-09  
   12    -404.5996571144      2.80e-09  
   13    -404.5996571144      3.54e-10  Convergence criterion met
 ---------------------------------------
 SCF time:   CPU 934.42s  wall 62.00s 

************** Final PCM Free Energy Summary **************
 G_electrostatic  =      -0.01572603 hartree =      -9.86823446 kcal/mol
 G_cavitation     =       0.00000000 hartree =       0.00000000 kcal/mol
 G_dispersion     =       0.00000000 hartree =       0.00000000 kcal/mol
 G_repulsion      =       0.00000000 hartree =       0.00000000 kcal/mol
 --------------------------------------------------
 Non-electrostatic Free Energy =       0.00000000 hartree =       0.00000000 kcal/mol
 Total                         =      -0.01572603 hartree =      -9.86823446 kcal/mol
 --------------------------------------------------
 SCF Energy (H0 + V/2)                       =    -404.59965711 
 Solute Internal Energy (H0)                 =    -404.58393108 
 Total Free Energy (H0 + V/2 + non-elec)     =    -404.59965711 hartree
                                             = -253890.11680265 kcal/mol
***********************************************************

 SCF   energy in the final basis set =     -404.5996571144
 Total energy in the final basis set =     -404.5996571144
 
 --------------------------------------------------------------
 
                    Orbital Energies (a.u.)
 --------------------------------------------------------------
 
 Alpha MOs
 -- Occupied --
-19.1342 -14.3712 -10.2937 -10.2258 -10.1841 -10.1835 -10.1813 -10.1811
-10.1793  -1.0409  -0.9325  -0.8254  -0.7433  -0.7423  -0.6372  -0.6124
 -0.5925  -0.5643  -0.5266  -0.4841  -0.4615  -0.4430  -0.4385  -0.4199
 -0.4185  -0.3967  -0.3797  -0.3749  -0.3483  -0.3446  -0.3231  -0.3132
 -0.3105  -0.2701  -0.2604
 -- Virtual --
  0.0075   0.0095   0.0157   0.0240   0.0250   0.0402   0.0479   0.0487
  0.0583   0.0687   0.0693   0.0828   0.0867   0.0943   0.0995   0.1040
  0.1112   0.1164   0.1246   0.1335   0.1400   0.1511   0.1556   0.1610
  0.1700   0.1803   0.1820   0.1883   0.1987   0.2016   0.2107   0.2136
  0.2208   0.2256   0.2310   0.2444   0.2472   0.2554   0.2632   0.2691
  0.2790   0.2811   0.2879   0.2893   0.2943   0.3042   0.3099   0.3257
  0.3289   0.3307   0.3592   0.3714   0.3832   0.3860   0.4162   0.4192
  0.4385   0.4597   0.4866   0.6093   0.6385   0.6556   0.6659   0.6668
  0.6835   0.6973   0.7298   0.7323   0.7472   0.7509   0.7754   0.7799
  0.8012   0.8046   0.8209   0.8504   0.8613   0.9100   0.9537   0.9741
  0.9785   0.9921   1.0217   1.0269   1.0309   1.0561   1.0882   1.1021
  1.1173   1.1224   1.1265   1.1439   1.1608   1.1708   1.1803   1.1900
  1.2392   1.2468   1.2837   1.3272   1.3433   1.3729   1.3897   1.4181
  1.4792   1.4887   1.4927   1.5673   1.5722   1.6130   1.6931   1.7313
  1.7334   1.7549   1.7699   1.8056   1.8524   1.8697   1.9020   1.9068
  1.9109   1.9392   1.9828   2.0100   2.0181   2.0444   2.0555   2.0857
  2.0926   2.1277   2.2005   2.2178   2.2766   2.3122   2.3144   2.3480
  2.3984   2.4094   2.4188   2.4235   2.4494   2.5619   2.5847   2.6217
  2.6725   2.6839   2.7034   2.7618   2.7782   2.8330   2.8655   2.9988
  3.1855   4.0921   4.1940   4.2301   4.2945   4.3330   4.4159   4.6029
  4.6092   4.6738
 --------------------------------------------------------------
 
          Ground-State Mulliken Net Atomic Charges

     Atom                 Charge (a.u.)
  ----------------------------------------
      1 C                    -0.267712
      2 C                    -0.439791
      3 C                    -0.288048
      4 C                    -0.447746
      5 C                    -0.382494
      6 C                    -0.450998
      7 H                     0.211321
      8 H                     0.230044
      9 H                     0.210534
     10 H                     0.210635
     11 H                     0.207477
     12 H                     0.202473
     13 H                     0.199075
     14 H                     0.201613
     15 H                     0.207428
     16 H                     0.202408
     17 H                     0.210446
     18 N                    -0.388487
     19 H                     0.443391
     20 C                     0.344628
     21 H                     0.177275
     22 O                    -0.593473
  ----------------------------------------
  Sum of atomic charges =     0.000000

 -----------------------------------------------------------------
                    Cartesian Multipole Moments
 -----------------------------------------------------------------
    Charge (ESU x 10^10)
                 0.0000
    Dipole Moment (Debye)
         X       2.1189      Y       1.3772      Z      -5.0163
       Tot       5.6169
    Quadrupole Moments (Debye-Ang)
        XX     -50.7649     XY       4.0047     YY     -54.4051
        XZ      -0.8795     YZ      -0.6484     ZZ     -57.5116
    Octopole Moments (Debye-Ang^2)
       XXX    -390.4665    XXY     -79.6260    XYY    -129.0809
       YYY    -262.5740    XXZ      14.8420    XYZ      -1.9293
       YYZ      16.4392    XZZ    -130.8591    YZZ     -86.1424
       ZZZ      36.8640
    Hexadecapole Moments (Debye-Ang^3)
      XXXX   -2978.5928   XXXY    -845.0814   XXYY    -742.4375
      XYYY    -857.8730   YYYY   -1513.1522   XXXZ     203.1601
      XXYZ      42.6784   XYYZ      68.1286   YYYZ     121.9652
      XXZZ    -542.8311   XYZZ    -285.1833   YYZZ    -298.1668
      XZZZ     199.8603   YZZZ     120.2178   ZZZZ    -253.7984
 -----------------------------------------------------------------
 Calculating analytic gradient of the SCF energy
 Gradient of SCF Energy
            1           2           3           4           5           6
    1   0.0035085   0.0014792  -0.0004763  -0.0047164  -0.0035715   0.0001333
    2  -0.0025808   0.0009464   0.0041417   0.0023287  -0.0028009  -0.0045624
    3   0.0071932   0.0008103   0.0082894  -0.0030410   0.0047171  -0.0034270
            7           8           9          10          11          12
    1   0.0003784   0.0017797  -0.0002633  -0.0011798   0.0001172   0.0021517
    2  -0.0019384   0.0010994  -0.0000014   0.0008925  -0.0000189  -0.0010101
    3  -0.0000001  -0.0014762  -0.0054056   0.0000206   0.0019768  -0.0014349
           13          14          15          16          17          18
    1   0.0017879  -0.0001425   0.0002365  -0.0001718  -0.0005533   0.0025033
    2   0.0011294   0.0001681  -0.0001165   0.0023676   0.0002486   0.0014633
    3   0.0007918  -0.0035508   0.0018171  -0.0011086  -0.0056392   0.0070483
           19          20          21          22
    1  -0.0014173  -0.0000352  -0.0011803  -0.0003680
    2  -0.0006678  -0.0003322  -0.0006622  -0.0000940
    3  -0.0130288   0.0153585  -0.0053330  -0.0045779
 Max gradient component =       1.536E-02
 RMS gradient           =       3.702E-03
 Computing fast CPCM-SWIG gradient
 Updating gradient with PCM contributions...
 -- total gradient after adding PCM contribution --
---------------------------------------------------
  Atom         X              Y              Z     
---------------------------------------------------
   1       0.000314      -0.000197       0.000213
   2      -0.000529      -0.000405       0.000216
   3      -0.000099       0.000353       0.000303
   4      -0.000106       0.000062      -0.000065
   5      -0.000211      -0.000136       0.000121
   6       0.000022      -0.000158      -0.000086
   7      -0.000002      -0.000043      -0.000045
   8       0.000265       0.000189       0.000164
   9      -0.000059       0.000033      -0.000084
  10      -0.000039       0.000017      -0.000029
  11       0.000073       0.000004       0.000070
  12       0.000028       0.000024       0.000008
  13       0.000024       0.000026      -0.000024
  14       0.000038       0.000030      -0.000049
  15       0.000028       0.000057       0.000071
  16       0.000031       0.000021       0.000008
  17      -0.000012      -0.000048      -0.000093
  18       0.002211       0.001528      -0.003470
  19      -0.000260      -0.000154       0.000190
  20      -0.002002      -0.001574       0.008072
  21       0.000105       0.000147      -0.000797
  22       0.000180       0.000223      -0.004691
---------------------------------------------------
 Number of fixed atoms: 0
 Gradient time:  CPU 133.76 s  wall 12.11 s
 Geometry Optimization Parameters
   NAtoms,    NIC,     NZ,  NCons,   NDum,   NFix, NCnnct, MaxDiis
       22     172       0       0       0       0       0       0

 Cartesian Hessian Update
 Hessian updated using BFGS update


** GEOMETRY OPTIMIZATION IN DELOCALIZED INTERNAL COORDINATES **
   Searching for a Minimum

   Optimization Cycle:   2

                       Coordinates (Angstroms)
     ATOM                X               Y               Z
      1  C         1.9839604949    2.8324821152   -0.6454872100
      2  C         2.0921940823    1.3398800090   -0.2843914830
      3  C         3.4018423663    0.7313810568   -0.8153205584
      4  C         4.6269370402    1.5218418547   -0.3265817444
      5  C         4.5195255930    3.0120761387   -0.6853850554
      6  C         3.2110810474    3.6190501052   -0.1558766091
      7  H         3.4696759367   -0.3185025190   -0.5028728752
      8  H         2.0681074521    1.2362341294    0.8053803361
      9  H         1.8992035327    2.9268576060   -1.7391501573
     10  H         1.0627863929    3.2456060996   -0.2151488468
     11  H         4.7124379186    1.4171481160    0.7655837252
     12  H         5.5402505797    1.0897564301   -0.7557593069
     13  H         5.3812615162    3.5608634582   -0.2830146456
     14  H         4.5553084657    3.1254170190   -1.7797735007
     15  H         3.2282855894    3.6144943710    0.9445048994
     16  H         3.1240384233    4.6690782557   -0.4640191249
     17  H         3.3758346228    0.7387132913   -1.9161575036
     18  N         0.9343020578    0.5945957001   -0.7867042928
     19  H         0.8101656701    0.5265726733   -1.7915025482
     20  C        -0.0032098582   -0.0002509540   -0.0149770058
     21  H        -0.7834026632   -0.4978656220   -0.6167641657
     22  O        -0.0261791757   -0.0123625937    1.2180217795
   Point Group: c1    Number of degrees of freedom:    60


   Energy is   -404.599657114

 Hessian updated using BFGS update

 60 Hessian modes will be used to form the next step
  Hessian Eigenvalues:
     0.005967    0.006021    0.006970    0.007192    0.012603    0.019500
     0.019745    0.020845    0.020880    0.037216    0.038598    0.039416
     0.042037    0.048450    0.048828    0.048937    0.055294    0.055729
     0.056351    0.060785    0.066958    0.081528    0.081576    0.081667
     0.082042    0.082133    0.084061    0.087513    0.120967    0.121215
     0.142971    0.154924    0.160117    0.164804    0.174879    0.206992
     0.211265    0.223545    0.272347    0.272723    0.275535    0.286908
     0.287118    0.287650    0.328453    0.334358    0.334666    0.335762
     0.336547    0.336752    0.339330    0.339446    0.339467    0.340165
     0.340487    0.342291    0.365597    0.447086    0.457607    0.820615

 Minimum search - taking simple RFO step
 Searching for Lamda that Minimizes Along All modes
 Value Taken    Lamda =  -0.00009759
 Step Taken.  Stepsize is  0.024150

                             Maximum     Tolerance    Cnvgd?
         Gradient           0.003684      0.000100      NO
         Displacement       0.012691      0.000100      NO
         Energy change     -0.000373      0.000000      NO


 New Cartesian Coordinates Obtained by Inverse Iteration

 Displacement from previous Coordinates is:  0.033286
 ----------------------------------------------------------------
             Standard Nuclear Orientation (Angstroms)
    I     Atom           X                Y                Z
 ----------------------------------------------------------------
    1      C       1.9835613463     2.8330740220    -0.6435810901
    2      C       2.0930448710     1.3405362921    -0.2809125647
    3      C       3.4019143958     0.7306415254    -0.8136688606
    4      C       4.6275097861     1.5219425587    -0.3273785208
    5      C       4.5196990297     3.0122330812    -0.6875270207
    6      C       3.2116573143     3.6199983728    -0.1566514056
    7      H       3.4702449867    -0.3187206789    -0.4996600830
    8      H       2.0675120404     1.2356469517     0.8084082610
    9      H       1.8976655667     2.9256712685    -1.7370403689
   10      H       1.0631701340     3.2465889061    -0.2119773312
   11      H       4.7134404827     1.4184170693     0.7647279022
   12      H       5.5401637693     1.0890195640    -0.7570799309
   13      H       5.3819381407     3.5611790407    -0.2865270472
   14      H       4.5536122408     3.1242793776    -1.7819843579
   15      H       3.2302584707     3.6156476120     0.9435827248
   16      H       3.1237991416     4.6697231272    -0.4655187935
   17      H       3.3740160389     0.7373390979    -1.9141898959
   18      N       0.9345933452     0.5953425017    -0.7827022048
   19      H       0.8153038409     0.5298548737    -1.7885891139
   20      C      -0.0048748875     0.0016780679    -0.0211709799
   21      H      -0.7826103000    -0.4990635766    -0.6219151601
   22      O      -0.0312126693    -0.0179623145     1.2159599480
 ----------------------------------------------------------------
 Nuclear Repulsion Energy =         466.37665580 hartrees
 There are       35 alpha and       35 beta electrons
 Discretize the solute cavity surface with Lebedev spheres
	Using 302 Lebedev grid points for each H atom
	Using 302 Lebedev grid points for other atoms
	Atomic van der Waals radii will be scaled by 1.20
 Remove points where switching function is < 1.0e-08
 Keep 2710 surface tesserae and discard 3934 interior tesserae
 Molecular Surface Area = 182.982 Angst**2
 Applying Cartesian multipole field
    Component          Value
    ---------          -----
     (2,0,0)        1.00000E-12
     (0,2,0)        2.00000E-11
     (0,0,2)       -3.00000E-11
 Nucleus-field energy     =     0.0000000185 hartrees
 Requested basis set is 6-31+G(d)
 There are 71 shells and 197 basis functions
 A cutoff of  1.0D-14 yielded   2409 shell pairs
 There are     18981 function pairs
 Smallest overlap matrix eigenvalue = 2.45E-05
 Guess MOs from SCF MO coefficient file

 -----------------------------------------------------------------------
  General SCF calculation program by
  Eric Jon Sundstrom, Paul Horn, Yuezhi Mao, Dmitri Zuev, Alec White,
  David Stuck, Shaama M.S., Shane Yost, Joonho Lee, David Small,
  Daniel Levine, Susi Lehtola, Hugh Burton, Evgeny Epifanovsky,
  Bang C. Huynh
 -----------------------------------------------------------------------
 Exchange:     0.2000 Hartree-Fock + 0.0800 Slater + 0.7200 B88
 Correlation:  0.1900 VWN1RPA + 0.8100 LYP
 Using Euler-Maclaurin-Lebedev (99,590) quadrature formula
 using 16 threads for integral computing
 -------------------------------------------------------
 OpenMP Integral computing Module                
 Release: version 2.0, May 2017, Q-Chem Inc. Pleasanton 
 -------------------------------------------------------
 A restricted SCF calculation will be
 performed using Roothaan-Hall, DIIS
 SCF converges when DIIS error is below 1.0e-09
 ---------------------------------------
  Cycle       Energy         DIIS error
 ---------------------------------------
    1    -404.5837380481      5.14e-04  Roothaan Step
 ---------------------------------------
  Cycle       Energy         DIIS error
 ---------------------------------------
    1    -404.5910868674      1.11e-03  
    2    -404.5769864934      2.43e-03  
    3    -404.5995233891      1.88e-04  
    4    -404.5996598785      1.01e-04  
    5    -404.5996984985      3.10e-05  
    6    -404.5997023813      8.04e-06  
    7    -404.5997026282      2.70e-06  
    8    -404.5997026631      5.20e-07  
    9    -404.5997026643      2.18e-07  
   10    -404.5997026645      3.97e-08  
   11    -404.5997026645      9.70e-09  
   12    -404.5997026645      2.86e-09  
   13    -404.5997026645      3.60e-10  Convergence criterion met
 ---------------------------------------
 SCF time:   CPU 949.59s  wall 64.00s 

************** Final PCM Free Energy Summary **************
 G_electrostatic  =      -0.01605496 hartree =     -10.07464035 kcal/mol
 G_cavitation     =       0.00000000 hartree =       0.00000000 kcal/mol
 G_dispersion     =       0.00000000 hartree =       0.00000000 kcal/mol
 G_repulsion      =       0.00000000 hartree =       0.00000000 kcal/mol
 --------------------------------------------------
 Non-electrostatic Free Energy =       0.00000000 hartree =       0.00000000 kcal/mol
 Total                         =      -0.01605496 hartree =     -10.07464035 kcal/mol
 --------------------------------------------------
 SCF Energy (H0 + V/2)                       =    -404.59970266 
 Solute Internal Energy (H0)                 =    -404.58364770 
 Total Free Energy (H0 + V/2 + non-elec)     =    -404.59970266 hartree
                                             = -253890.14538576 kcal/mol
***********************************************************

 SCF   energy in the final basis set =     -404.5997026645
 Total energy in the final basis set =     -404.5997026645
 
 --------------------------------------------------------------
 
                    Orbital Energies (a.u.)
 --------------------------------------------------------------
 
 Alpha MOs
 -- Occupied --
-19.1333 -14.3719 -10.2934 -10.2262 -10.1844 -10.1838 -10.1815 -10.1812
-10.1795  -1.0387  -0.9333  -0.8256  -0.7438  -0.7425  -0.6378  -0.6126
 -0.5928  -0.5645  -0.5271  -0.4843  -0.4615  -0.4432  -0.4385  -0.4194
 -0.4180  -0.3967  -0.3799  -0.3744  -0.3487  -0.3448  -0.3232  -0.3134
 -0.3106  -0.2693  -0.2607
 -- Virtual --
  0.0074   0.0095   0.0156   0.0239   0.0250   0.0403   0.0479   0.0487
  0.0583   0.0687   0.0693   0.0828   0.0867   0.0942   0.0995   0.1040
  0.1112   0.1164   0.1247   0.1335   0.1400   0.1509   0.1556   0.1609
  0.1698   0.1799   0.1821   0.1883   0.1987   0.2017   0.2104   0.2134
  0.2206   0.2254   0.2310   0.2441   0.2470   0.2552   0.2634   0.2691
  0.2788   0.2810   0.2877   0.2891   0.2943   0.3043   0.3096   0.3254
  0.3289   0.3306   0.3591   0.3713   0.3844   0.3861   0.4160   0.4199
  0.4387   0.4595   0.4852   0.6088   0.6386   0.6552   0.6658   0.6668
  0.6833   0.6970   0.7296   0.7323   0.7473   0.7507   0.7752   0.7791
  0.8007   0.8043   0.8204   0.8503   0.8618   0.9107   0.9532   0.9741
  0.9784   0.9921   1.0217   1.0270   1.0306   1.0564   1.0886   1.1019
  1.1172   1.1223   1.1263   1.1434   1.1607   1.1706   1.1801   1.1898
  1.2395   1.2471   1.2838   1.3278   1.3435   1.3729   1.3892   1.4173
  1.4788   1.4887   1.4933   1.5667   1.5726   1.6146   1.6927   1.7312
  1.7328   1.7555   1.7696   1.8059   1.8527   1.8703   1.9018   1.9062
  1.9106   1.9392   1.9821   2.0099   2.0181   2.0440   2.0558   2.0849
  2.0921   2.1279   2.1997   2.2163   2.2774   2.3129   2.3150   2.3470
  2.3966   2.4085   2.4181   2.4233   2.4487   2.5608   2.5842   2.6206
  2.6718   2.6835   2.7039   2.7613   2.7799   2.8326   2.8631   2.9954
  3.1868   4.0927   4.1936   4.2294   4.2945   4.3328   4.4151   4.6026
  4.6089   4.6733
 --------------------------------------------------------------
 
          Ground-State Mulliken Net Atomic Charges

     Atom                 Charge (a.u.)
  ----------------------------------------
      1 C                    -0.265934
      2 C                    -0.443104
      3 C                    -0.286823
      4 C                    -0.448237
      5 C                    -0.382402
      6 C                    -0.451721
      7 H                     0.211660
      8 H                     0.230324
      9 H                     0.210793
     10 H                     0.210928
     11 H                     0.207617
     12 H                     0.202612
     13 H                     0.199188
     14 H                     0.201667
     15 H                     0.207556
     16 H                     0.202537
     17 H                     0.210708
     18 N                    -0.384239
     19 H                     0.443601
     20 C                     0.344106
     21 H                     0.178327
     22 O                    -0.599165
  ----------------------------------------
  Sum of atomic charges =     0.000000

 -----------------------------------------------------------------
                    Cartesian Multipole Moments
 -----------------------------------------------------------------
    Charge (ESU x 10^10)
                -0.0000
    Dipole Moment (Debye)
         X       2.1743      Y       1.4195      Z      -5.0718
       Tot       5.6979
    Quadrupole Moments (Debye-Ang)
        XX     -50.6531     XY       4.0545     YY     -54.3424
        XZ      -0.8922     YZ      -0.6429     ZZ     -57.5185
    Octopole Moments (Debye-Ang^2)
       XXX    -389.8993    XXY     -79.4689    XYY    -128.8980
       YYY    -262.2933    XXZ      14.7159    XYZ      -1.9589
       YYZ      16.3543    XZZ    -130.7227    YZZ     -86.0646
       ZZZ      36.7792
    Hexadecapole Moments (Debye-Ang^3)
      XXXX   -2976.8567   XXXY    -844.5772   XXYY    -742.0589
      XYYY    -857.4579   YYYY   -1512.6522   XXXZ     202.9561
      XXYZ      42.6648   XYYZ      68.0853   YYYZ     121.9421
      XXZZ    -542.6171   XYZZ    -285.1362   YYZZ    -298.0732
      XZZZ     199.8298   YZZZ     120.2713   ZZZZ    -253.3799
 -----------------------------------------------------------------
 Calculating analytic gradient of the SCF energy
 Gradient of SCF Energy
            1           2           3           4           5           6
    1   0.0033024   0.0018709  -0.0002455  -0.0046599  -0.0033872   0.0000726
    2  -0.0023575   0.0012087   0.0039026   0.0022481  -0.0026887  -0.0044381
    3   0.0070443   0.0004690   0.0080501  -0.0030500   0.0046817  -0.0034285
            7           8           9          10          11          12
    1   0.0004089   0.0014924  -0.0001997  -0.0012195   0.0000235   0.0021612
    2  -0.0019848   0.0009106  -0.0000490   0.0009384  -0.0000175  -0.0010832
    3   0.0000626  -0.0016987  -0.0053567   0.0000788   0.0019400  -0.0014815
           13          14          15          16          17          18
    1   0.0018134  -0.0002065   0.0002083  -0.0002378  -0.0005535   0.0005920
    2   0.0011367   0.0001242  -0.0001987   0.0024046   0.0003062  -0.0000724
    3   0.0008421  -0.0035447   0.0017808  -0.0011444  -0.0055843   0.0108277
           19          20          21          22
    1  -0.0011957   0.0012474  -0.0010174  -0.0002703
    2  -0.0006160   0.0019640  -0.0010540  -0.0005842
    3  -0.0132796   0.0074015  -0.0046772   0.0000672
 Max gradient component =       1.328E-02
 RMS gradient           =       3.377E-03
 Computing fast CPCM-SWIG gradient
 Updating gradient with PCM contributions...
 -- total gradient after adding PCM contribution --
---------------------------------------------------
  Atom         X              Y              Z     
---------------------------------------------------
   1       0.000038       0.000078      -0.000047
   2      -0.000169      -0.000176      -0.000084
   3       0.000131       0.000041      -0.000041
   4       0.000016      -0.000058      -0.000031
   5       0.000014       0.000008       0.000010
   6      -0.000045       0.000035      -0.000027
   7       0.000021      -0.000049       0.000010
   8      -0.000038      -0.000013      -0.000051
   9       0.000013      -0.000008       0.000048
  10      -0.000042       0.000042       0.000016
  11      -0.000019       0.000006       0.000004
  12       0.000007      -0.000027      -0.000015
  13       0.000023       0.000016       0.000015
  14      -0.000015      -0.000010       0.000008
  15      -0.000002      -0.000021       0.000005
  16      -0.000025       0.000020      -0.000009
  17       0.000001       0.000008       0.000049
  18       0.000353       0.000021       0.000259
  19      -0.000112      -0.000139       0.000037
  20      -0.000675       0.000757       0.000055
  21       0.000247      -0.000248      -0.000096
  22       0.000277      -0.000282      -0.000113
---------------------------------------------------
 Number of fixed atoms: 0
 Gradient time:  CPU 131.78 s  wall 11.94 s
 Geometry Optimization Parameters
   NAtoms,    NIC,     NZ,  NCons,   NDum,   NFix, NCnnct, MaxDiis
       22     172       0       0       0       0       0       0

 Cartesian Hessian Update
 Hessian updated using BFGS update


** GEOMETRY OPTIMIZATION IN DELOCALIZED INTERNAL COORDINATES **
   Searching for a Minimum

   Optimization Cycle:   3

                       Coordinates (Angstroms)
     ATOM                X               Y               Z
      1  C         1.9835613463    2.8330740220   -0.6435810901
      2  C         2.0930448710    1.3405362921   -0.2809125647
      3  C         3.4019143958    0.7306415254   -0.8136688606
      4  C         4.6275097861    1.5219425587   -0.3273785208
      5  C         4.5196990297    3.0122330812   -0.6875270207
      6  C         3.2116573143    3.6199983728   -0.1566514056
      7  H         3.4702449867   -0.3187206789   -0.4996600830
      8  H         2.0675120404    1.2356469517    0.8084082610
      9  H         1.8976655667    2.9256712685   -1.7370403689
     10  H         1.0631701340    3.2465889061   -0.2119773312
     11  H         4.7134404827    1.4184170693    0.7647279022
     12  H         5.5401637693    1.0890195640   -0.7570799309
     13  H         5.3819381407    3.5611790407   -0.2865270472
     14  H         4.5536122408    3.1242793776   -1.7819843579
     15  H         3.2302584707    3.6156476120    0.9435827248
     16  H         3.1237991416    4.6697231272   -0.4655187935
     17  H         3.3740160389    0.7373390979   -1.9141898959
     18  N         0.9345933452    0.5953425017   -0.7827022048
     19  H         0.8153038409    0.5298548737   -1.7885891139
     20  C        -0.0048748875    0.0016780679   -0.0211709799
     21  H        -0.7826103000   -0.4990635766   -0.6219151601
     22  O        -0.0312126693   -0.0179623145    1.2159599480
   Point Group: c1    Number of degrees of freedom:    60


   Energy is   -404.599702665

 Hessian updated using BFGS update

 60 Hessian modes will be used to form the next step
  Hessian Eigenvalues:
     0.005965    0.006015    0.006968    0.007185    0.012581    0.019495
     0.019637    0.020837    0.023612    0.037210    0.038534    0.039417
     0.041990    0.048449    0.048880    0.049180    0.055293    0.055727
     0.056683    0.060791    0.066953    0.081527    0.081574    0.081665
     0.082090    0.082144    0.084009    0.087514    0.120967    0.121213
     0.143003    0.146592    0.160325    0.162766    0.174882    0.210054
     0.214793    0.223615    0.272391    0.272896    0.275535    0.286947
     0.287089    0.289302    0.328340    0.334514    0.334792    0.335765
     0.336547    0.336725    0.339321    0.339442    0.339457    0.340156
     0.340436    0.342441    0.364910    0.443645    0.457246    0.804872

 Minimum search - taking simple RFO step
 Searching for Lamda that Minimizes Along All modes
 Value Taken    Lamda =  -0.00002155
 Step Taken.  Stepsize is  0.029827

                             Maximum     Tolerance    Cnvgd?
         Gradient           0.000559      0.000100      NO
         Displacement       0.022672      0.000100      NO
         Energy change     -0.000046      0.000000      NO


 New Cartesian Coordinates Obtained by Inverse Iteration

 Displacement from previous Coordinates is:  0.038154
 ----------------------------------------------------------------
             Standard Nuclear Orientation (Angstroms)
    I     Atom           X                Y                Z
 ----------------------------------------------------------------
    1      C       1.9831178536     2.8308822180    -0.6423712004
    2      C       2.0946878939     1.3384873054    -0.2800771427
    3      C       3.4037059484     0.7300494573    -0.8138851739
    4      C       4.6287000898     1.5227813973    -0.3281639480
    5      C       4.5190648099     3.0129752372    -0.6881321418
    6      C       3.2107375611     3.6190919935    -0.1560809059
    7      H       3.4732721591    -0.3191591628    -0.4999312683
    8      H       2.0692509413     1.2327565380     0.8091714511
    9      H       1.8963251182     2.9236090407    -1.7357737671
   10      H       1.0626172090     3.2429864039    -0.2098884826
   11      H       4.7153301306     1.4191954619     0.7638454102
   12      H       5.5416191567     1.0910234257    -0.7583793230
   13      H       5.3809150857     3.5627363391    -0.2875624837
   14      H       4.5521095236     3.1252700998    -1.7825777832
   15      H       3.2301073017     3.6144659104     0.9441013675
   16      H       3.1215481676     4.6687659819    -0.4645949262
   17      H       3.3750794157     0.7369165318    -1.9144102190
   18      N       0.9369629980     0.5920144570    -0.7824174448
   19      H       0.8192248200     0.5282710931    -1.7886738381
   20      C      -0.0028537312    -0.0012571622    -0.0226304512
   21      H      -0.7884929912    -0.4905491336    -0.6222606394
   22      O      -0.0386223763    -0.0082466927     1.2152970167
 ----------------------------------------------------------------
 Nuclear Repulsion Energy =         466.38071761 hartrees
 There are       35 alpha and       35 beta electrons
 Discretize the solute cavity surface with Lebedev spheres
	Using 302 Lebedev grid points for each H atom
	Using 302 Lebedev grid points for other atoms
	Atomic van der Waals radii will be scaled by 1.20
 Remove points where switching function is < 1.0e-08
 Keep 2710 surface tesserae and discard 3934 interior tesserae
 Molecular Surface Area = 182.972 Angst**2
 Applying Cartesian multipole field
    Component          Value
    ---------          -----
     (2,0,0)        1.00000E-12
     (0,2,0)        2.00000E-11
     (0,0,2)       -3.00000E-11
 Nucleus-field energy     =     0.0000000185 hartrees
 Requested basis set is 6-31+G(d)
 There are 71 shells and 197 basis functions
 A cutoff of  1.0D-14 yielded   2409 shell pairs
 There are     18981 function pairs
 Smallest overlap matrix eigenvalue = 2.45E-05
 Guess MOs from SCF MO coefficient file

 -----------------------------------------------------------------------
  General SCF calculation program by
  Eric Jon Sundstrom, Paul Horn, Yuezhi Mao, Dmitri Zuev, Alec White,
  David Stuck, Shaama M.S., Shane Yost, Joonho Lee, David Small,
  Daniel Levine, Susi Lehtola, Hugh Burton, Evgeny Epifanovsky,
  Bang C. Huynh
 -----------------------------------------------------------------------
 Exchange:     0.2000 Hartree-Fock + 0.0800 Slater + 0.7200 B88
 Correlation:  0.1900 VWN1RPA + 0.8100 LYP
 Using Euler-Maclaurin-Lebedev (99,590) quadrature formula
 using 16 threads for integral computing
 -------------------------------------------------------
 OpenMP Integral computing Module                
 Release: version 2.0, May 2017, Q-Chem Inc. Pleasanton 
 -------------------------------------------------------
 A restricted SCF calculation will be
 performed using Roothaan-Hall, DIIS
 SCF converges when DIIS error is below 1.0e-09
 ---------------------------------------
  Cycle       Energy         DIIS error
 ---------------------------------------
    1    -404.5834871657      5.24e-04  Roothaan Step
 ---------------------------------------
  Cycle       Energy         DIIS error
 ---------------------------------------
    1    -404.5912050664      1.09e-03  
    2    -404.5778167067      2.38e-03  
    3    -404.5995102216      1.85e-04  
    4    -404.5996443333      9.94e-05  
    5    -404.5996819172      3.12e-05  
    6    -404.5996858388      8.14e-06  
    7    -404.5996860905      2.73e-06  
    8    -404.5996861261      5.27e-07  
    9    -404.5996861273      2.19e-07  
   10    -404.5996861276      4.02e-08  
   11    -404.5996861276      9.71e-09  
   12    -404.5996861276      2.88e-09  
   13    -404.5996861276      3.63e-10  Convergence criterion met
 ---------------------------------------
 SCF time:   CPU 950.92s  wall 63.00s 

************** Final PCM Free Energy Summary **************
 G_electrostatic  =      -0.01611833 hartree =     -10.11440286 kcal/mol
 G_cavitation     =       0.00000000 hartree =       0.00000000 kcal/mol
 G_dispersion     =       0.00000000 hartree =       0.00000000 kcal/mol
 G_repulsion      =       0.00000000 hartree =       0.00000000 kcal/mol
 --------------------------------------------------
 Non-electrostatic Free Energy =       0.00000000 hartree =       0.00000000 kcal/mol
 Total                         =      -0.01611833 hartree =     -10.11440286 kcal/mol
 --------------------------------------------------
 SCF Energy (H0 + V/2)                       =    -404.59968613 
 Solute Internal Energy (H0)                 =    -404.58356780 
 Total Free Energy (H0 + V/2 + non-elec)     =    -404.59968613 hartree
                                             = -253890.13500867 kcal/mol
***********************************************************

 SCF   energy in the final basis set =     -404.5996861276
 Total energy in the final basis set =     -404.5996861276
 
 --------------------------------------------------------------
 
                    Orbital Energies (a.u.)
 --------------------------------------------------------------
 
 Alpha MOs
 -- Occupied --
-19.1331 -14.3721 -10.2934 -10.2263 -10.1844 -10.1839 -10.1815 -10.1813
-10.1795  -1.0382  -0.9334  -0.8257  -0.7439  -0.7425  -0.6379  -0.6126
 -0.5929  -0.5645  -0.5272  -0.4843  -0.4615  -0.4433  -0.4385  -0.4195
 -0.4177  -0.3966  -0.3799  -0.3743  -0.3488  -0.3448  -0.3232  -0.3135
 -0.3106  -0.2692  -0.2607
 -- Virtual --
  0.0074   0.0094   0.0156   0.0239   0.0250   0.0403   0.0479   0.0487
  0.0583   0.0687   0.0693   0.0828   0.0866   0.0942   0.0995   0.1040
  0.1112   0.1164   0.1247   0.1335   0.1401   0.1509   0.1556   0.1608
  0.1698   0.1798   0.1821   0.1883   0.1985   0.2019   0.2103   0.2134
  0.2206   0.2254   0.2311   0.2441   0.2470   0.2551   0.2635   0.2691
  0.2788   0.2809   0.2877   0.2891   0.2943   0.3043   0.3096   0.3254
  0.3288   0.3307   0.3591   0.3712   0.3847   0.3862   0.4160   0.4200
  0.4387   0.4594   0.4849   0.6087   0.6386   0.6551   0.6658   0.6667
  0.6833   0.6970   0.7297   0.7323   0.7463   0.7514   0.7749   0.7793
  0.8005   0.8043   0.8202   0.8506   0.8618   0.9109   0.9530   0.9741
  0.9784   0.9921   1.0216   1.0271   1.0305   1.0565   1.0886   1.1020
  1.1171   1.1222   1.1263   1.1433   1.1607   1.1706   1.1800   1.1899
  1.2399   1.2465   1.2839   1.3279   1.3436   1.3729   1.3889   1.4171
  1.4803   1.4867   1.4935   1.5677   1.5721   1.6146   1.6926   1.7311
  1.7328   1.7557   1.7693   1.8061   1.8520   1.8713   1.9016   1.9064
  1.9105   1.9390   1.9821   2.0098   2.0181   2.0440   2.0559   2.0849
  2.0919   2.1279   2.1997   2.2158   2.2779   2.3118   2.3156   2.3470
  2.3963   2.4083   2.4181   2.4233   2.4486   2.5606   2.5843   2.6204
  2.6717   2.6833   2.7042   2.7615   2.7800   2.8325   2.8626   2.9946
  3.1870   4.0929   4.1936   4.2293   4.2945   4.3328   4.4148   4.6025
  4.6090   4.6731
 --------------------------------------------------------------
 
          Ground-State Mulliken Net Atomic Charges

     Atom                 Charge (a.u.)
  ----------------------------------------
      1 C                    -0.266060
      2 C                    -0.443670
      3 C                    -0.285852
      4 C                    -0.448397
      5 C                    -0.382380
      6 C                    -0.452024
      7 H                     0.211699
      8 H                     0.230420
      9 H                     0.210863
     10 H                     0.211058
     11 H                     0.207640
     12 H                     0.202608
     13 H                     0.199219
     14 H                     0.201689
     15 H                     0.207613
     16 H                     0.202580
     17 H                     0.210712
     18 N                    -0.383740
     19 H                     0.443779
     20 C                     0.343769
     21 H                     0.178555
     22 O                    -0.600081
  ----------------------------------------
  Sum of atomic charges =     0.000000

 -----------------------------------------------------------------
                    Cartesian Multipole Moments
 -----------------------------------------------------------------
    Charge (ESU x 10^10)
                -0.0000
    Dipole Moment (Debye)
         X       2.2006      Y       1.4040      Z      -5.0818
       Tot       5.7130
    Quadrupole Moments (Debye-Ang)
        XX     -50.6298     XY       4.0684     YY     -54.3306
        XZ      -0.8675     YZ      -0.6909     ZZ     -57.5155
    Octopole Moments (Debye-Ang^2)
       XXX    -389.8179    XXY     -79.4199    XYY    -128.8419
       YYY    -262.2270    XXZ      14.6948    XYZ      -1.9639
       YYZ      16.3468    XZZ    -130.6604    YZZ     -86.0869
       ZZZ      36.7660
    Hexadecapole Moments (Debye-Ang^3)
      XXXX   -2977.3971   XXXY    -844.1577   XXYY    -741.8730
      XYYY    -857.0977   YYYY   -1511.4794   XXXZ     203.2121
      XXYZ      42.5172   XYYZ      68.1603   YYYZ     121.5380
      XXZZ    -542.6820   XYZZ    -285.0409   YYZZ    -297.8830
      XZZZ     200.0613   YZZZ     119.8547   ZZZZ    -253.2854
 -----------------------------------------------------------------
 Calculating analytic gradient of the SCF energy
 Gradient of SCF Energy
            1           2           3           4           5           6
    1   0.0032882   0.0019403  -0.0003560  -0.0046921  -0.0033443   0.0000906
    2  -0.0023286   0.0014642   0.0038060   0.0022974  -0.0026713  -0.0044280
    3   0.0070378   0.0004499   0.0080370  -0.0030172   0.0046544  -0.0033844
            7           8           9          10          11          12
    1   0.0003915   0.0014759  -0.0002036  -0.0011601   0.0000234   0.0021497
    2  -0.0019622   0.0008484  -0.0000502   0.0008856  -0.0000281  -0.0010661
    3   0.0000749  -0.0016854  -0.0053982   0.0000594   0.0019330  -0.0014783
           13          14          15          16          17          18
    1   0.0017923  -0.0002045   0.0002086  -0.0002175  -0.0005584  -0.0002669
    2   0.0011208   0.0001270  -0.0001952   0.0023854   0.0003087   0.0001318
    3   0.0008380  -0.0035529   0.0017633  -0.0011386  -0.0056245   0.0113745
           19          20          21          22
    1  -0.0011506   0.0036378  -0.0017606  -0.0010837
    2  -0.0003106  -0.0007346  -0.0000658   0.0004654
    3  -0.0133688   0.0058967  -0.0044549   0.0009843
 Max gradient component =       1.337E-02
 RMS gradient           =       3.382E-03
 Computing fast CPCM-SWIG gradient
 Updating gradient with PCM contributions...
 -- total gradient after adding PCM contribution --
---------------------------------------------------
  Atom         X              Y              Z     
---------------------------------------------------
   1       0.000014       0.000087      -0.000058
   2      -0.000103       0.000079      -0.000098
   3       0.000047      -0.000090      -0.000097
   4       0.000012      -0.000019       0.000024
   5       0.000060       0.000041      -0.000031
   6      -0.000027       0.000048       0.000014
   7       0.000003       0.000001       0.000010
   8      -0.000065      -0.000059      -0.000043
   9       0.000012      -0.000009       0.000026
  10      -0.000002      -0.000004       0.000012
  11      -0.000020      -0.000000      -0.000016
  12      -0.000013      -0.000007      -0.000006
  13      -0.000004      -0.000004       0.000009
  14      -0.000011      -0.000008       0.000010
  15      -0.000007      -0.000017      -0.000012
  16      -0.000003      -0.000002      -0.000002
  17       0.000002       0.000011       0.000027
  18      -0.000509       0.000271       0.000794
  19      -0.000081       0.000121      -0.000030
  20       0.001751      -0.001959      -0.001461
  21      -0.000488       0.000719       0.000130
  22      -0.000567       0.000802       0.000796
---------------------------------------------------
 Number of fixed atoms: 0
 Gradient time:  CPU 136.29 s  wall 12.35 s
 Geometry Optimization Parameters
   NAtoms,    NIC,     NZ,  NCons,   NDum,   NFix, NCnnct, MaxDiis
       22     172       0       0       0       0       0       0

 Cartesian Hessian Update
 Hessian updated using BFGS update


** GEOMETRY OPTIMIZATION IN DELOCALIZED INTERNAL COORDINATES **
   Searching for a Minimum

   Optimization Cycle:   4

                       Coordinates (Angstroms)
     ATOM                X               Y               Z
      1  C         1.9831178536    2.8308822180   -0.6423712004
      2  C         2.0946878939    1.3384873054   -0.2800771427
      3  C         3.4037059484    0.7300494573   -0.8138851739
      4  C         4.6287000898    1.5227813973   -0.3281639480
      5  C         4.5190648099    3.0129752372   -0.6881321418
      6  C         3.2107375611    3.6190919935   -0.1560809059
      7  H         3.4732721591   -0.3191591628   -0.4999312683
      8  H         2.0692509413    1.2327565380    0.8091714511
      9  H         1.8963251182    2.9236090407   -1.7357737671
     10  H         1.0626172090    3.2429864039   -0.2098884826
     11  H         4.7153301306    1.4191954619    0.7638454102
     12  H         5.5416191567    1.0910234257   -0.7583793230
     13  H         5.3809150857    3.5627363391   -0.2875624837
     14  H         4.5521095236    3.1252700998   -1.7825777832
     15  H         3.2301073017    3.6144659104    0.9441013675
     16  H         3.1215481676    4.6687659819   -0.4645949262
     17  H         3.3750794157    0.7369165318   -1.9144102190
     18  N         0.9369629980    0.5920144570   -0.7824174448
     19  H         0.8192248200    0.5282710931   -1.7886738381
     20  C        -0.0028537312   -0.0012571622   -0.0226304512
     21  H        -0.7884929912   -0.4905491336   -0.6222606394
     22  O        -0.0386223763   -0.0082466927    1.2152970167
   Point Group: c1    Number of degrees of freedom:    60


   Energy is   -404.599686128

 Hessian updated using BFGS update

 60 Hessian modes will be used to form the next step
  Hessian Eigenvalues:
     0.005966    0.006017    0.006968    0.007179    0.012612    0.019500
     0.019736    0.020846    0.037202    0.038505    0.039416    0.041951
     0.048449    0.048861    0.048984    0.055289    0.055717    0.056432
     0.060781    0.066921    0.081477    0.081552    0.081649    0.082034
     0.082134    0.083810    0.084498    0.087653    0.120967    0.121216
     0.143054    0.147111    0.159676    0.162854    0.175158    0.209789
     0.212343    0.223573    0.272325    0.272698    0.275535    0.286880
     0.287007    0.288173    0.328396    0.334415    0.334686    0.335764
     0.336546    0.336730    0.339285    0.339417    0.339450    0.340086
     0.340259    0.342357    0.363771    0.446743    0.458046    0.810250

 Minimum search - taking simple RFO step
 Searching for Lamda that Minimizes Along All modes
 Value Taken    Lamda =  -0.00004010
 Step Taken.  Stepsize is  0.021241

                             Maximum     Tolerance    Cnvgd?
         Gradient           0.001432      0.000100      NO
         Displacement       0.016716      0.000100      NO
         Energy change      0.000017      0.000000      NO


 New Cartesian Coordinates Obtained by Inverse Iteration

 Displacement from previous Coordinates is:  0.024788
 ----------------------------------------------------------------
             Standard Nuclear Orientation (Angstroms)
    I     Atom           X                Y                Z
 ----------------------------------------------------------------
    1      C       1.9834114367     2.8321215261    -0.6430625853
    2      C       2.0936147359     1.3397771467    -0.2806404034
    3      C       3.4023914379     0.7304943909    -0.8136931792
    4      C       4.6278157323     1.5223142477    -0.3275848979
    5      C       4.5193642186     3.0124388782    -0.6877834766
    6      C       3.2113606258     3.6194901535    -0.1563040776
    7      H       3.4710458751    -0.3187614024    -0.4996903297
    8      H       2.0682695987     1.2346977909     0.8087402257
    9      H       1.8970439081     2.9249217692    -1.7365466751
   10      H       1.0630151366     3.2449565080    -0.2110570782
   11      H       4.7141829851     1.4187958067     0.7644829868
   12      H       5.5406052324     1.0899432034    -0.7574685017
   13      H       5.3814693280     3.5616773217    -0.2870329995
   14      H       4.5529545255     3.1246188207    -1.7822493585
   15      H       3.2303446771     3.6151403596     0.9439131095
   16      H       3.1231272393     4.6691925801    -0.4650070162
   17      H       3.3742552691     0.7371535918    -1.9142867933
   18      N       0.9354352317     0.5941443623    -0.7833075538
   19      H       0.8174135602     0.5292513721    -1.7894005652
   20      C      -0.0044188498     0.0012651307    -0.0216129338
   21      H      -0.7847203568    -0.4965766472    -0.6214442204
   22      O      -0.0335744625    -0.0139901700     1.2156404297
 ----------------------------------------------------------------
 Nuclear Repulsion Energy =         466.39184358 hartrees
 There are       35 alpha and       35 beta electrons
 Discretize the solute cavity surface with Lebedev spheres
	Using 302 Lebedev grid points for each H atom
	Using 302 Lebedev grid points for other atoms
	Atomic van der Waals radii will be scaled by 1.20
 Remove points where switching function is < 1.0e-08
 Keep 2710 surface tesserae and discard 3934 interior tesserae
 Molecular Surface Area = 182.972 Angst**2
 Applying Cartesian multipole field
    Component          Value
    ---------          -----
     (2,0,0)        1.00000E-12
     (0,2,0)        2.00000E-11
     (0,0,2)       -3.00000E-11
 Nucleus-field energy     =     0.0000000185 hartrees
 Requested basis set is 6-31+G(d)
 There are 71 shells and 197 basis functions
 A cutoff of  1.0D-14 yielded   2409 shell pairs
 There are     18981 function pairs
 Smallest overlap matrix eigenvalue = 2.45E-05
 Guess MOs from SCF MO coefficient file

 -----------------------------------------------------------------------
  General SCF calculation program by
  Eric Jon Sundstrom, Paul Horn, Yuezhi Mao, Dmitri Zuev, Alec White,
  David Stuck, Shaama M.S., Shane Yost, Joonho Lee, David Small,
  Daniel Levine, Susi Lehtola, Hugh Burton, Evgeny Epifanovsky,
  Bang C. Huynh
 -----------------------------------------------------------------------
 Exchange:     0.2000 Hartree-Fock + 0.0800 Slater + 0.7200 B88
 Correlation:  0.1900 VWN1RPA + 0.8100 LYP
 Using Euler-Maclaurin-Lebedev (99,590) quadrature formula
 using 16 threads for integral computing
 -------------------------------------------------------
 OpenMP Integral computing Module                
 Release: version 2.0, May 2017, Q-Chem Inc. Pleasanton 
 -------------------------------------------------------
 A restricted SCF calculation will be
 performed using Roothaan-Hall, DIIS
 SCF converges when DIIS error is below 1.0e-09
 ---------------------------------------
  Cycle       Energy         DIIS error
 ---------------------------------------
    1    -404.5835665497      5.19e-04  Roothaan Step
 ---------------------------------------
  Cycle       Energy         DIIS error
 ---------------------------------------
    1    -404.5913731344      1.08e-03  
    2    -404.5785123870      2.35e-03  
    3    -404.5995343000      1.82e-04  
    4    -404.5996653829      9.82e-05  
    5    -404.5997020326      3.12e-05  
    6    -404.5997059463      8.14e-06  
    7    -404.5997061981      2.72e-06  
    8    -404.5997062336      5.27e-07  
    9    -404.5997062348      2.19e-07  
   10    -404.5997062350      4.02e-08  
   11    -404.5997062350      9.68e-09  
   12    -404.5997062350      2.87e-09  
   13    -404.5997062350      3.62e-10  Convergence criterion met
 ---------------------------------------
 SCF time:   CPU 951.76s  wall 63.00s 

************** Final PCM Free Energy Summary **************
 G_electrostatic  =      -0.01605861 hartree =     -10.07692890 kcal/mol
 G_cavitation     =       0.00000000 hartree =       0.00000000 kcal/mol
 G_dispersion     =       0.00000000 hartree =       0.00000000 kcal/mol
 G_repulsion      =       0.00000000 hartree =       0.00000000 kcal/mol
 --------------------------------------------------
 Non-electrostatic Free Energy =       0.00000000 hartree =       0.00000000 kcal/mol
 Total                         =      -0.01605861 hartree =     -10.07692890 kcal/mol
 --------------------------------------------------
 SCF Energy (H0 + V/2)                       =    -404.59970624 
 Solute Internal Energy (H0)                 =    -404.58364763 
 Total Free Energy (H0 + V/2 + non-elec)     =    -404.59970624 hartree
                                             = -253890.14762629 kcal/mol
***********************************************************

 SCF   energy in the final basis set =     -404.5997062350
 Total energy in the final basis set =     -404.5997062350
 
 --------------------------------------------------------------
 
                    Orbital Energies (a.u.)
 --------------------------------------------------------------
 
 Alpha MOs
 -- Occupied --
-19.1333 -14.3719 -10.2934 -10.2262 -10.1844 -10.1838 -10.1815 -10.1812
-10.1795  -1.0386  -0.9333  -0.8256  -0.7438  -0.7425  -0.6377  -0.6126
 -0.5929  -0.5645  -0.5271  -0.4843  -0.4615  -0.4432  -0.4385  -0.4194
 -0.4179  -0.3966  -0.3798  -0.3744  -0.3487  -0.3448  -0.3232  -0.3134
 -0.3105  -0.2693  -0.2607
 -- Virtual --
  0.0074   0.0095   0.0156   0.0239   0.0250   0.0403   0.0479   0.0487
  0.0583   0.0687   0.0693   0.0828   0.0867   0.0942   0.0995   0.1040
  0.1112   0.1164   0.1247   0.1335   0.1401   0.1509   0.1556   0.1609
  0.1698   0.1799   0.1821   0.1883   0.1987   0.2017   0.2104   0.2134
  0.2206   0.2254   0.2311   0.2442   0.2470   0.2552   0.2634   0.2691
  0.2788   0.2809   0.2877   0.2891   0.2943   0.3043   0.3096   0.3254
  0.3289   0.3307   0.3591   0.3713   0.3844   0.3861   0.4161   0.4199
  0.4387   0.4595   0.4852   0.6089   0.6386   0.6552   0.6658   0.6667
  0.6833   0.6970   0.7296   0.7323   0.7470   0.7509   0.7751   0.7793
  0.8007   0.8043   0.8204   0.8503   0.8618   0.9108   0.9531   0.9741
  0.9784   0.9921   1.0216   1.0270   1.0306   1.0565   1.0886   1.1020
  1.1172   1.1223   1.1264   1.1434   1.1608   1.1706   1.1801   1.1899
  1.2396   1.2470   1.2839   1.3279   1.3435   1.3727   1.3891   1.4173
  1.4793   1.4881   1.4934   1.5670   1.5725   1.6143   1.6925   1.7312
  1.7329   1.7555   1.7695   1.8060   1.8526   1.8705   1.9017   1.9064
  1.9106   1.9392   1.9821   2.0098   2.0181   2.0440   2.0559   2.0850
  2.0921   2.1279   2.1998   2.2162   2.2775   2.3125   2.3148   2.3472
  2.3965   2.4085   2.4183   2.4234   2.4487   2.5608   2.5843   2.6206
  2.6718   2.6835   2.7040   2.7614   2.7798   2.8325   2.8631   2.9952
  3.1867   4.0927   4.1937   4.2294   4.2945   4.3328   4.4150   4.6026
  4.6090   4.6733
 --------------------------------------------------------------
 
          Ground-State Mulliken Net Atomic Charges

     Atom                 Charge (a.u.)
  ----------------------------------------
      1 C                    -0.265804
      2 C                    -0.443282
      3 C                    -0.286584
      4 C                    -0.448300
      5 C                    -0.382382
      6 C                    -0.451865
      7 H                     0.211677
      8 H                     0.230413
      9 H                     0.210792
     10 H                     0.210965
     11 H                     0.207628
     12 H                     0.202599
     13 H                     0.199197
     14 H                     0.201680
     15 H                     0.207579
     16 H                     0.202538
     17 H                     0.210683
     18 N                    -0.384540
     19 H                     0.443759
     20 C                     0.344024
[...]

 Mode:                40                     41                     42
 Frequency:      1404.61                1494.96                1497.81
 Force Cnst:      1.7094                 1.4325                 1.4395
 Red. Mass:       1.4706                 1.0879                 1.0890
 IR Active:          YES                    YES                    YES
 IR Intens:        0.645                  0.135                  5.079
 Raman Active:       YES                    YES                    YES
               X      Y      Z        X      Y      Z        X      Y      Z
 C         -0.049 -0.098 -0.016   -0.038  0.014 -0.030    0.003 -0.016  0.005
 C          0.084  0.059  0.004   -0.009  0.013  0.001    0.007  0.005  0.003
 C         -0.111 -0.009 -0.007    0.004  0.035  0.033   -0.013  0.009  0.008
 C          0.003 -0.047 -0.002    0.024 -0.005  0.020   -0.011  0.014 -0.014
 C          0.010  0.007 -0.006    0.007 -0.013  0.000    0.048  0.036 -0.043
 C         -0.043  0.020  0.003   -0.006 -0.022 -0.022    0.008 -0.017 -0.018
 H          0.396  0.054  0.065    0.007 -0.106 -0.394    0.015 -0.022 -0.095
 H         -0.392 -0.281 -0.037    0.041 -0.062 -0.005   -0.022 -0.017  0.000
 H          0.185  0.271  0.004    0.384 -0.161 -0.066   -0.053  0.082  0.014
 H          0.201  0.334  0.086    0.132 -0.094  0.401   -0.018  0.029 -0.080
 H          0.005  0.053  0.008   -0.253  0.080  0.042    0.159 -0.129 -0.037
 H          0.149  0.231  0.026   -0.086  0.059 -0.252    0.077 -0.025  0.191
 H          0.031  0.024 -0.060    0.004  0.003 -0.015   -0.148 -0.150  0.580
 H          0.054  0.039 -0.008   -0.025  0.064  0.007   -0.509 -0.335 -0.082
 H          0.058 -0.016  0.002    0.021  0.269 -0.014   -0.061  0.224 -0.011
 H          0.271  0.049  0.009   -0.005  0.072  0.262    0.020  0.065  0.222
 H          0.319  0.078 -0.011    0.005 -0.397  0.018    0.058 -0.092  0.002
 N          0.026  0.015  0.014   -0.000 -0.000  0.000    0.001  0.001  0.000
 H         -0.100 -0.065  0.034    0.002 -0.000 -0.000   -0.010 -0.006  0.002
 C         -0.021 -0.014 -0.005    0.000  0.000 -0.000   -0.001 -0.001  0.000
 H         -0.029 -0.018 -0.015   -0.000  0.001  0.000   -0.001 -0.001 -0.001
 O          0.003  0.002  0.005   -0.000 -0.000  0.000    0.000  0.000 -0.000
 TransDip  -0.023 -0.010 -0.008    0.009 -0.008 -0.001   -0.028 -0.022  0.063

 Mode:                43                     44                     45
 Frequency:      1500.59                1501.84                1514.16
 Force Cnst:      1.4572                 1.4497                 1.4873
 Red. Mass:       1.0983                 1.0909                 1.1011
 IR Active:          YES                    YES                    YES
 IR Intens:        7.281                 11.266                  0.617
 Raman Active:       YES                    YES                    YES
               X      Y      Z        X      Y      Z        X      Y      Z
 C         -0.031  0.018 -0.017   -0.027  0.022 -0.021    0.027 -0.021  0.016
 C          0.002 -0.005 -0.001   -0.012 -0.008 -0.004    0.009  0.006  0.007
 C         -0.003  0.027  0.016    0.010 -0.038 -0.031   -0.008  0.032  0.021
 C         -0.045  0.020 -0.028   -0.025  0.015 -0.017   -0.031  0.021 -0.017
 C          0.001 -0.002 -0.000   -0.013 -0.009  0.006   -0.032 -0.023  0.017
 C          0.001  0.040  0.028    0.004 -0.034 -0.025    0.006 -0.034 -0.021
 H         -0.013 -0.051 -0.226   -0.028  0.100  0.393    0.002 -0.072 -0.305
 H         -0.007  0.013  0.001    0.016  0.012 -0.004   -0.015 -0.011  0.006
 H          0.267 -0.148 -0.046    0.293 -0.162 -0.055   -0.262  0.161  0.048
 H          0.089 -0.049  0.284    0.091 -0.094  0.312   -0.087  0.059 -0.287
 H          0.403 -0.189 -0.070    0.262 -0.114 -0.046    0.275 -0.149 -0.049
 H          0.135 -0.070  0.416    0.074 -0.077  0.262    0.084 -0.060  0.294
 H         -0.019  0.026  0.003    0.019  0.018 -0.098    0.064  0.068 -0.299
 H          0.008 -0.013 -0.001    0.086  0.058  0.011    0.267  0.177  0.039
 H          0.024 -0.385  0.015   -0.016  0.354 -0.015   -0.038  0.314 -0.011
 H         -0.020 -0.089 -0.369   -0.021  0.082  0.336   -0.002  0.067  0.304
 H          0.033 -0.236  0.006   -0.052  0.404 -0.017    0.055 -0.313  0.010
 N         -0.000  0.001  0.000    0.002  0.001  0.000    0.008  0.005 -0.003
 H          0.001 -0.001  0.000    0.008  0.006 -0.001   -0.053 -0.034  0.007
 C         -0.000  0.000 -0.000    0.000  0.000 -0.001   -0.006 -0.004  0.005
 H          0.000 -0.001  0.000   -0.000 -0.000  0.000   -0.005 -0.003 -0.004
 O          0.000 -0.000  0.000   -0.000 -0.000  0.001    0.001  0.000 -0.002
 TransDip   0.052 -0.069  0.003    0.044  0.030  0.093   -0.022 -0.011  0.006

 Mode:                46                     47                     48
 Frequency:      1554.02                1681.41                2235.61
 Force Cnst:      2.5008                14.3170                 7.0589
 Red. Mass:       1.7576                 8.5952                 2.3972
 IR Active:          YES                    YES                    YES
 IR Intens:      253.732                826.034                100.479
 Raman Active:       YES                    YES                    YES
               X      Y      Z        X      Y      Z        X      Y      Z
 C          0.007  0.002  0.007   -0.016 -0.004 -0.012   -0.000 -0.000  0.000
 C          0.060  0.040 -0.044    0.023  0.014  0.023    0.002  0.002  0.000
 C          0.005  0.007  0.007   -0.011 -0.012 -0.013   -0.000 -0.000  0.000
 C         -0.007 -0.005 -0.001    0.000  0.007  0.005   -0.000  0.000  0.000
 C         -0.000 -0.000  0.002   -0.001 -0.000 -0.001   -0.000 -0.000 -0.000
 C         -0.006 -0.005 -0.001    0.007 -0.003  0.004    0.000 -0.000  0.000
 H          0.011  0.000 -0.026    0.018 -0.002  0.022    0.001 -0.000 -0.001
 H         -0.278 -0.180 -0.080   -0.060 -0.038  0.038    0.006  0.003  0.002
 H         -0.036 -0.047  0.002    0.022  0.027 -0.015   -0.000  0.000  0.000
 H          0.002  0.019 -0.028    0.006  0.013  0.025    0.000  0.001 -0.001
 H          0.039  0.004 -0.005   -0.003 -0.002  0.006   -0.000 -0.000  0.000
 H          0.014  0.010  0.032   -0.024 -0.028 -0.020   -0.000 -0.000 -0.000
 H          0.006  0.007 -0.024   -0.003 -0.003  0.011   -0.000 -0.000  0.000
 H          0.015  0.010  0.003   -0.003 -0.002 -0.002   -0.000 -0.000 -0.000
 H          0.017  0.034 -0.002   -0.004 -0.004  0.006   -0.000 -0.000  0.000
 H          0.014  0.005  0.030   -0.037 -0.010 -0.019   -0.000  0.000 -0.000
 H         -0.059 -0.016  0.004    0.030  0.010 -0.017    0.000 -0.000  0.000
 N         -0.163 -0.105  0.058    0.036  0.024 -0.109    0.013  0.008 -0.001
 H          0.748  0.474 -0.078    0.366  0.226 -0.162   -0.051 -0.032 -0.000
 C          0.085  0.054 -0.021   -0.136 -0.085  0.650   -0.135 -0.086 -0.110
 H          0.098  0.063  0.066    0.333  0.213  0.020    0.703  0.448  0.513
 O         -0.009 -0.006 -0.009    0.008  0.004 -0.392    0.004  0.003  0.018
 TransDip   0.390  0.249 -0.216   -0.394 -0.252  0.793   -0.190 -0.121 -0.229

 Mode:                49                     50                     51
 Frequency:      3012.96                3013.68                3017.35
 Force Cnst:      5.7111                 5.7186                 5.7355
 Red. Mass:       1.0678                 1.0687                 1.0692
 IR Active:          YES                    YES                    YES
 IR Intens:       35.384                 32.979                 25.176
 Raman Active:       YES                    YES                    YES
               X      Y      Z        X      Y      Z        X      Y      Z
 C          0.013 -0.007  0.031    0.009 -0.006  0.016   -0.017  0.010 -0.046
 C         -0.001  0.000  0.002   -0.000  0.000 -0.002   -0.001 -0.001  0.006
 C         -0.000 -0.019 -0.052   -0.001  0.001 -0.006    0.000 -0.013 -0.038
 C          0.004 -0.002  0.018    0.001 -0.003  0.026   -0.001 -0.000  0.013
 C         -0.006 -0.004  0.015    0.020  0.018 -0.059   -0.005 -0.003 -0.006
 C         -0.000 -0.003 -0.024   -0.000 -0.002  0.014    0.001  0.006  0.034
 H         -0.016  0.237 -0.088    0.003 -0.008  0.002   -0.012  0.160 -0.059
 H          0.001  0.002 -0.023   -0.000 -0.002  0.021    0.002  0.009 -0.088
 H         -0.030  0.035 -0.440   -0.014  0.020 -0.238    0.043 -0.054  0.642
 H         -0.120  0.051  0.067   -0.096  0.045  0.053    0.156 -0.069 -0.087
 H         -0.017  0.021 -0.231   -0.024  0.030 -0.316   -0.012  0.015 -0.155
 H         -0.025  0.007  0.016    0.008 -0.001  0.003    0.022 -0.012 -0.009
 H          0.062  0.035  0.033   -0.215 -0.136 -0.119    0.067  0.044  0.034
 H          0.005  0.018 -0.209   -0.017 -0.080  0.837   -0.004 -0.006  0.046
 H          0.006 -0.003  0.304   -0.003  0.000 -0.171   -0.008  0.006 -0.437
 H         -0.002  0.034 -0.016    0.002  0.025 -0.005    0.004 -0.074  0.030
 H          0.017 -0.014  0.716    0.004 -0.000  0.077    0.011 -0.009  0.520
 N          0.000 -0.000 -0.000    0.000  0.000 -0.000    0.000  0.000 -0.000
 H          0.002 -0.001  0.000   -0.000 -0.001 -0.000    0.003  0.002  0.001
 C          0.000  0.000  0.000   -0.000 -0.000  0.000   -0.000 -0.000  0.001
 H         -0.000  0.000 -0.000    0.000  0.000  0.000    0.000  0.000 -0.000
 O         -0.000 -0.000 -0.000    0.000  0.000 -0.000   -0.000 -0.000 -0.000
 TransDip   0.048 -0.180 -0.040    0.166  0.057 -0.054   -0.085  0.011 -0.136

 Mode:                52                     53                     54
 Frequency:      3019.46                3020.94                3062.62
 Force Cnst:      5.7074                 5.7025                 6.0458
 Red. Mass:       1.0625                 1.0605                 1.0940
 IR Active:          YES                    YES                    YES
 IR Intens:       11.028                132.191                114.898
 Raman Active:       YES                    YES                    YES
               X      Y      Z        X      Y      Z        X      Y      Z
 C          0.016 -0.009  0.020   -0.013  0.007 -0.014   -0.010  0.005  0.013
 C          0.000 -0.000 -0.001   -0.000 -0.001  0.004    0.000  0.001 -0.007
 C          0.001 -0.011 -0.008    0.001 -0.012 -0.012    0.002 -0.014  0.013
 C         -0.024  0.014 -0.039   -0.025  0.014 -0.030   -0.017  0.008  0.005
 C          0.001  0.000  0.001    0.021  0.015 -0.010   -0.054 -0.033 -0.048
 C         -0.001  0.023  0.035    0.002 -0.025 -0.031    0.002 -0.022  0.004
 H         -0.012  0.142 -0.047   -0.012  0.149 -0.050   -0.013  0.174 -0.053
 H         -0.002  0.000  0.015    0.000  0.004 -0.047   -0.001 -0.007  0.082
 H         -0.020  0.026 -0.330    0.014 -0.019  0.239   -0.008  0.009 -0.092
 H         -0.172  0.079  0.091    0.144 -0.067 -0.075    0.130 -0.060 -0.062
 H          0.039 -0.051  0.600    0.031 -0.043  0.493   -0.000 -0.003  0.034
 H          0.246 -0.115 -0.131    0.267 -0.126 -0.139    0.198 -0.095 -0.095
 H         -0.014 -0.004 -0.006   -0.249 -0.158 -0.124    0.658  0.419  0.309
 H          0.001 -0.000 -0.007   -0.001 -0.021  0.245   -0.016 -0.033  0.270
 H         -0.011  0.011 -0.507    0.008 -0.011  0.472   -0.000 -0.003  0.025
 H          0.024 -0.277  0.095   -0.026  0.306 -0.102   -0.022  0.255 -0.077
 H          0.004 -0.005  0.141    0.005 -0.005  0.191   -0.002 -0.001 -0.095
 N         -0.000  0.000  0.000   -0.000 -0.000  0.000   -0.000 -0.000  0.000
 H          0.000 -0.001 -0.000    0.002  0.001  0.001   -0.000 -0.000 -0.001
 C          0.000  0.000 -0.000    0.000  0.000  0.000    0.000  0.000 -0.000
 H         -0.000 -0.000  0.000    0.000  0.000 -0.000   -0.000 -0.000 -0.000
 O          0.000 -0.000  0.000   -0.000 -0.000  0.000    0.000  0.000  0.000
 TransDip  -0.048  0.090  0.030   -0.073 -0.011 -0.361   -0.276 -0.195 -0.059

 Mode:                55                     56                     57
 Frequency:      3063.96                3067.65                3069.25
 Force Cnst:      6.0685                 6.0870                 6.0831
 Red. Mass:       1.0972                 1.0978                 1.0960
 IR Active:          YES                    YES                    YES
 IR Intens:      115.053                 78.548                 80.829
 Raman Active:       YES                    YES                    YES
               X      Y      Z        X      Y      Z        X      Y      Z
 C          0.012 -0.006 -0.002    0.015 -0.007 -0.004   -0.030  0.013  0.027
 C         -0.000  0.001  0.000    0.001  0.000  0.002   -0.000  0.002 -0.025
 C          0.001 -0.013  0.000   -0.002  0.020 -0.003    0.004 -0.053  0.036
 C          0.042 -0.018 -0.042   -0.038  0.017  0.041   -0.004  0.001  0.020
 C          0.002  0.001  0.002    0.008  0.003  0.027    0.018  0.010  0.021
 C          0.004 -0.051  0.037    0.005 -0.045  0.035    0.001 -0.003  0.014
 H         -0.010  0.149 -0.046    0.016 -0.233  0.071   -0.041  0.632 -0.193
 H         -0.001  0.001  0.000    0.001  0.003 -0.035   -0.003 -0.028  0.317
 H         -0.002  0.002 -0.040   -0.002  0.001 -0.037   -0.018  0.015 -0.151
 H         -0.137  0.061  0.065   -0.176  0.079  0.084    0.372 -0.167 -0.177
 H          0.027 -0.026  0.251   -0.027  0.029 -0.266   -0.017  0.020 -0.201
 H         -0.522  0.245  0.248    0.481 -0.228 -0.229    0.070 -0.033 -0.032
 H         -0.020 -0.014 -0.010   -0.114 -0.072 -0.053   -0.216 -0.138 -0.102
 H          0.002  0.000 -0.014    0.010  0.029 -0.267    0.008  0.019 -0.158
 H         -0.005 -0.006 -0.268   -0.003 -0.006 -0.264   -0.002 -0.000 -0.150
 H         -0.050  0.609 -0.181   -0.046  0.535 -0.159   -0.003  0.041 -0.012
 H          0.002 -0.002  0.037   -0.002  0.002 -0.025   -0.006 -0.008 -0.239
 N          0.000 -0.000 -0.000   -0.000 -0.000  0.000    0.000  0.000  0.000
 H          0.000 -0.000 -0.000   -0.001 -0.000  0.000   -0.001 -0.000 -0.004
 C          0.000 -0.000 -0.000    0.000  0.000 -0.000    0.000  0.000 -0.000
 H         -0.000  0.000 -0.000   -0.000 -0.000  0.000   -0.000 -0.000 -0.000
 O         -0.000  0.000  0.000   -0.000 -0.000  0.000    0.000  0.000  0.000
 TransDip   0.197 -0.281 -0.014   -0.050 -0.043  0.276   -0.040 -0.092  0.270

 Mode:                58                     59                     60
 Frequency:      3070.88                3097.61                3580.90
 Force Cnst:      6.1071                 6.1499                 8.1469
 Red. Mass:       1.0992                 1.0878                 1.0783
 IR Active:          YES                    YES                    YES
 IR Intens:       49.146                 53.460                 55.477
 Raman Active:       YES                    YES                    YES
               X      Y      Z        X      Y      Z        X      Y      Z
 C         -0.048  0.020  0.049    0.012 -0.005 -0.019   -0.000 -0.000  0.000
 C         -0.000  0.001 -0.005    0.002  0.007 -0.078    0.001  0.001 -0.001
 C         -0.003  0.041 -0.031   -0.001  0.015 -0.016   -0.000 -0.000  0.000
 C          0.005 -0.002 -0.012    0.000  0.000 -0.005   -0.000  0.000  0.000
 C          0.003  0.001  0.002   -0.001 -0.001 -0.002    0.000  0.000  0.000
 C          0.001 -0.006  0.015   -0.000  0.001 -0.005    0.000 -0.000  0.000
 H          0.033 -0.497  0.151    0.014 -0.177  0.053   -0.000  0.000 -0.000
 H         -0.002 -0.004  0.062   -0.020 -0.088  0.929    0.003  0.001  0.011
 H         -0.031  0.029 -0.296    0.013 -0.018  0.150   -0.000 -0.001 -0.000
 H          0.608 -0.272 -0.289   -0.157  0.073  0.075    0.000 -0.000 -0.000
 H          0.010 -0.009  0.106    0.006 -0.004  0.051    0.000  0.000 -0.000
 H         -0.069  0.033  0.032   -0.007  0.004  0.004    0.000 -0.000 -0.000
 H         -0.027 -0.015 -0.012    0.013  0.008  0.006   -0.000 -0.000 -0.000
 H          0.002  0.001 -0.018   -0.001 -0.002  0.013   -0.000  0.000 -0.000
 H         -0.004 -0.001 -0.153    0.003  0.001  0.052    0.000  0.000 -0.000
 H         -0.007  0.082 -0.024    0.001 -0.008  0.003   -0.000  0.000 -0.000
 H          0.005  0.005  0.222   -0.001  0.002  0.147   -0.002  0.000 -0.000
 N          0.000 -0.000 -0.000   -0.001 -0.001  0.001   -0.007 -0.004 -0.073
 H          0.000 -0.000 -0.001    0.003  0.002 -0.010    0.114  0.064  0.989
 C         -0.000  0.000 -0.000    0.001  0.000 -0.002   -0.002 -0.001 -0.000
 H         -0.000 -0.000 -0.000   -0.001 -0.001 -0.000    0.002  0.001  0.000
 O          0.000 -0.000  0.000    0.000  0.000  0.001   -0.000 -0.000  0.001
 TransDip  -0.135  0.170  0.055   -0.020  0.011 -0.233   -0.035 -0.023  0.235

 STANDARD THERMODYNAMIC QUANTITIES AT   298.18 K  AND     1.00 ATM

   This Molecule has  1 Imaginary Frequencies
   Zero point vibrational energy:      121.852 kcal/mol

   Atom    1 Element C  Has Mass   12.00000
   Atom    2 Element C  Has Mass   12.00000
   Atom    3 Element C  Has Mass   12.00000
   Atom    4 Element C  Has Mass   12.00000
   Atom    5 Element C  Has Mass   12.00000
   Atom    6 Element C  Has Mass   12.00000
   Atom    7 Element H  Has Mass    1.00783
   Atom    8 Element H  Has Mass    1.00783
   Atom    9 Element H  Has Mass    1.00783
   Atom   10 Element H  Has Mass    1.00783
   Atom   11 Element H  Has Mass    1.00783
   Atom   12 Element H  Has Mass    1.00783
   Atom   13 Element H  Has Mass    1.00783
   Atom   14 Element H  Has Mass    1.00783
   Atom   15 Element H  Has Mass    1.00783
   Atom   16 Element H  Has Mass    1.00783
   Atom   17 Element H  Has Mass    1.00783
   Atom   18 Element N  Has Mass   14.00307
   Atom   19 Element H  Has Mass    1.00783
   Atom   20 Element C  Has Mass   12.00000
   Atom   21 Element H  Has Mass    2.01410
   Atom   22 Element O  Has Mass   15.99491
   Molecular Mass:   128.106042 amu
   Principal axes and moments of inertia in amu*Bohr^2:
                             1           2           3
    Eigenvalues --      538.08178  2027.88644  2229.31017
          X               0.82525    -0.52843     0.19932
          Y               0.53936     0.84208    -0.00060
          Z              -0.16752     0.10800     0.97993
   Rotational Symmetry Number is   1
   The Molecule is an Asymmetric Top
   Translational Enthalpy:        0.889 kcal/mol
   Rotational Enthalpy:           0.889 kcal/mol
   Vibrational Enthalpy:        125.139 kcal/mol
   gas constant (RT):             0.593 kcal/mol
   Translational Entropy:        40.457  cal/mol.K
   Rotational Entropy:           29.277  cal/mol.K
   Vibrational Entropy:          18.135  cal/mol.K

   Total Enthalpy:              127.509 kcal/mol
   Total Entropy:                87.869  cal/mol.K
Archival summary:
1\1\node028\FREQ\ProcedureUnspecified\6-31+G*\11713\ymao90\TueJul2717:47:172021TueJul2717:47:172021\0\\#,FREQ,ProcedureUnspecified,6-31+G*,\\0,1\N\H,1,1.01505\C,1,1.34717,2,116.828\H,3,1.10295,1,112.627,2,0.793262,0\O,3,1.23768,1,125.939,2,-179.329,0\C,1,1.4664,2,117.65,3,-178.952,0\H,6,1.09471,1,105.896,2,-176.5,0\C,6,1.53891,1,110.589,2,-58.4982,0\H,8,1.09739,6,109.433,1,-58.921,0\H,8,1.10097,6,108.794,1,57.7402,0\C,8,1.53783,6,111.367,1,178.473,0\H,11,1.0977,8,109.635,6,-177.632,0\H,11,1.10036,8,109.135,6,65.9089,0\C,11,1.53689,8,111.649,6,-54.9397,0\H,14,1.09795,11,110.125,8,177.233,0\H,14,1.10071,11,109.249,8,-65.8436,0\C,14,1.53685,11,111.228,8,54.8279,0\H,17,1.09771,14,110.423,11,-177.077,0\H,17,1.10039,14,109.239,11,65.9507,0\C,17,1.53777,14,111.587,11,-54.8416,0\H,20,1.09736,17,110.642,14,176.91,0\H,20,1.1008,17,109.503,14,-65.3039,0\\\@

 Total job time:  926.43s(wall), 12919.77s(cpu) 
 Tue Jul 27 17:47:17 2021

        *************************************************************
        *                                                           *
        *  Thank you very much for using Q-Chem.  Have a nice day.  *
        *                                                           *
        *************************************************************


