                  Welcome to Q-Chem
     A Quantum Leap Into The Future Of Chemistry


 Q-Chem 5.2 (devel), Q-Chem, Inc., Pleasanton, CA (2019)

 Yihan Shao,  Zhengting Gan,  E. Epifanovsky,  A. T. B. Gilbert,  M. Wormit,  
 J. Kussmann,  A. W. Lange,  A. Behn,  Jia Deng,  Xintian Feng,  D. Ghosh,  
 M. Goldey,  P. R. Horn,  L. D. Jacobson,  I. Kaliman,  T. Kus,  A. Landau,  
 Jie Liu,  E. I. Proynov,  R. M. Richard,  R. P. Steele,  E. J. Sundstrom,  
 H. L. Woodcock III,  P. M. Zimmerman,  D. Zuev,  B. Alam,  B. Albrecht,  
 E. Alguire,  S. A. Baeppler,  D. Barton,  Z. Benda,  Y. A. Bernard,  
 E. J. Berquist,  K. B. Bravaya,  H. Burton,  K. Carter-Fenk,  D. Casanova,  
 Chun-Min Chang,  Yunqing Chen,  A. Chien,  K. D. Closser,  M. P. Coons,  
 S. Coriani,  S. Dasgupta,  A. L. Dempwolff,  M. Diedenhofen,  Hainam Do,  
 R. G. Edgar,  Po-Tung Fang,  S. Faraji,  S. Fatehi,  Qingguo Feng,  
 J. Fosso-Tande,  J. Gayvert,  Qinghui Ge,  A. Ghysels,  G. Gidofalvi,  
 J. Gomes,  J. Gonthier,  A. Gunina,  D. Hait,  M. W. D. Hanson-Heine,  
 P. H. P. Harbach,  A. W. Hauser,  M. F. Herbst,  J. E. Herr,  
 E. G. Hohenstein,  Z. C. Holden,  Kerwin Hui,  B. C. Huynh,  T.-C. Jagau,  
 Hyunjun Ji,  B. Kaduk,  K. Khistyaev,  Jaehoon Kim,  P. Klunzinger,  K. Koh,  
 D. Kosenkov,  L. Koulias,  T. Kowalczyk,  C. M. Krauter,  A. Kunitsa,  
 Ka Un Lao,  A. Laurent,  K. V. Lawler,  Joonho Lee,  D. Lefrancois,  
 S. Lehtola,  D. S. Levine,  Yi-Pei Li,  You-Sheng Lin,  Fenglai Liu,  
 Kuan-Yu Liu,  E. Livshits,  M. Loipersberger,  A. Luenser,  P. Manohar,  
 E. Mansoor,  S. F. Manzer,  Shan-Ping Mao,  Yuezhi Mao,  N. Mardirossian,  
 A. V. Marenich,  T. Markovich,  L. A. Martinez-Martinez,  S. A. Maurer,  
 N. J. Mayhall,  S. C. McKenzie,  J.-M. Mewes,  P. Morgante,  A. F. Morrison,  
 J. W. Mullinax,  K. Nanda,  T. S. Nguyen-Beck,  R. Olivares-Amaya,  
 J. A. Parkhill,  S. K. Paul,  F. Pavosevic,  Zheng Pei,  T. M. Perrine,  
 F. Plasser,  P. Pokhilko,  S. Prager,  A. Prociuk,  E. Ramos,  B. Rana,  
 D. R. Rehn,  F. Rob,  M. Scheurer,  M. Schneider,  N. Sergueev,  
 S. M. Sharada,  S. Sharma,  D. W. Small,  T. Stauch,  C. J. Stein,  
 T. Stein,  Yu-Chuan Su,  S. P. Veccham,  Zhen Tao,  A. J. W. Thom,  
 A. Tkatchenko,  T. Tsuchimochi,  N. M. Tubman,  L. Vogt,  M. L. Vidal,  
 O. Vydrov,  M. A. Watson,  J. Wenzel,  M. de Wergifosse,  T. A. Wesolowski,  
 A. White,  J. Witte,  A. Yamada,  Jun Yang,  K. Yao,  S. Yeganeh,  
 S. R. Yost,  Zhi-Qiang You,  A. Zech,  Igor Ying Zhang,  Xing Zhang,  
 Yan Zhao,  Ying Zhu,  B. R. Brooks,  G. K. L. Chan,  C. J. Cramer,  
 M. S. Gordon,  W. J. Hehre,  A. Klamt,  M. W. Schmidt,  C. D. Sherrill,  
 D. G. Truhlar,  A. Aspuru-Guzik,  R. Baer,  A. T. Bell,  N. A. Besley,  
 Jeng-Da Chai,  A. E. DePrince, III,  R. A. DiStasio Jr.,  A. Dreuw,  
 B. D. Dunietz,  T. R. Furlani,  Chao-Ping Hsu,  Yousung Jung,  Jing Kong,  
 D. S. Lambrecht,  WanZhen Liang,  C. Ochsenfeld,  V. A. Rassolov,  
 L. V. Slipchenko,  J. E. Subotnik,  T. Van Voorhis,  J. M. Herbert,  
 A. I. Krylov,  P. M. W. Gill,  M. Head-Gordon

 Contributors to earlier versions of Q-Chem not listed above: 
 R. D. Adamson,  B. Austin,  J. Baker,  G. J. O. Beran,  K. Brandhorst,  
 S. T. Brown,  E. F. C. Byrd,  A. K. Chakraborty,  C.-L. Cheng,  
 Siu Hung Chien,  D. M. Chipman,  D. L. Crittenden,  H. Dachsel,  
 R. J. Doerksen,  A. D. Dutoi,  L. Fusti-Molnar,  W. A. Goddard III,  
 A. Golubeva-Zadorozhnaya,  S. R. Gwaltney,  G. Hawkins,  A. Heyden,  
 S. Hirata,  G. Kedziora,  F. J. Keil,  C. Kelley,  Jihan Kim,  R. A. King,  
 R. Z. Khaliullin,  P. P. Korambath,  W. Kurlancheek,  A. M. Lee,  M. S. Lee,  
 S. V. Levchenko,  Ching Yeh Lin,  D. Liotard,  R. C. Lochan,  I. Lotan,  
 P. E. Maslen,  N. Nair,  D. P. O'Neill,  D. Neuhauser,  E. Neuscamman,  
 C. M. Oana,  R. Olson,  B. Peters,  R. Peverati,  P. A. Pieniazek,  
 Y. M. Rhee,  J. Ritchie,  M. A. Rohrdanz,  E. Rosta,  N. J. Russ,  
 H. F. Schaefer III,  N. E. Schultz,  N. Shenvi,  A. C. Simmonett,  A. Sodt,  
 D. Stuck,  K. S. Thanthiriwatte,  V. Vanovschi,  Tao Wang,  A. Warshel,  
 C. F. Williams,  Q. Wu,  X. Xu,  W. Zhang

 Please cite Q-Chem as follows:
 Y. Shao et al., Mol. Phys. 113, 184-215 (2015)
 DOI: 10.1080/00268976.2014.952696

 Q-Chem 5.2.2 for Intel X86 EM64T Linux

 Parts of Q-Chem use Armadillo 9.800.1 (Horizon Scraper).
 http://arma.sourceforge.net/

 Q-Chem begins on Sun Aug  8 22:25:16 2021  

Host: node028
0

     Scratch files written to /home/ymao90/scratch/CCX_CO_-20_GLY_6220210808222510//
Symmetry turned off for PCM/SM12/SMD calculation

Checking the input file for inconsistencies... 	...done.

--------------------------------------------------------------
User input:
--------------------------------------------------------------
$molecule
0 1
C      1.9839655798    2.8343873569   -0.6530035790
C      2.0889665948    1.3399289492   -0.2973932582
C      3.4017166944    0.7321441035   -0.8222227424
C      4.6254659785    1.5200300416   -0.3255741318
C      4.5210827926    3.0122209378   -0.6783481608
C      3.2094896156    3.6188525050   -0.1554554411
H      3.4653882129   -0.3186255299   -0.5134835234
H      2.0538505535    1.2303619181    0.7916336585
H      1.9041773336    2.9373830819   -1.7471760654
H      1.0604862058    3.2447823031   -0.2264495779
H      4.7056113531    1.4098609561    0.7662015896
H      5.5416784391    1.0893334561   -0.7496610014
H      5.3807748665    3.5587419877   -0.2692766409
H      4.5659637339    3.1311627355   -1.7719372538
H      3.2192612515    3.6121018079    0.9447339030
H      3.1260878858    4.6703627905   -0.4590864625
H      3.3863457527    0.7409636912   -1.9242196110
N      0.9315723625    0.5939302253   -0.7942938700
H      0.8024957372    0.5217251348   -1.7968919912
C      0.0000000000    0.0000000000    0.0000000000
H     -0.7899738588   -0.5065817117   -0.5873052394
O     -0.0000000000    0.0000000000    1.2238135054
$end

$rem
JOBTYPE  OPT
METHOD  B3LYP
BASIS  6-31+G(D)
SYMMETRY  FALSE
SYM_IGNORE  TRUE
MEM_TOTAL  8000
MEM_STATIC  2000
MAX_SUB_FILE_NUM  16000
BASIS_LIN_DEP_THRESH  6
THRESH  14
SCF_CONVERGENCE  9
GEN_SCFMAN  TRUE
SCF_GUESS  SAD
FD_MAT_VEC_PROD  FALSE
XC_GRID  000099000590
NL_GRID  1
MAX_SCF_CYCLES  200
GEOM_OPT_TOL_GRADIENT  100
GEOM_OPT_TOL_DISPLACEMENT  100
GEOM_OPT_TOL_ENERGY  10
SOLVENT_METHOD       PCM
$end

$PCM
THEORY                     CPCM
METHOD                     SWIG
SOLVER                     INVERSION
HPOINTS                    302
HEAVYPOINTS                302
$END

$SOLVENT
DIELECTRIC                 62.0
$END

$multipole_field
Z   0.003890
$end


--------------------------------------------------------------
 ----------------------------------------------------------------
             Standard Nuclear Orientation (Angstroms)
    I     Atom           X                Y                Z
 ----------------------------------------------------------------
    1      C       1.9839655798     2.8343873569    -0.6530035790
    2      C       2.0889665948     1.3399289492    -0.2973932582
    3      C       3.4017166944     0.7321441035    -0.8222227424
    4      C       4.6254659785     1.5200300416    -0.3255741318
    5      C       4.5210827926     3.0122209378    -0.6783481608
    6      C       3.2094896156     3.6188525050    -0.1554554411
    7      H       3.4653882129    -0.3186255299    -0.5134835234
    8      H       2.0538505535     1.2303619181     0.7916336585
    9      H       1.9041773336     2.9373830819    -1.7471760654
   10      H       1.0604862058     3.2447823031    -0.2264495779
   11      H       4.7056113531     1.4098609561     0.7662015896
   12      H       5.5416784391     1.0893334561    -0.7496610014
   13      H       5.3807748665     3.5587419877    -0.2692766409
   14      H       4.5659637339     3.1311627355    -1.7719372538
   15      H       3.2192612515     3.6121018079     0.9447339030
   16      H       3.1260878858     4.6703627905    -0.4590864625
   17      H       3.3863457527     0.7409636912    -1.9242196110
   18      N       0.9315723625     0.5939302253    -0.7942938700
   19      H       0.8024957372     0.5217251348    -1.7968919912
   20      C       0.0000000000     0.0000000000     0.0000000000
   21      H      -0.7899738588    -0.5065817117    -0.5873052394
   22      O       0.0000000000     0.0000000000     1.2238135054
 ----------------------------------------------------------------
 Nuclear Repulsion Energy =         466.63298041 hartrees
 There are       35 alpha and       35 beta electrons
 Requested basis set is 6-31+G(d)
 There are 71 shells and 197 basis functions

 Total QAlloc Memory Limit   8000 MB
 Mega-Array Size      1956 MB
 MEM_STATIC part      2000 MB
 Discretize the solute cavity surface with Lebedev spheres
	Using 302 Lebedev grid points for each H atom
	Using 302 Lebedev grid points for other atoms
	Atomic van der Waals radii will be scaled by 1.20
 Remove points where switching function is < 1.0e-08
 Keep 2701 surface tesserae and discard 3943 interior tesserae
 Molecular Surface Area = 182.842 Angst**2
 Applying Cartesian multipole field
    Component          Value
    ---------          -----
     (0,0,1)        3.89000E-03
 Nucleus-field energy     =    -0.1536693442 hartrees
 A cutoff of  1.0D-14 yielded   2413 shell pairs
 There are     18998 function pairs
 Smallest overlap matrix eigenvalue = 2.48E-05
 Guess from superposition of atomic densities
 Warning:  Energy on first SCF cycle will be non-variational
 SAD guess density has 70.000000 electrons

 -----------------------------------------------------------------------
  General SCF calculation program by
  Eric Jon Sundstrom, Paul Horn, Yuezhi Mao, Dmitri Zuev, Alec White,
  David Stuck, Shaama M.S., Shane Yost, Joonho Lee, David Small,
  Daniel Levine, Susi Lehtola, Hugh Burton, Evgeny Epifanovsky,
  Bang C. Huynh
 -----------------------------------------------------------------------
 Exchange:     0.2000 Hartree-Fock + 0.0800 Slater + 0.7200 B88
 Correlation:  0.1900 VWN1RPA + 0.8100 LYP
 Using Euler-Maclaurin-Lebedev (99,590) quadrature formula
 using 16 threads for integral computing
 -------------------------------------------------------
 OpenMP Integral computing Module                
 Release: version 2.0, May 2017, Q-Chem Inc. Pleasanton 
 -------------------------------------------------------
 A restricted SCF calculation will be
 performed using DIIS
 SCF converges when DIIS error is below 1.0e-09
 ---------------------------------------
  Cycle       Energy         DIIS error
 ---------------------------------------
    1    -406.2319506887      5.08e-02  
    2    -404.4179910021      6.45e-03  
    3    -404.1890198700      1.01e-02  
    4    -404.5947048934      1.97e-03  
    5    -404.6092578205      5.29e-04  
    6    -404.6103516985      1.55e-04  
    7    -404.6104452758      5.48e-05  
    8    -404.6104578269      9.71e-06  
    9    -404.6104582208      2.34e-06  
   10    -404.6104582442      5.06e-07  
   11    -404.6104582452      1.84e-07  
   12    -404.6104582453      2.29e-08  
   13    -404.6104582453      5.67e-09  
   14    -404.6104582453      2.72e-09  
   15    -404.6104582453      4.36e-10  Convergence criterion met
 ---------------------------------------
 SCF time:   CPU 1056.92s  wall 71.00s 

************** Final PCM Free Energy Summary **************
 G_electrostatic  =      -0.02228116 hartree =     -13.98163610 kcal/mol
 G_cavitation     =       0.00000000 hartree =       0.00000000 kcal/mol
 G_dispersion     =       0.00000000 hartree =       0.00000000 kcal/mol
 G_repulsion      =       0.00000000 hartree =       0.00000000 kcal/mol
 --------------------------------------------------
 Non-electrostatic Free Energy =       0.00000000 hartree =       0.00000000 kcal/mol
 Total                         =      -0.02228116 hartree =     -13.98163610 kcal/mol
 --------------------------------------------------
 SCF Energy (H0 + V/2)                       =    -404.61045825 
 Solute Internal Energy (H0)                 =    -404.58817709 
 Total Free Energy (H0 + V/2 + non-elec)     =    -404.61045825 hartree
                                             = -253896.89461460 kcal/mol
***********************************************************

 SCF   energy in the final basis set =     -404.6104582453
 Total energy in the final basis set =     -404.6104582453
 
 --------------------------------------------------------------
 
                    Orbital Energies (a.u.)
 --------------------------------------------------------------
 
 Alpha MOs
 -- Occupied --
-19.1407 -14.3659 -10.2946 -10.2218 -10.1780 -10.1770 -10.1770 -10.1764
-10.1727  -1.0505  -0.9277  -0.8194  -0.7374  -0.7367  -0.6318  -0.6071
 -0.5876  -0.5600  -0.5220  -0.4823  -0.4593  -0.4384  -0.4354  -0.4206
 -0.4180  -0.3922  -0.3753  -0.3734  -0.3424  -0.3386  -0.3175  -0.3082
 -0.3063  -0.2758  -0.2580
 -- Virtual --
  0.0029   0.0094   0.0205   0.0269   0.0287   0.0438   0.0507   0.0515
  0.0633   0.0734   0.0746   0.0866   0.0883   0.0973   0.1054   0.1114
  0.1170   0.1202   0.1323   0.1363   0.1428   0.1564   0.1614   0.1653
  0.1723   0.1808   0.1864   0.1937   0.2030   0.2069   0.2145   0.2165
  0.2238   0.2300   0.2320   0.2492   0.2515   0.2600   0.2652   0.2759
  0.2767   0.2822   0.2941   0.2952   0.2980   0.3035   0.3150   0.3314
  0.3332   0.3357   0.3613   0.3773   0.3795   0.3925   0.4219   0.4228
  0.4430   0.4634   0.4891   0.6151   0.6433   0.6621   0.6708   0.6717
  0.6876   0.7008   0.7331   0.7373   0.7509   0.7546   0.7789   0.7829
  0.8051   0.8103   0.8261   0.8550   0.8670   0.9117   0.9571   0.9806
  0.9855   0.9959   1.0260   1.0310   1.0325   1.0620   1.0937   1.1143
  1.1256   1.1294   1.1320   1.1445   1.1637   1.1782   1.1868   1.1905
  1.2383   1.2420   1.2775   1.3189   1.3456   1.3707   1.3967   1.4227
  1.4822   1.4906   1.4942   1.5693   1.5759   1.6117   1.7007   1.7344
  1.7385   1.7533   1.7737   1.8035   1.8514   1.8691   1.9060   1.9115
  1.9162   1.9378   1.9879   2.0162   2.0231   2.0502   2.0600   2.0910
  2.0981   2.1322   2.2063   2.2254   2.2786   2.3144   2.3183   2.3540
  2.4050   2.4149   2.4241   2.4276   2.4539   2.5643   2.5910   2.6244
  2.6776   2.6874   2.7082   2.7662   2.7809   2.8383   2.8707   3.0033
  3.1835   4.0953   4.1937   4.2305   4.2997   4.3377   4.4161   4.6081
  4.6133   4.6783
 --------------------------------------------------------------
 
          Ground-State Mulliken Net Atomic Charges

     Atom                 Charge (a.u.)
  ----------------------------------------
      1 C                    -0.266061
      2 C                    -0.409352
      3 C                    -0.286002
      4 C                    -0.464570
      5 C                    -0.364220
      6 C                    -0.469117
      7 H                     0.205382
      8 H                     0.205982
      9 H                     0.234404
     10 H                     0.201838
     11 H                     0.186068
     12 H                     0.211033
     13 H                     0.192318
     14 H                     0.224194
     15 H                     0.185542
     16 H                     0.208367
     17 H                     0.234966
     18 N                    -0.400575
     19 H                     0.467272
     20 C                     0.341290
     21 H                     0.193412
     22 O                    -0.632171
  ----------------------------------------
  Sum of atomic charges =     0.000000

 -----------------------------------------------------------------
                    Cartesian Multipole Moments
 -----------------------------------------------------------------
    Charge (ESU x 10^10)
                 0.0000
    Dipole Moment (Debye)
         X       2.0701      Y       1.3508      Z      -6.4196
       Tot       6.8790
    Quadrupole Moments (Debye-Ang)
        XX     -50.6686     XY       4.0766     YY     -54.3715
        XZ      -4.1935     YZ      -2.8044     ZZ     -56.7284
    Octopole Moments (Debye-Ang^2)
       XXX    -390.6165    XXY     -79.7197    XYY    -129.1290
       YYY    -262.6799    XXZ       2.3300    XYZ      -8.8007
       YYZ       9.8804    XZZ    -127.8445    YZZ     -84.2286
       ZZZ      30.7882
    Hexadecapole Moments (Debye-Ang^3)
      XXXX   -2975.9301   XXXY    -845.3989   XXYY    -742.5745
      XYYY    -857.1431   YYYY   -1512.9274   XXXZ     150.8819
      XXYZ      16.3670   XYYZ      47.4117   YYYZ     100.6448
      XXZZ    -531.1329   XYZZ    -278.7600   YYZZ    -292.8630
      XZZZ     186.0480   YZZZ     111.4648   ZZZZ    -248.7517
 -----------------------------------------------------------------
 Calculating analytic gradient of the SCF energy
 Gradient of SCF Energy
            1           2           3           4           5           6
    1   0.0035243   0.0022370  -0.0008141  -0.0054358  -0.0039457   0.0001801
    2  -0.0031989   0.0016634   0.0042291   0.0024915  -0.0032541  -0.0052082
    3   0.0133726   0.0022751   0.0147513  -0.0005138   0.0087711  -0.0007744
            7           8           9          10          11          12
    1   0.0001535   0.0003033  -0.0003808  -0.0005796   0.0001300   0.0031881
    2  -0.0016295   0.0004106   0.0006630   0.0003746  -0.0001001  -0.0013630
    3  -0.0006817  -0.0045118  -0.0098580  -0.0008814  -0.0009838  -0.0017348
           13          14          15          16          17          18
    1   0.0014520   0.0000819  -0.0000167  -0.0000609  -0.0001983   0.0093973
    2   0.0009039   0.0005408   0.0002725   0.0031146   0.0003535   0.0053985
    3   0.0001534  -0.0069526  -0.0012443  -0.0011957  -0.0103669   0.0038469
           19          20          21          22
    1  -0.0007244  -0.0049942  -0.0039038   0.0004069
    2  -0.0002277  -0.0032134  -0.0025027   0.0002819
    3  -0.0157546   0.0474771  -0.0076532  -0.0275405
 Max gradient component =       4.748E-02
 RMS gradient           =       8.200E-03
 Computing fast CPCM-SWIG gradient
 Updating gradient with PCM contributions...
 -- total gradient after adding PCM contribution --
---------------------------------------------------
  Atom         X              Y              Z     
---------------------------------------------------
   1       0.000350      -0.000373       0.002527
   2      -0.001023      -0.000555       0.000248
   3      -0.000301       0.000323       0.002588
   4       0.000131      -0.000042       0.000343
   5      -0.000102      -0.000086       0.001342
   6       0.000061       0.000050       0.000436
   7      -0.000243       0.000430      -0.000165
   8      -0.001303      -0.000664      -0.000603
   9      -0.000141       0.000636      -0.001541
  10       0.000471      -0.000491      -0.000284
  11       0.000073      -0.000136      -0.001416
  12       0.000445      -0.000044       0.000530
  13      -0.000333      -0.000217      -0.000227
  14       0.000336       0.000303      -0.001055
  15      -0.000211       0.000323      -0.001427
  16       0.000172       0.000236       0.000593
  17       0.000488      -0.000142      -0.001672
  18       0.009043       0.005576      -0.011022
  19       0.000764       0.000437       0.002237
  20      -0.007440      -0.004706       0.038334
  21      -0.002098      -0.001362      -0.001661
  22       0.000862       0.000506      -0.028105
---------------------------------------------------
 Number of fixed atoms: 0
 Gradient time:  CPU 133.67 s  wall 12.14 s
 Geometry Optimization Parameters
   NAtoms,    NIC,     NZ,  NCons,   NDum,   NFix, NCnnct, MaxDiis
       22     172       0       0       0       0       0       0


** GEOMETRY OPTIMIZATION IN DELOCALIZED INTERNAL COORDINATES **
   Searching for a Minimum

   Optimization Cycle:   1

                       Coordinates (Angstroms)
     ATOM                X               Y               Z
      1  C         1.9839655798    2.8343873569   -0.6530035790
      2  C         2.0889665948    1.3399289492   -0.2973932582
      3  C         3.4017166944    0.7321441035   -0.8222227424
      4  C         4.6254659785    1.5200300416   -0.3255741318
      5  C         4.5210827926    3.0122209378   -0.6783481608
      6  C         3.2094896156    3.6188525050   -0.1554554411
      7  H         3.4653882129   -0.3186255299   -0.5134835234
      8  H         2.0538505535    1.2303619181    0.7916336585
      9  H         1.9041773336    2.9373830819   -1.7471760654
     10  H         1.0604862058    3.2447823031   -0.2264495779
     11  H         4.7056113531    1.4098609561    0.7662015896
     12  H         5.5416784391    1.0893334561   -0.7496610014
     13  H         5.3807748665    3.5587419877   -0.2692766409
     14  H         4.5659637339    3.1311627355   -1.7719372538
     15  H         3.2192612515    3.6121018079    0.9447339030
     16  H         3.1260878858    4.6703627905   -0.4590864625
     17  H         3.3863457527    0.7409636912   -1.9242196110
     18  N         0.9315723625    0.5939302253   -0.7942938700
     19  H         0.8024957372    0.5217251348   -1.7968919912
     20  C         0.0000000000    0.0000000000    0.0000000000
     21  H        -0.7899738588   -0.5065817117   -0.5873052394
     22  O         0.0000000000    0.0000000000    1.2238135054
   Point Group: c1    Number of degrees of freedom:    60


   Energy is   -404.610458245


 Attempting to generate delocalized internal coordinates
 Initial Hessian constructed with Jon Baker's OPTIMIZE code

 60 Hessian modes will be used to form the next step
  Hessian Eigenvalues:
     0.005967    0.006024    0.006964    0.007193    0.012605    0.019501
     0.019786    0.020845    0.020845    0.037215    0.038526    0.039417
     0.041724    0.048166    0.048450    0.048891    0.055292    0.055631
     0.055746    0.059934    0.066958    0.081508    0.081536    0.081616
     0.082032    0.082133    0.084029    0.087513    0.120967    0.121178
     0.142989    0.159989    0.160000    0.160554    0.174868    0.210947
     0.220000    0.220003    0.272263    0.272658    0.275535    0.286789
     0.287121    0.287175    0.329119    0.334466    0.334727    0.335769
     0.336541    0.336553    0.339301    0.339441    0.339454    0.340119
     0.340274    0.342312    0.364811    0.454000    0.528079    0.937134

 Minimum search - taking simple RFO step
 Searching for Lamda that Minimizes Along All modes
 Value Taken    Lamda =  -0.00144369
 Step Taken.  Stepsize is  0.071787

                             Maximum     Tolerance    Cnvgd?
         Gradient           0.016170      0.000100      NO
         Displacement       0.029072      0.000100      NO
         Energy change     *********      0.000000      NO


 New Cartesian Coordinates Obtained by Inverse Iteration

 Displacement from previous Coordinates is:  0.103598
 ----------------------------------------------------------------
             Standard Nuclear Orientation (Angstroms)
    I     Atom           X                Y                Z
 ----------------------------------------------------------------
    1      C       1.9836924899     2.8320067183    -0.6515728266
    2      C       2.0930546919     1.3403164350    -0.2873579895
    3      C       3.4013394828     0.7318432138    -0.8215176968
    4      C       4.6251776835     1.5200248057    -0.3263101707
    5      C       4.5196581525     3.0118095264    -0.6797519790
    6      C       3.2085219166     3.6179736892    -0.1555297796
    7      H       3.4684309381    -0.3202517206    -0.5154434735
    8      H       2.0731929067     1.2391175546     0.8036003736
    9      H       1.9052171405     2.9249693300    -1.7442054029
   10      H       1.0593246835     3.2457528614    -0.2274447422
   11      H       4.7091025306     1.4102530101     0.7674560091
   12      H       5.5379044548     1.0898598739    -0.7576008771
   13      H       5.3806176011     3.5599353128    -0.2735301396
   14      H       4.5594640618     3.1277397458    -1.7720649412
   15      H       3.2205566857     3.6134002414     0.9469340239
   16      H       3.1225199928     4.6671802368    -0.4659946518
   17      H       3.3765160176     0.7450749981    -1.9206755299
   18      N       0.9331849402     0.5939487636    -0.7828582122
   19      H       0.8060739280     0.5230911860    -1.7886001735
   20      C       0.0008742085     0.0026386421    -0.0107143589
   21      H      -0.7783418954    -0.4951372641    -0.6108674444
   22      O      -0.0216755266    -0.0084804197     1.2286540891
 ----------------------------------------------------------------
 Nuclear Repulsion Energy =         466.45857744 hartrees
 There are       35 alpha and       35 beta electrons
 Discretize the solute cavity surface with Lebedev spheres
	Using 302 Lebedev grid points for each H atom
	Using 302 Lebedev grid points for other atoms
	Atomic van der Waals radii will be scaled by 1.20
 Remove points where switching function is < 1.0e-08
 Keep 2706 surface tesserae and discard 3938 interior tesserae
 Molecular Surface Area = 182.965 Angst**2
 Applying Cartesian multipole field
    Component          Value
    ---------          -----
     (0,0,1)        3.89000E-03
 Nucleus-field energy     =    -0.1529437192 hartrees
 Requested basis set is 6-31+G(d)
 There are 71 shells and 197 basis functions
 A cutoff of  1.0D-14 yielded   2412 shell pairs
 There are     18997 function pairs
 Smallest overlap matrix eigenvalue = 2.46E-05
 Guess MOs from SCF MO coefficient file

 -----------------------------------------------------------------------
  General SCF calculation program by
  Eric Jon Sundstrom, Paul Horn, Yuezhi Mao, Dmitri Zuev, Alec White,
  David Stuck, Shaama M.S., Shane Yost, Joonho Lee, David Small,
  Daniel Levine, Susi Lehtola, Hugh Burton, Evgeny Epifanovsky,
  Bang C. Huynh
 -----------------------------------------------------------------------
 Exchange:     0.2000 Hartree-Fock + 0.0800 Slater + 0.7200 B88
 Correlation:  0.1900 VWN1RPA + 0.8100 LYP
 Using Euler-Maclaurin-Lebedev (99,590) quadrature formula
 using 16 threads for integral computing
 -------------------------------------------------------
 OpenMP Integral computing Module                
 Release: version 2.0, May 2017, Q-Chem Inc. Pleasanton 
 -------------------------------------------------------
 A restricted SCF calculation will be
 performed using Roothaan-Hall, DIIS
 SCF converges when DIIS error is below 1.0e-09
 ---------------------------------------
  Cycle       Energy         DIIS error
 ---------------------------------------
    1    -404.5875635536      7.47e-04  Roothaan Step
 ---------------------------------------
  Cycle       Energy         DIIS error
 ---------------------------------------
    1    -404.5959362260      1.47e-03  
    2    -404.5745229288      3.10e-03  
    3    -404.6110720153      2.40e-04  
    4    -404.6112826879      1.45e-04  
    5    -404.6113628387      4.64e-05  
    6    -404.6113717232      1.11e-05  
    7    -404.6113721876      4.05e-06  
    8    -404.6113722656      6.58e-07  
    9    -404.6113722674      3.00e-07  
   10    -404.6113722678      5.49e-08  
   11    -404.6113722678      1.55e-08  
   12    -404.6113722678      3.71e-09  
   13    -404.6113722678      4.52e-10  Convergence criterion met
 ---------------------------------------
 SCF time:   CPU 954.20s  wall 64.00s 

************** Final PCM Free Energy Summary **************
 G_electrostatic  =      -0.02394057 hartree =     -15.02293317 kcal/mol
 G_cavitation     =       0.00000000 hartree =       0.00000000 kcal/mol
 G_dispersion     =       0.00000000 hartree =       0.00000000 kcal/mol
 G_repulsion      =       0.00000000 hartree =       0.00000000 kcal/mol
 --------------------------------------------------
 Non-electrostatic Free Energy =       0.00000000 hartree =       0.00000000 kcal/mol
 Total                         =      -0.02394057 hartree =     -15.02293317 kcal/mol
 --------------------------------------------------
 SCF Energy (H0 + V/2)                       =    -404.61137227 
 Solute Internal Energy (H0)                 =    -404.58743170 
 Total Free Energy (H0 + V/2 + non-elec)     =    -404.61137227 hartree
                                             = -253897.46817235 kcal/mol
***********************************************************

 SCF   energy in the final basis set =     -404.6113722678
 Total energy in the final basis set =     -404.6113722678
 
 --------------------------------------------------------------
 
                    Orbital Energies (a.u.)
 --------------------------------------------------------------
 
 Alpha MOs
 -- Occupied --
-19.1388 -14.3689 -10.2941 -10.2232 -10.1784 -10.1774 -10.1774 -10.1768
-10.1727  -1.0421  -0.9306  -0.8208  -0.7393  -0.7372  -0.6335  -0.6074
 -0.5885  -0.5603  -0.5231  -0.4826  -0.4590  -0.4388  -0.4350  -0.4193
 -0.4171  -0.3923  -0.3751  -0.3723  -0.3431  -0.3396  -0.3180  -0.3083
 -0.3064  -0.2746  -0.2595
 -- Virtual --
  0.0026   0.0085   0.0203   0.0269   0.0284   0.0441   0.0506   0.0514
  0.0633   0.0734   0.0745   0.0866   0.0882   0.0967   0.1053   0.1112
  0.1169   0.1202   0.1324   0.1363   0.1427   0.1560   0.1612   0.1651
  0.1721   0.1808   0.1863   0.1936   0.2024   0.2064   0.2137   0.2158
  0.2235   0.2296   0.2318   0.2490   0.2513   0.2599   0.2650   0.2753
  0.2766   0.2829   0.2928   0.2948   0.2980   0.3028   0.3140   0.3308
  0.3338   0.3357   0.3607   0.3775   0.3826   0.3926   0.4218   0.4237
  0.4419   0.4641   0.4838   0.6141   0.6428   0.6612   0.6705   0.6714
  0.6862   0.7004   0.7330   0.7372   0.7502   0.7551   0.7782   0.7807
  0.8034   0.8102   0.8254   0.8548   0.8681   0.9156   0.9586   0.9797
  0.9852   0.9958   1.0260   1.0298   1.0322   1.0619   1.0935   1.1128
  1.1251   1.1292   1.1314   1.1440   1.1630   1.1784   1.1882   1.1922
  1.2386   1.2424   1.2789   1.3200   1.3467   1.3760   1.3940   1.4239
  1.4816   1.4883   1.4963   1.5687   1.5760   1.6132   1.6944   1.7363
  1.7373   1.7530   1.7740   1.8051   1.8529   1.8699   1.9068   1.9108
  1.9158   1.9401   1.9872   2.0134   2.0237   2.0485   2.0601   2.0870
  2.0958   2.1305   2.2058   2.2207   2.2788   2.3162   2.3172   2.3510
  2.3998   2.4150   2.4238   2.4270   2.4516   2.5642   2.5882   2.6205
  2.6775   2.6871   2.7062   2.7668   2.7829   2.8374   2.8668   2.9896
  3.1838   4.0973   4.1929   4.2285   4.2994   4.3369   4.4151   4.6085
  4.6151   4.6782
 --------------------------------------------------------------
 
          Ground-State Mulliken Net Atomic Charges

     Atom                 Charge (a.u.)
  ----------------------------------------
      1 C                    -0.261761
      2 C                    -0.428526
      3 C                    -0.280163
      4 C                    -0.465179
      5 C                    -0.363387
      6 C                    -0.469818
      7 H                     0.206252
      8 H                     0.207396
      9 H                     0.235775
     10 H                     0.202622
     11 H                     0.186129
     12 H                     0.211545
     13 H                     0.192475
     14 H                     0.224729
     15 H                     0.185529
     16 H                     0.208809
     17 H                     0.236253
     18 N                    -0.383982
     19 H                     0.469464
     20 C                     0.343595
     21 H                     0.195245
     22 O                    -0.653001
  ----------------------------------------
  Sum of atomic charges =     0.000000

 -----------------------------------------------------------------
                    Cartesian Multipole Moments
 -----------------------------------------------------------------
    Charge (ESU x 10^10)
                 0.0000
    Dipole Moment (Debye)
         X       2.2713      Y       1.4682      Z      -6.6534
       Tot       7.1821
    Quadrupole Moments (Debye-Ang)
        XX     -50.3917     XY       4.2233     YY     -54.2392
        XZ      -4.2001     YZ      -2.8364     ZZ     -56.7606
    Octopole Moments (Debye-Ang^2)
       XXX    -389.1183    XXY     -79.1683    XYY    -128.6018
       YYY    -261.9943    XXZ       1.8325    XYZ      -8.8972
       YYZ       9.4452    XZZ    -127.3367    YZZ     -83.9606
       ZZZ      29.9194
    Hexadecapole Moments (Debye-Ang^3)
      XXXX   -2971.5313   XXXY    -843.3198   XXYY    -741.0104
      XYYY    -855.9094   YYYY   -1510.4546   XXXZ     149.9222
      XXYZ      16.0653   XYYZ      47.0227   YYYZ      99.7205
      XXZZ    -530.1777   XYZZ    -278.2092   YYZZ    -292.3247
      XZZZ     185.7787   YZZZ     111.0720   ZZZZ    -248.9046
 -----------------------------------------------------------------
 Calculating analytic gradient of the SCF energy
 Gradient of SCF Energy
            1           2           3           4           5           6
    1   0.0038453   0.0028457  -0.0004931  -0.0060910  -0.0041227   0.0000962
    2  -0.0031253   0.0019806   0.0046127   0.0027349  -0.0033860  -0.0058212
    3   0.0116970   0.0020454   0.0131237  -0.0010796   0.0079759  -0.0014836
            7           8           9          10          11          12
    1   0.0003997   0.0018122  -0.0003464  -0.0012364   0.0001421   0.0028694
    2  -0.0023122   0.0012266  -0.0000341   0.0009429   0.0000534  -0.0013938
    3  -0.0005300  -0.0037205  -0.0088241  -0.0005958   0.0006811  -0.0023526
           13          14          15          16          17          18
    1   0.0019351  -0.0002628   0.0002485  -0.0002675  -0.0008511   0.0038070
    2   0.0012282   0.0002553  -0.0000049   0.0030269   0.0004740   0.0020330
    3   0.0004271  -0.0061316   0.0003996  -0.0018503  -0.0092073   0.0099661
           19          20          21          22
    1  -0.0018100  -0.0008554  -0.0014684  -0.0001964
    2  -0.0008081  -0.0008361  -0.0008662   0.0000194
    3  -0.0183351   0.0229251  -0.0077359  -0.0073945
 Max gradient component =       2.293E-02
 RMS gradient           =       5.381E-03
 Computing fast CPCM-SWIG gradient
 Updating gradient with PCM contributions...
 -- total gradient after adding PCM contribution --
---------------------------------------------------
  Atom         X              Y              Z     
---------------------------------------------------
   1       0.000425      -0.000129       0.000300
   2      -0.000753      -0.000510       0.000237
   3       0.000023       0.000417       0.000403
   4      -0.000223       0.000030      -0.000103
   5      -0.000127      -0.000080       0.000235
   6      -0.000052      -0.000274      -0.000121
   7      -0.000020      -0.000045      -0.000030
   8       0.000156       0.000123       0.000137
   9      -0.000082       0.000038      -0.000107
  10      -0.000052       0.000001      -0.000013
  11       0.000092       0.000019       0.000109
  12       0.000031      -0.000007       0.000058
  13       0.000050       0.000044       0.000006
  14       0.000049       0.000037      -0.000002
  15       0.000042       0.000068       0.000101
  16      -0.000000       0.000031       0.000058
  17      -0.000018      -0.000066      -0.000119
  18       0.003473       0.002255      -0.005188
  19      -0.000295      -0.000149       0.000268
  20      -0.003164      -0.002247       0.013344
  21       0.000213       0.000195      -0.001441
  22       0.000233       0.000249      -0.008131
---------------------------------------------------
 Number of fixed atoms: 0
 Gradient time:  CPU 135.62 s  wall 12.21 s
 Geometry Optimization Parameters
   NAtoms,    NIC,     NZ,  NCons,   NDum,   NFix, NCnnct, MaxDiis
       22     172       0       0       0       0       0       0

 Cartesian Hessian Update
 Hessian updated using BFGS update


** GEOMETRY OPTIMIZATION IN DELOCALIZED INTERNAL COORDINATES **
   Searching for a Minimum

   Optimization Cycle:   2

                       Coordinates (Angstroms)
     ATOM                X               Y               Z
      1  C         1.9836924899    2.8320067183   -0.6515728266
      2  C         2.0930546919    1.3403164350   -0.2873579895
      3  C         3.4013394828    0.7318432138   -0.8215176968
      4  C         4.6251776835    1.5200248057   -0.3263101707
      5  C         4.5196581525    3.0118095264   -0.6797519790
      6  C         3.2085219166    3.6179736892   -0.1555297796
      7  H         3.4684309381   -0.3202517206   -0.5154434735
      8  H         2.0731929067    1.2391175546    0.8036003736
      9  H         1.9052171405    2.9249693300   -1.7442054029
     10  H         1.0593246835    3.2457528614   -0.2274447422
     11  H         4.7091025306    1.4102530101    0.7674560091
     12  H         5.5379044548    1.0898598739   -0.7576008771
     13  H         5.3806176011    3.5599353128   -0.2735301396
     14  H         4.5594640618    3.1277397458   -1.7720649412
     15  H         3.2205566857    3.6134002414    0.9469340239
     16  H         3.1225199928    4.6671802368   -0.4659946518
     17  H         3.3765160176    0.7450749981   -1.9206755299
     18  N         0.9331849402    0.5939487636   -0.7828582122
     19  H         0.8060739280    0.5230911860   -1.7886001735
     20  C         0.0008742085    0.0026386421   -0.0107143589
     21  H        -0.7783418954   -0.4951372641   -0.6108674444
     22  O        -0.0216755266   -0.0084804197    1.2286540891
   Point Group: c1    Number of degrees of freedom:    60


   Energy is   -404.611372268

 Hessian updated using BFGS update

 60 Hessian modes will be used to form the next step
  Hessian Eigenvalues:
     0.005966    0.006015    0.006964    0.007194    0.012605    0.019500
     0.019786    0.020845    0.020858    0.037305    0.038614    0.039416
     0.041876    0.048448    0.048462    0.048924    0.055293    0.055725
     0.055873    0.060223    0.066958    0.081528    0.081571    0.081646
     0.082031    0.082133    0.084103    0.087512    0.120967    0.121101
     0.142965    0.156084    0.160070    0.163320    0.174883    0.210507
     0.212599    0.224342    0.272248    0.272639    0.275535    0.286837
     0.287132    0.287263    0.328210    0.334538    0.334841    0.335811
     0.336547    0.338300    0.339433    0.339438    0.339500    0.340167
     0.340859    0.342920    0.364484    0.444553    0.457876    0.803693

 Minimum search - taking simple RFO step
 Searching for Lamda that Minimizes Along All modes
 Value Taken    Lamda =  -0.00024633
 Step Taken.  Stepsize is  0.038971

                             Maximum     Tolerance    Cnvgd?
         Gradient           0.005867      0.000100      NO
         Displacement       0.022877      0.000100      NO
         Energy change     -0.000914      0.000000      NO


 New Cartesian Coordinates Obtained by Inverse Iteration

 Displacement from previous Coordinates is:  0.036252
 ----------------------------------------------------------------
             Standard Nuclear Orientation (Angstroms)
    I     Atom           X                Y                Z
 ----------------------------------------------------------------
    1      C       1.9834427744     2.8326593219    -0.6544009924
    2      C       2.0940792122     1.3416080302    -0.2865841037
    3      C       3.4007538233     0.7318098544    -0.8243617237
    4      C       4.6245993539     1.5188401267    -0.3268736299
    5      C       4.5200782939     3.0117231914    -0.6780022143
    6      C       3.2076787745     3.6187725330    -0.1564395082
    7      H       3.4675769753    -0.3208598798    -0.5203087043
    8      H       2.0758133340     1.2411731050     0.8042299599
    9      H       1.9082160923     2.9232041139    -1.7470412551
   10      H       1.0582965019     3.2471240495    -0.2327178109
   11      H       4.7059640202     1.4068354601     0.7668390370
   12      H       5.5375120913     1.0889362287    -0.7578694475
   13      H       5.3800490341     3.5584937511    -0.2679767580
   14      H       4.5628160275     3.1292702920    -1.7697890654
   15      H       3.2167896813     3.6133957433     0.9460552408
   16      H       3.1225153726     4.6678415107    -0.4673889949
   17      H       3.3753623430     0.7485126115    -1.9230176816
   18      N       0.9319432351     0.5942435652    -0.7770361810
   19      H       0.8081301552     0.5247290071    -1.7839007072
   20      C       0.0015710357     0.0048301382    -0.0145736394
   21      H      -0.7789166396    -0.4978109722    -0.6063383319
   22      O      -0.0198644071    -0.0122650416     1.2321006183
 ----------------------------------------------------------------
 Nuclear Repulsion Energy =         466.41935307 hartrees
 There are       35 alpha and       35 beta electrons
 Discretize the solute cavity surface with Lebedev spheres
	Using 302 Lebedev grid points for each H atom
	Using 302 Lebedev grid points for other atoms
	Atomic van der Waals radii will be scaled by 1.20
 Remove points where switching function is < 1.0e-08
 Keep 2704 surface tesserae and discard 3940 interior tesserae
 Molecular Surface Area = 182.994 Angst**2
 Applying Cartesian multipole field
    Component          Value
    ---------          -----
     (0,0,1)        3.89000E-03
 Nucleus-field energy     =    -0.1528213036 hartrees
 Requested basis set is 6-31+G(d)
 There are 71 shells and 197 basis functions
 A cutoff of  1.0D-14 yielded   2412 shell pairs
 There are     18997 function pairs
 Smallest overlap matrix eigenvalue = 2.46E-05
 Guess MOs from SCF MO coefficient file

 -----------------------------------------------------------------------
  General SCF calculation program by
  Eric Jon Sundstrom, Paul Horn, Yuezhi Mao, Dmitri Zuev, Alec White,
  David Stuck, Shaama M.S., Shane Yost, Joonho Lee, David Small,
  Daniel Levine, Susi Lehtola, Hugh Burton, Evgeny Epifanovsky,
  Bang C. Huynh
 -----------------------------------------------------------------------
 Exchange:     0.2000 Hartree-Fock + 0.0800 Slater + 0.7200 B88
 Correlation:  0.1900 VWN1RPA + 0.8100 LYP
 Using Euler-Maclaurin-Lebedev (99,590) quadrature formula
 using 16 threads for integral computing
 -------------------------------------------------------
 OpenMP Integral computing Module                
 Release: version 2.0, May 2017, Q-Chem Inc. Pleasanton 
 -------------------------------------------------------
 A restricted SCF calculation will be
 performed using Roothaan-Hall, DIIS
 SCF converges when DIIS error is below 1.0e-09
 ---------------------------------------
  Cycle       Energy         DIIS error
 ---------------------------------------
    1    -404.5871103513      7.19e-04  Roothaan Step
 ---------------------------------------
  Cycle       Energy         DIIS error
 ---------------------------------------
    1    -404.5955294325      1.49e-03  
    2    -404.5734798112      3.15e-03  
    3    -404.6111859565      2.42e-04  
    4    -404.6114099093      1.41e-04  
    5    -404.6114846737      4.80e-05  
    6    -404.6114941668      1.11e-05  
    7    -404.6114946250      4.05e-06  
    8    -404.6114947031      6.63e-07  
    9    -404.6114947050      2.97e-07  
   10    -404.6114947054      5.76e-08  
   11    -404.6114947054      1.49e-08  
   12    -404.6114947054      3.93e-09  
   13    -404.6114947054      4.56e-10  Convergence criterion met
 ---------------------------------------
 SCF time:   CPU 950.47s  wall 64.00s 

************** Final PCM Free Energy Summary **************
 G_electrostatic  =      -0.02468323 hartree =     -15.48896231 kcal/mol
 G_cavitation     =       0.00000000 hartree =       0.00000000 kcal/mol
 G_dispersion     =       0.00000000 hartree =       0.00000000 kcal/mol
 G_repulsion      =       0.00000000 hartree =       0.00000000 kcal/mol
 --------------------------------------------------
 Non-electrostatic Free Energy =       0.00000000 hartree =       0.00000000 kcal/mol
 Total                         =      -0.02468323 hartree =     -15.48896231 kcal/mol
 --------------------------------------------------
 SCF Energy (H0 + V/2)                       =    -404.61149471 
 Solute Internal Energy (H0)                 =    -404.58681147 
 Total Free Energy (H0 + V/2 + non-elec)     =    -404.61149471 hartree
                                             = -253897.54500309 kcal/mol
***********************************************************

 SCF   energy in the final basis set =     -404.6114947054
 Total energy in the final basis set =     -404.6114947054
 
 --------------------------------------------------------------
 
                    Orbital Energies (a.u.)
 --------------------------------------------------------------
 
 Alpha MOs
 -- Occupied --
-19.1374 -14.3702 -10.2938 -10.2238 -10.1786 -10.1778 -10.1776 -10.1771
-10.1728  -1.0385  -0.9318  -0.8213  -0.7400  -0.7374  -0.6344  -0.6075
 -0.5891  -0.5606  -0.5240  -0.4829  -0.4587  -0.4392  -0.4348  -0.4182
 -0.4166  -0.3923  -0.3752  -0.3715  -0.3434  -0.3398  -0.3181  -0.3086
 -0.3065  -0.2736  -0.2601
 -- Virtual --
  0.0025   0.0083   0.0202   0.0269   0.0283   0.0441   0.0506   0.0514
  0.0633   0.0733   0.0745   0.0866   0.0883   0.0966   0.1052   0.1111
  0.1169   0.1202   0.1325   0.1364   0.1428   0.1559   0.1612   0.1651
  0.1720   0.1803   0.1862   0.1936   0.2023   0.2062   0.2132   0.2156
  0.2234   0.2296   0.2315   0.2488   0.2512   0.2598   0.2649   0.2753
  0.2766   0.2825   0.2924   0.2948   0.2979   0.3028   0.3135   0.3305
  0.3344   0.3360   0.3602   0.3774   0.3840   0.3927   0.4215   0.4249
  0.4415   0.4644   0.4815   0.6135   0.6428   0.6610   0.6704   0.6715
  0.6859   0.7002   0.7329   0.7370   0.7503   0.7551   0.7775   0.7801
  0.8029   0.8100   0.8248   0.8549   0.8689   0.9162   0.9577   0.9797
  0.9852   0.9959   1.0259   1.0295   1.0322   1.0616   1.0936   1.1125
  1.1249   1.1292   1.1311   1.1435   1.1629   1.1781   1.1885   1.1921
  1.2386   1.2432   1.2792   1.3210   1.3474   1.3767   1.3931   1.4237
  1.4805   1.4883   1.4971   1.5680   1.5753   1.6142   1.6945   1.7358
  1.7370   1.7535   1.7741   1.8057   1.8529   1.8708   1.9065   1.9099
  1.9161   1.9397   1.9870   2.0130   2.0241   2.0485   2.0601   2.0860
  2.0945   2.1311   2.2050   2.2189   2.2805   2.3173   2.3174   2.3493
  2.3967   2.4143   2.4228   2.4268   2.4507   2.5623   2.5880   2.6183
  2.6770   2.6864   2.7066   2.7665   2.7856   2.8369   2.8632   2.9835
  3.1857   4.0981   4.1922   4.2277   4.2992   4.3365   4.4132   4.6087
  4.6152   4.6777
 --------------------------------------------------------------
 
          Ground-State Mulliken Net Atomic Charges

     Atom                 Charge (a.u.)
  ----------------------------------------
      1 C                    -0.259675
      2 C                    -0.435835
      3 C                    -0.278747
      4 C                    -0.464605
      5 C                    -0.363731
      6 C                    -0.469357
      7 H                     0.206747
      8 H                     0.207986
      9 H                     0.236267
     10 H                     0.203099
     11 H                     0.186331
     12 H                     0.211775
     13 H                     0.192538
     14 H                     0.224893
     15 H                     0.185708
     16 H                     0.209045
     17 H                     0.236773
     18 N                    -0.376906
     19 H                     0.470047
     20 C                     0.343275
     21 H                     0.197157
     22 O                    -0.662784
  ----------------------------------------
  Sum of atomic charges =     0.000000

 -----------------------------------------------------------------
                    Cartesian Multipole Moments
 -----------------------------------------------------------------
    Charge (ESU x 10^10)
                 0.0000
    Dipole Moment (Debye)
         X       2.3316      Y       1.5196      Z      -6.7603
       Tot       7.3108
    Quadrupole Moments (Debye-Ang)
        XX     -50.2125     XY       4.3104     YY     -54.1403
        XZ      -4.2593     YZ      -2.8480     ZZ     -56.8364
    Octopole Moments (Debye-Ang^2)
       XXX    -388.3743    XXY     -78.9207    XYY    -128.3434
       YYY    -261.5815    XXZ       1.5954    XYZ      -8.9550
       YYZ       9.2705    XZZ    -127.2060    YZZ     -83.8594
       ZZZ      29.5931
    Hexadecapole Moments (Debye-Ang^3)
      XXXX   -2967.7988   XXXY    -842.2880   XXYY    -740.1594
      XYYY    -854.9346   YYYY   -1509.1870   XXXZ     149.4044
      XXYZ      15.9509   XYYZ      46.8484   YYYZ      99.6513
      XXZZ    -529.7699   XYZZ    -277.9710   YYZZ    -292.2607
      XZZZ     185.6370   YZZZ     111.1699   ZZZZ    -249.4930
 -----------------------------------------------------------------
 Calculating analytic gradient of the SCF energy
 Gradient of SCF Energy
            1           2           3           4           5           6
    1   0.0036946   0.0033838  -0.0002994  -0.0059638  -0.0040681   0.0000569
    2  -0.0029755   0.0023409   0.0044579   0.0026572  -0.0033573  -0.0055997
    3   0.0115169   0.0015604   0.0128476  -0.0011423   0.0078468  -0.0015376
            7           8           9          10          11          12
    1   0.0004324   0.0015972  -0.0002147  -0.0013344   0.0000073   0.0028952
    2  -0.0024146   0.0010746  -0.0000735   0.0010171   0.0000152  -0.0014476
    3  -0.0005013  -0.0039137  -0.0087574  -0.0005663   0.0007270  -0.0024162
           13          14          15          16          17          18
    1   0.0019360  -0.0002944   0.0001788  -0.0003067  -0.0008044   0.0006254
    2   0.0012183   0.0002275  -0.0001211   0.0030856   0.0005806  -0.0002655
    3   0.0005164  -0.0060929   0.0004553  -0.0019081  -0.0091270   0.0157881
           19          20          21          22
    1  -0.0016096   0.0016409  -0.0014660  -0.0000871
    2  -0.0008006   0.0021378  -0.0013175  -0.0004398
    3  -0.0188431   0.0099064  -0.0066328   0.0002739
 Max gradient component =       1.884E-02
 RMS gradient           =       4.847E-03
 Computing fast CPCM-SWIG gradient
 Updating gradient with PCM contributions...
 -- total gradient after adding PCM contribution --
---------------------------------------------------
  Atom         X              Y              Z     
---------------------------------------------------
   1       0.000182       0.000112      -0.000092
   2      -0.000294      -0.000225      -0.000246
   3       0.000209       0.000162      -0.000079
   4       0.000013      -0.000109      -0.000118
   5       0.000015       0.000012       0.000013
   6      -0.000096       0.000065      -0.000113
   7       0.000008      -0.000064       0.000002
   8      -0.000087      -0.000058       0.000002
   9       0.000034       0.000013       0.000117
  10      -0.000074       0.000039       0.000007
  11      -0.000038      -0.000013       0.000130
  12       0.000002      -0.000032       0.000034
  13       0.000021       0.000016       0.000071
  14       0.000010      -0.000001       0.000122
  15      -0.000024      -0.000044       0.000131
  16      -0.000032       0.000025       0.000034
  17       0.000042       0.000007       0.000118
  18       0.000343      -0.000036       0.000551
  19      -0.000158      -0.000163      -0.000046
  20      -0.000658       0.000752       0.000281
  21       0.000228      -0.000240      -0.000258
  22       0.000354      -0.000218      -0.000660
---------------------------------------------------
 Number of fixed atoms: 0
 Gradient time:  CPU 134.86 s  wall 12.25 s
 Geometry Optimization Parameters
   NAtoms,    NIC,     NZ,  NCons,   NDum,   NFix, NCnnct, MaxDiis
       22     172       0       0       0       0       0       0

 Cartesian Hessian Update
 Hessian updated using BFGS update


** GEOMETRY OPTIMIZATION IN DELOCALIZED INTERNAL COORDINATES **
   Searching for a Minimum

   Optimization Cycle:   3

                       Coordinates (Angstroms)
     ATOM                X               Y               Z
      1  C         1.9834427744    2.8326593219   -0.6544009924
      2  C         2.0940792122    1.3416080302   -0.2865841037
      3  C         3.4007538233    0.7318098544   -0.8243617237
      4  C         4.6245993539    1.5188401267   -0.3268736299
      5  C         4.5200782939    3.0117231914   -0.6780022143
      6  C         3.2076787745    3.6187725330   -0.1564395082
      7  H         3.4675769753   -0.3208598798   -0.5203087043
      8  H         2.0758133340    1.2411731050    0.8042299599
      9  H         1.9082160923    2.9232041139   -1.7470412551
     10  H         1.0582965019    3.2471240495   -0.2327178109
     11  H         4.7059640202    1.4068354601    0.7668390370
     12  H         5.5375120913    1.0889362287   -0.7578694475
     13  H         5.3800490341    3.5584937511   -0.2679767580
     14  H         4.5628160275    3.1292702920   -1.7697890654
     15  H         3.2167896813    3.6133957433    0.9460552408
     16  H         3.1225153726    4.6678415107   -0.4673889949
     17  H         3.3753623430    0.7485126115   -1.9230176816
     18  N         0.9319432351    0.5942435652   -0.7770361810
     19  H         0.8081301552    0.5247290071   -1.7839007072
     20  C         0.0015710357    0.0048301382   -0.0145736394
     21  H        -0.7789166396   -0.4978109722   -0.6063383319
     22  O        -0.0198644071   -0.0122650416    1.2321006183
   Point Group: c1    Number of degrees of freedom:    60


   Energy is   -404.611494705

 Hessian updated using BFGS update

 60 Hessian modes will be used to form the next step
  Hessian Eigenvalues:
     0.005966    0.006010    0.006966    0.007193    0.012608    0.019498
     0.019782    0.020829    0.021879    0.037313    0.038567    0.039418
     0.041829    0.048449    0.048560    0.048917    0.055293    0.055726
     0.056046    0.060223    0.066957    0.081529    0.081574    0.081651
     0.082056    0.082136    0.084007    0.087513    0.120966    0.120996
     0.142987    0.148161    0.160381    0.162366    0.174878    0.210489
     0.217408    0.226251    0.272353    0.272752    0.275535    0.286941
     0.287007    0.288218    0.327621    0.334566    0.335046    0.335862
     0.336547    0.338387    0.339415    0.339434    0.339504    0.340166
     0.340872    0.342725    0.363484    0.451037    0.461298    0.773423

 Minimum search - taking simple RFO step
 Searching for Lamda that Minimizes Along All modes
 Value Taken    Lamda =  -0.00002490
 Step Taken.  Stepsize is  0.031799

                             Maximum     Tolerance    Cnvgd?
         Gradient           0.000551      0.000100      NO
         Displacement       0.024628      0.000100      NO
         Energy change     -0.000122      0.000000      NO


 New Cartesian Coordinates Obtained by Inverse Iteration

 Displacement from previous Coordinates is:  0.037324
 ----------------------------------------------------------------
             Standard Nuclear Orientation (Angstroms)
    I     Atom           X                Y                Z
 ----------------------------------------------------------------
    1      C       1.9829546083     2.8304018709    -0.6538505033
    2      C       2.0957703093     1.3397354855    -0.2860180585
    3      C       3.4022707807     0.7313205815    -0.8251701580
    4      C       4.6255317838     1.5195172471    -0.3275792865
    5      C       4.5194679873     3.0123708912    -0.6779775965
    6      C       3.2065939439     3.6176882964    -0.1558420025
    7      H       3.4702774053    -0.3213588214    -0.5218018186
    8      H       2.0783680838     1.2390636849     0.8047209523
    9      H       1.9074539867     2.9208667767    -1.7466305068
   10      H       1.0575455322     3.2435967629    -0.2318450863
   11      H       4.7073747417     1.4069206601     0.7658776286
   12      H       5.5388582681     1.0910568260    -0.7590611576
   13      H       5.3788009355     3.5596822591    -0.2674728643
   14      H       4.5621398175     3.1306918712    -1.7697791858
   15      H       3.2158772263     3.6120877762     0.9464853117
   16      H       3.1204829410     4.6667188373    -0.4664828981
   17      H       3.3761216775     0.7489300153    -1.9239424608
   18      N       0.9342159517     0.5911051186    -0.7769888469
   19      H       0.8118422859     0.5233303783    -1.7841674225
   20      C       0.0041991870     0.0013311730    -0.0151476534
   21      H      -0.7847207325    -0.4895609120    -0.6052200955
   22      O      -0.0270196358    -0.0024300382     1.2324978157
 ----------------------------------------------------------------
 Nuclear Repulsion Energy =         466.41702417 hartrees
 There are       35 alpha and       35 beta electrons
 Discretize the solute cavity surface with Lebedev spheres
	Using 302 Lebedev grid points for each H atom
	Using 302 Lebedev grid points for other atoms
	Atomic van der Waals radii will be scaled by 1.20
 Remove points where switching function is < 1.0e-08
 Keep 2705 surface tesserae and discard 3939 interior tesserae
 Molecular Surface Area = 182.985 Angst**2
 Applying Cartesian multipole field
    Component          Value
    ---------          -----
     (0,0,1)        3.89000E-03
 Nucleus-field energy     =    -0.1528116212 hartrees
 Requested basis set is 6-31+G(d)
 There are 71 shells and 197 basis functions
 A cutoff of  1.0D-14 yielded   2412 shell pairs
 There are     18997 function pairs
 Smallest overlap matrix eigenvalue = 2.46E-05
 Guess MOs from SCF MO coefficient file

 -----------------------------------------------------------------------
  General SCF calculation program by
  Eric Jon Sundstrom, Paul Horn, Yuezhi Mao, Dmitri Zuev, Alec White,
  David Stuck, Shaama M.S., Shane Yost, Joonho Lee, David Small,
  Daniel Levine, Susi Lehtola, Hugh Burton, Evgeny Epifanovsky,
  Bang C. Huynh
 -----------------------------------------------------------------------
 Exchange:     0.2000 Hartree-Fock + 0.0800 Slater + 0.7200 B88
 Correlation:  0.1900 VWN1RPA + 0.8100 LYP
 Using Euler-Maclaurin-Lebedev (99,590) quadrature formula
 using 16 threads for integral computing
 -------------------------------------------------------
 OpenMP Integral computing Module                
 Release: version 2.0, May 2017, Q-Chem Inc. Pleasanton 
 -------------------------------------------------------
 A restricted SCF calculation will be
 performed using Roothaan-Hall, DIIS
 SCF converges when DIIS error is below 1.0e-09
 ---------------------------------------
  Cycle       Energy         DIIS error
 ---------------------------------------
    1    -404.5866337099      7.33e-04  Roothaan Step
 ---------------------------------------
  Cycle       Energy         DIIS error
 ---------------------------------------
    1    -404.5957451578      1.46e-03  
    2    -404.5750055999      3.08e-03  
    3    -404.6111725041      2.39e-04  
    4    -404.6113933792      1.39e-04  
    5    -404.6114652601      4.85e-05  
    6    -404.6114748956      1.13e-05  
    7    -404.6114753686      4.12e-06  
    8    -404.6114754495      6.79e-07  
    9    -404.6114754515      3.03e-07  
   10    -404.6114754519      5.83e-08  
   11    -404.6114754519      1.51e-08  
   12    -404.6114754519      3.99e-09  
   13    -404.6114754519      4.63e-10  Convergence criterion met
 ---------------------------------------
 SCF time:   CPU 948.93s  wall 63.00s 

************** Final PCM Free Energy Summary **************
 G_electrostatic  =      -0.02476783 hartree =     -15.54204974 kcal/mol
 G_cavitation     =       0.00000000 hartree =       0.00000000 kcal/mol
 G_dispersion     =       0.00000000 hartree =       0.00000000 kcal/mol
 G_repulsion      =       0.00000000 hartree =       0.00000000 kcal/mol
 --------------------------------------------------
 Non-electrostatic Free Energy =       0.00000000 hartree =       0.00000000 kcal/mol
 Total                         =      -0.02476783 hartree =     -15.54204974 kcal/mol
 --------------------------------------------------
 SCF Energy (H0 + V/2)                       =    -404.61147545 
 Solute Internal Energy (H0)                 =    -404.58670762 
 Total Free Energy (H0 + V/2 + non-elec)     =    -404.61147545 hartree
                                             = -253897.53292135 kcal/mol
***********************************************************

 SCF   energy in the final basis set =     -404.6114754519
 Total energy in the final basis set =     -404.6114754519
 
 --------------------------------------------------------------
 
                    Orbital Energies (a.u.)
 --------------------------------------------------------------
 
 Alpha MOs
 -- Occupied --
-19.1373 -14.3704 -10.2939 -10.2239 -10.1786 -10.1778 -10.1776 -10.1771
-10.1728  -1.0380  -0.9319  -0.8214  -0.7401  -0.7374  -0.6344  -0.6076
 -0.5892  -0.5606  -0.5241  -0.4829  -0.4587  -0.4392  -0.4348  -0.4183
 -0.4164  -0.3923  -0.3752  -0.3714  -0.3435  -0.3399  -0.3182  -0.3086
 -0.3065  -0.2735  -0.2602
 -- Virtual --
  0.0025   0.0081   0.0202   0.0269   0.0283   0.0441   0.0506   0.0514
  0.0633   0.0733   0.0745   0.0865   0.0883   0.0966   0.1052   0.1111
  0.1169   0.1202   0.1325   0.1364   0.1429   0.1560   0.1611   0.1651
  0.1720   0.1802   0.1862   0.1936   0.2021   0.2062   0.2132   0.2157
  0.2234   0.2296   0.2315   0.2488   0.2512   0.2597   0.2648   0.2751
  0.2766   0.2825   0.2924   0.2948   0.2979   0.3027   0.3134   0.3305
  0.3344   0.3361   0.3602   0.3774   0.3842   0.3927   0.4215   0.4250
  0.4413   0.4644   0.4813   0.6135   0.6428   0.6609   0.6703   0.6714
  0.6858   0.7003   0.7330   0.7370   0.7494   0.7556   0.7772   0.7805
  0.8027   0.8101   0.8246   0.8552   0.8690   0.9165   0.9575   0.9797
  0.9852   0.9959   1.0259   1.0296   1.0321   1.0617   1.0936   1.1126
  1.1248   1.1291   1.1312   1.1434   1.1630   1.1781   1.1885   1.1923
  1.2390   1.2425   1.2794   1.3212   1.3475   1.3764   1.3927   1.4235
  1.4827   1.4855   1.4974   1.5689   1.5749   1.6141   1.6941   1.7359
  1.7371   1.7536   1.7739   1.8059   1.8522   1.8716   1.9063   1.9101
  1.9161   1.9396   1.9870   2.0128   2.0241   2.0485   2.0602   2.0860
  2.0942   2.1309   2.2051   2.2185   2.2805   2.3148   2.3187   2.3493
  2.3963   2.4143   2.4228   2.4269   2.4507   2.5620   2.5880   2.6180
  2.6769   2.6862   2.7066   2.7667   2.7855   2.8367   2.8628   2.9822
  3.1855   4.0982   4.1921   4.2275   4.2992   4.3365   4.4130   4.6088
  4.6154   4.6776
 --------------------------------------------------------------
 
          Ground-State Mulliken Net Atomic Charges

     Atom                 Charge (a.u.)
  ----------------------------------------
      1 C                    -0.260301
      2 C                    -0.436792
      3 C                    -0.277279
      4 C                    -0.464678
      5 C                    -0.363805
      6 C                    -0.469409
      7 H                     0.206826
      8 H                     0.208118
      9 H                     0.236335
     10 H                     0.203209
     11 H                     0.186402
     12 H                     0.211760
     13 H                     0.192556
     14 H                     0.224905
     15 H                     0.185800
     16 H                     0.209064
     17 H                     0.236760
     18 N                    -0.376576
     19 H                     0.470364
     20 C                     0.343005
     21 H                     0.197327
     22 O                    -0.663591
  ----------------------------------------
  Sum of atomic charges =     0.000000

 -----------------------------------------------------------------
                    Cartesian Multipole Moments
 -----------------------------------------------------------------
    Charge (ESU x 10^10)
                -0.0000
    Dipole Moment (Debye)
         X       2.3597      Y       1.5001      Z      -6.7707
       Tot       7.3254
    Quadrupole Moments (Debye-Ang)
        XX     -50.1885     XY       4.3241     YY     -54.1336
        XZ      -4.2318     YZ      -2.8986     ZZ     -56.8391
    Octopole Moments (Debye-Ang^2)
       XXX    -388.3035    XXY     -78.8708    XYY    -128.2904
       YYY    -261.5344    XXZ       1.5848    XYZ      -8.9516
       YYZ       9.2692    XZZ    -127.1356    YZZ     -83.8825
       ZZZ      29.5454
    Hexadecapole Moments (Debye-Ang^3)
      XXXX   -2968.2422   XXXY    -841.8467   XXYY    -739.9467
      XYYY    -854.5921   YYYY   -1508.0598   XXXZ     149.7475
      XXYZ      15.8375   XYYZ      46.9578   YYYZ      99.3030
      XXZZ    -529.8107   XYZZ    -277.8511   YYZZ    -292.0848
      XZZZ     185.8748   YZZZ     110.7534   ZZZZ    -249.5601
 -----------------------------------------------------------------
 Calculating analytic gradient of the SCF energy
 Gradient of SCF Energy
            1           2           3           4           5           6
    1   0.0035905   0.0035118  -0.0005223  -0.0060256  -0.0040534   0.0001201
    2  -0.0030117   0.0026308   0.0043126   0.0027655  -0.0033642  -0.0056467
    3   0.0115750   0.0016986   0.0129086  -0.0010083   0.0078682  -0.0013863
            7           8           9          10          11          12
    1   0.0004248   0.0016647  -0.0002201  -0.0012484   0.0000119   0.0028948
    2  -0.0023983   0.0010746  -0.0000813   0.0009610   0.0000080  -0.0014107
    3  -0.0004961  -0.0039263  -0.0088864  -0.0006002   0.0006538  -0.0024145
           13          14          15          16          17          18
    1   0.0019100  -0.0002834   0.0001800  -0.0002669  -0.0008287  -0.0000674
    2   0.0011968   0.0002426  -0.0001038   0.0030513   0.0005983   0.0001063
    3   0.0005277  -0.0061713   0.0003640  -0.0019018  -0.0092525   0.0157228
           19          20          21          22
    1  -0.0015137   0.0040398  -0.0022409  -0.0010773
    2  -0.0004236  -0.0008674  -0.0002449   0.0006049
    3  -0.0189211   0.0085756  -0.0063599   0.0014306
 Max gradient component =       1.892E-02
 RMS gradient           =       4.841E-03
 Computing fast CPCM-SWIG gradient
 Updating gradient with PCM contributions...
 -- total gradient after adding PCM contribution --
---------------------------------------------------
  Atom         X              Y              Z     
---------------------------------------------------
   1       0.000071       0.000053      -0.000044
   2      -0.000177       0.000051      -0.000097
   3       0.000022      -0.000024      -0.000075
   4      -0.000010      -0.000014       0.000049
   5       0.000035       0.000024       0.000023
   6      -0.000032       0.000023       0.000033
   7       0.000001      -0.000007      -0.000007
   8      -0.000028      -0.000038      -0.000023
   9       0.000029       0.000009       0.000014
  10      -0.000013      -0.000009      -0.000007
  11      -0.000033      -0.000014       0.000038
  12      -0.000010       0.000005       0.000042
  13      -0.000009      -0.000008       0.000077
  14       0.000020       0.000011       0.000055
  15      -0.000028      -0.000027       0.000041
  16       0.000005      -0.000009       0.000041
  17       0.000029       0.000020       0.000018
  18      -0.000361       0.000395       0.000467
  19      -0.000081       0.000151      -0.000089
  20       0.001789      -0.002262      -0.001066
  21      -0.000536       0.000801       0.000014
  22      -0.000683       0.000868       0.000496
---------------------------------------------------
 Number of fixed atoms: 0
 Gradient time:  CPU 135.90 s  wall 12.33 s
 Geometry Optimization Parameters
   NAtoms,    NIC,     NZ,  NCons,   NDum,   NFix, NCnnct, MaxDiis
       22     172       0       0       0       0       0       0

 Cartesian Hessian Update
 Hessian updated using BFGS update


** GEOMETRY OPTIMIZATION IN DELOCALIZED INTERNAL COORDINATES **
   Searching for a Minimum

   Optimization Cycle:   4

                       Coordinates (Angstroms)
     ATOM                X               Y               Z
      1  C         1.9829546083    2.8304018709   -0.6538505033
      2  C         2.0957703093    1.3397354855   -0.2860180585
      3  C         3.4022707807    0.7313205815   -0.8251701580
      4  C         4.6255317838    1.5195172471   -0.3275792865
      5  C         4.5194679873    3.0123708912   -0.6779775965
      6  C         3.2065939439    3.6176882964   -0.1558420025
      7  H         3.4702774053   -0.3213588214   -0.5218018186
      8  H         2.0783680838    1.2390636849    0.8047209523
      9  H         1.9074539867    2.9208667767   -1.7466305068
     10  H         1.0575455322    3.2435967629   -0.2318450863
     11  H         4.7073747417    1.4069206601    0.7658776286
     12  H         5.5388582681    1.0910568260   -0.7590611576
     13  H         5.3788009355    3.5596822591   -0.2674728643
     14  H         4.5621398175    3.1306918712   -1.7697791858
     15  H         3.2158772263    3.6120877762    0.9464853117
     16  H         3.1204829410    4.6667188373   -0.4664828981
     17  H         3.3761216775    0.7489300153   -1.9239424608
     18  N         0.9342159517    0.5911051186   -0.7769888469
     19  H         0.8118422859    0.5233303783   -1.7841674225
     20  C         0.0041991870    0.0013311730   -0.0151476534
     21  H        -0.7847207325   -0.4895609120   -0.6052200955
     22  O        -0.0270196358   -0.0024300382    1.2324978157
   Point Group: c1    Number of degrees of freedom:    60


   Energy is   -404.611475452

 Hessian updated using BFGS update

 60 Hessian modes will be used to form the next step
  Hessian Eigenvalues:
     0.005967    0.006017    0.006968    0.007194    0.012628    0.019500
     0.019767    0.020847    0.037288    0.038447    0.039416    0.041723
     0.048448    0.048496    0.048908    0.055290    0.055716    0.055830
     0.060211    0.066927    0.081432    0.081546    0.081635    0.082001
     0.082133    0.083706    0.084357    0.087619    0.120933    0.120967
     0.143027    0.145065    0.159345    0.162495    0.175209    0.210509
     0.214122    0.224935    0.272184    0.272626    0.275532    0.285951
     0.286965    0.287397    0.327519    0.334518    0.334767    0.335815
     0.336546    0.337780    0.339357    0.339434    0.339495    0.340089
     0.340285    0.342561    0.362365    0.450254    0.460624    0.769786

 Minimum search - taking simple RFO step
 Searching for Lamda that Minimizes Along All modes
 Value Taken    Lamda =  -0.00004747
 Step Taken.  Stepsize is  0.023555

                             Maximum     Tolerance    Cnvgd?
         Gradient           0.001590      0.000100      NO
         Displacement       0.018509      0.000100      NO
         Energy change      0.000019      0.000000      NO


 New Cartesian Coordinates Obtained by Inverse Iteration

 Displacement from previous Coordinates is:  0.028097
 ----------------------------------------------------------------
             Standard Nuclear Orientation (Angstroms)
    I     Atom           X                Y                Z
 ----------------------------------------------------------------
    1      C       1.9831988527     2.8319179099    -0.6540748422
    2      C       2.0946310911     1.3412672981    -0.2860236143
    3      C       3.4008281959     0.7316430519    -0.8243680343
    4      C       4.6246677065     1.5190901661    -0.3269891191
    5      C       4.5198356995     3.0117967917    -0.6781345367
    6      C       3.2074828037     3.6183207331    -0.1562610374
    7      H       3.4678991475    -0.3209254774    -0.5204360538
    8      H       2.0767759789     1.2409401944     0.8047573595
    9      H       1.9077212472     2.9222573380    -1.7469125772
   10      H       1.0581396878     3.2459900824    -0.2321888321
   11      H       4.7064291193     1.4069937942     0.7665193540
   12      H       5.5377191282     1.0897203926    -0.7581661299
   13      H       5.3796209385     3.5586487887    -0.2679553051
   14      H       4.5625970703     3.1295670006    -1.7700159422
   15      H       3.2167829493     3.6132227297     0.9460571134
   16      H       3.1222628043     4.6673123929    -0.4672940254
   17      H       3.3749526129     0.7486057359    -1.9232033547
   18      N       0.9326099207     0.5936911690    -0.7776266047
   19      H       0.8105530127     0.5253065153    -1.7847499439
   20      C       0.0023499962     0.0039416227    -0.0149513314
   21      H      -0.7804904785    -0.4961003660    -0.6056120067
   22      O      -0.0221603999    -0.0101411233     1.2322335706
 ----------------------------------------------------------------
 Nuclear Repulsion Energy =         466.41624347 hartrees
 There are       35 alpha and       35 beta electrons
 Discretize the solute cavity surface with Lebedev spheres
	Using 302 Lebedev grid points for each H atom
	Using 302 Lebedev grid points for other atoms
	Atomic van der Waals radii will be scaled by 1.20
 Remove points where switching function is < 1.0e-08
 Keep 2704 surface tesserae and discard 3940 interior tesserae
 Molecular Surface Area = 182.991 Angst**2
 Applying Cartesian multipole field
    Component          Value
    ---------          -----
     (0,0,1)        3.89000E-03
 Nucleus-field energy     =    -0.1528245777 hartrees
 Requested basis set is 6-31+G(d)
 There are 71 shells and 197 basis functions
 A cutoff of  1.0D-14 yielded   2412 shell pairs
 There are     18997 function pairs
 Smallest overlap matrix eigenvalue = 2.46E-05
 Guess MOs from SCF MO coefficient file

 -----------------------------------------------------------------------
  General SCF calculation program by
  Eric Jon Sundstrom, Paul Horn, Yuezhi Mao, Dmitri Zuev, Alec White,
  David Stuck, Shaama M.S., Shane Yost, Joonho Lee, David Small,
  Daniel Levine, Susi Lehtola, Hugh Burton, Evgeny Epifanovsky,
  Bang C. Huynh
 -----------------------------------------------------------------------
 Exchange:     0.2000 Hartree-Fock + 0.0800 Slater + 0.7200 B88
 Correlation:  0.1900 VWN1RPA + 0.8100 LYP
 Using Euler-Maclaurin-Lebedev (99,590) quadrature formula
 using 16 threads for integral computing
 -------------------------------------------------------
 OpenMP Integral computing Module                
 Release: version 2.0, May 2017, Q-Chem Inc. Pleasanton 
 -------------------------------------------------------
 A restricted SCF calculation will be
 performed using Roothaan-Hall, DIIS
 SCF converges when DIIS error is below 1.0e-09
 ---------------------------------------
  Cycle       Energy         DIIS error
 ---------------------------------------
    1    -404.5866921990      7.31e-04  Roothaan Step
 ---------------------------------------
  Cycle       Energy         DIIS error
 ---------------------------------------
    1    -404.5959008744      1.45e-03  
    2    -404.5755966334      3.05e-03  
    3    -404.6111999466      2.37e-04  
    4    -404.6114183667      1.37e-04  
    5    -404.6114889215      4.85e-05  
    6    -404.6114985657      1.13e-05  
    7    -404.6114990376      4.10e-06  
    8    -404.6114991179      6.77e-07  
    9    -404.6114991198      3.02e-07  
   10    -404.6114991202      5.84e-08  
   11    -404.6114991203      1.51e-08  
   12    -404.6114991203      3.98e-09  
   13    -404.6114991203      4.59e-10  Convergence criterion met
 ---------------------------------------
 SCF time:   CPU 949.61s  wall 63.00s 

************** Final PCM Free Energy Summary **************
 G_electrostatic  =      -0.02471110 hartree =     -15.50644699 kcal/mol
 G_cavitation     =       0.00000000 hartree =       0.00000000 kcal/mol
 G_dispersion     =       0.00000000 hartree =       0.00000000 kcal/mol
 G_repulsion      =       0.00000000 hartree =       0.00000000 kcal/mol
 --------------------------------------------------
 Non-electrostatic Free Energy =       0.00000000 hartree =       0.00000000 kcal/mol
 Total                         =      -0.02471110 hartree =     -15.50644699 kcal/mol
 --------------------------------------------------
 SCF Energy (H0 + V/2)                       =    -404.61149912 
 Solute Internal Energy (H0)                 =    -404.58678802 
 Total Free Energy (H0 + V/2 + non-elec)     =    -404.61149912 hartree
                                             = -253897.54777347 kcal/mol
***********************************************************

 SCF   energy in the final basis set =     -404.6114991203
 Total energy in the final basis set =     -404.6114991203
 
 --------------------------------------------------------------
 
                    Orbital Energies (a.u.)
 --------------------------------------------------------------
 
 Alpha MOs
 -- Occupied --
-19.1374 -14.3703 -10.2939 -10.2238 -10.1785 -10.1778 -10.1776 -10.1771
-10.1728  -1.0382  -0.9318  -0.8214  -0.7400  -0.7374  -0.6343  -0.6076
 -0.5892  -0.5605  -0.5240  -0.4829  -0.4587  -0.4391  -0.4348  -0.4183
 -0.4165  -0.3923  -0.3752  -0.3715  -0.3435  -0.3398  -0.3182  -0.3086
 -0.3065  -0.2736  -0.2602
 -- Virtual --
  0.0025   0.0082   0.0202   0.0269   0.0283   0.0441   0.0506   0.0514
  0.0633   0.0733   0.0745   0.0866   0.0883   0.0966   0.1052   0.1111
  0.1169   0.1202   0.1325   0.1364   0.1429   0.1560   0.1612   0.1651
  0.1720   0.1802   0.1862   0.1936   0.2022   0.2062   0.2132   0.2157
  0.2235   0.2296   0.2315   0.2488   0.2512   0.2598   0.2649   0.2751
  0.2766   0.2825   0.2924   0.2948   0.2979   0.3027   0.3135   0.3305
  0.3344   0.3361   0.3602   0.3774   0.3840   0.3927   0.4215   0.4249
  0.4414   0.4644   0.4814   0.6136   0.6428   0.6609   0.6704   0.6714
  0.6858   0.7003   0.7329   0.7370   0.7500   0.7552   0.7774   0.7802
  0.8028   0.8101   0.8248   0.8549   0.8690   0.9165   0.9576   0.9797
  0.9852   0.9959   1.0259   1.0296   1.0321   1.0618   1.0937   1.1126
  1.1249   1.1291   1.1312   1.1434   1.1630   1.1782   1.1885   1.1923
  1.2387   1.2429   1.2794   1.3212   1.3474   1.3761   1.3929   1.4236
  1.4811   1.4876   1.4972   1.5683   1.5754   1.6141   1.6939   1.7358
  1.7372   1.7535   1.7739   1.8058   1.8528   1.8708   1.9065   1.9100
  1.9161   1.9398   1.9869   2.0128   2.0240   2.0485   2.0602   2.0861
  2.0944   2.1309   2.2051   2.2188   2.2802   2.3161   2.3174   2.3495
  2.3963   2.4144   2.4229   2.4270   2.4507   2.5621   2.5880   2.6181
  2.6769   2.6864   2.7065   2.7666   2.7854   2.8367   2.8632   2.9826
  3.1853   4.0981   4.1922   4.2276   4.2992   4.3366   4.4132   4.6088
  4.6153   4.6777
 --------------------------------------------------------------
 
          Ground-State Mulliken Net Atomic Charges

     Atom                 Charge (a.u.)
  ----------------------------------------
      1 C                    -0.259622
      2 C                    -0.436349
      3 C                    -0.278212
      4 C                    -0.464700
      5 C                    -0.363757
      6 C                    -0.469445
      7 H                     0.206804
      8 H                     0.208110
      9 H                     0.236264
     10 H                     0.203166
     11 H                     0.186397
     12 H                     0.211752
     13 H                     0.192552
     14 H                     0.224893
     15 H                     0.185782
     16 H                     0.209034
     17 H                     0.236747
     18 N                    -0.377190
     19 H                     0.470339
     20 C                     0.343198
     21 H                     0.197176
     22 O                    -0.662940
  ----------------------------------------
  Sum of atomic charges =     0.000000

 -----------------------------------------------------------------
[...]

 Mode:                40                     41                     42
 Frequency:      1405.09                1493.65                1495.76
 Force Cnst:      1.7058                 1.4303                 1.4302
 Red. Mass:       1.4665                 1.0881                 1.0850
 IR Active:          YES                    YES                    YES
 IR Intens:        0.125                  0.191                  7.308
 Raman Active:       YES                    YES                    YES
               X      Y      Z        X      Y      Z        X      Y      Z
 C          0.051  0.098  0.015   -0.032  0.011 -0.027   -0.001 -0.012  0.001
 C         -0.086 -0.058 -0.005   -0.010  0.014  0.001    0.005  0.003  0.002
 C          0.113  0.010  0.007    0.004  0.029  0.028   -0.011  0.001  0.001
 C         -0.005  0.043  0.004    0.030 -0.008  0.025   -0.018  0.019 -0.019
 C         -0.007 -0.006  0.007    0.007 -0.012 -0.000    0.044  0.033 -0.038
 C          0.038 -0.020 -0.002   -0.006 -0.029 -0.028    0.009 -0.024 -0.025
 H         -0.393 -0.052 -0.069    0.010 -0.090 -0.341    0.007  0.000 -0.010
 H          0.400  0.274  0.032    0.042 -0.064 -0.005   -0.019 -0.013 -0.000
 H         -0.197 -0.281 -0.005    0.343 -0.136 -0.056   -0.002  0.055  0.005
 H         -0.197 -0.331 -0.089    0.112 -0.086  0.350   -0.003  0.010 -0.026
 H          0.005 -0.038 -0.007   -0.306  0.104  0.051    0.223 -0.156 -0.048
 H         -0.144 -0.219 -0.027   -0.104  0.070 -0.310    0.094 -0.049  0.259
 H         -0.029 -0.023  0.058    0.008 -0.005 -0.011   -0.142 -0.141  0.528
 H         -0.058 -0.039  0.007   -0.031  0.066  0.007   -0.471 -0.309 -0.083
 H         -0.036  0.019 -0.003    0.017  0.339 -0.016   -0.065  0.297 -0.015
 H         -0.255 -0.048 -0.013   -0.005  0.090  0.335    0.011  0.082  0.297
 H         -0.341 -0.083  0.010   -0.003 -0.347  0.014    0.049 -0.005 -0.001
 N         -0.023 -0.013 -0.014   -0.000 -0.000  0.000    0.001  0.001  0.000
 H          0.090  0.059 -0.035    0.001  0.000 -0.000   -0.006 -0.004  0.002
 C          0.019  0.012  0.007    0.000 -0.000 -0.000   -0.001 -0.001  0.000
 H          0.028  0.017  0.013   -0.000  0.001  0.000   -0.001 -0.001 -0.001
 O         -0.003 -0.002 -0.005   -0.000  0.000 -0.000    0.000  0.000 -0.000
 TransDip   0.003 -0.003  0.011    0.009 -0.010 -0.001   -0.028 -0.022  0.079

 Mode:                43                     44                     45
 Frequency:      1498.75                1500.14                1512.18
 Force Cnst:      1.4546                 1.4524                 1.4824
 Red. Mass:       1.0991                 1.0954                 1.1003
 IR Active:          YES                    YES                    YES
 IR Intens:        7.569                  9.937                  0.729
 Raman Active:       YES                    YES                    YES
               X      Y      Z        X      Y      Z        X      Y      Z
 C         -0.037  0.021 -0.022   -0.024  0.023 -0.019   -0.030  0.023 -0.017
 C          0.001 -0.003 -0.001   -0.013 -0.009 -0.004   -0.011 -0.007 -0.007
 C         -0.003  0.033  0.022    0.012 -0.036 -0.030    0.009 -0.035 -0.023
 C         -0.040  0.019 -0.025   -0.025  0.014 -0.016    0.028 -0.019  0.015
 C          0.002 -0.004 -0.000   -0.026 -0.018  0.017    0.032  0.023 -0.016
 C         -0.000  0.035  0.025    0.002 -0.031 -0.022   -0.006  0.031  0.019
 H         -0.011 -0.066 -0.292   -0.033  0.093  0.383   -0.006  0.075  0.331
 H          0.001  0.001 -0.000    0.021  0.018 -0.004    0.022  0.016 -0.006
 H          0.329 -0.173 -0.053    0.272 -0.163 -0.049    0.292 -0.176 -0.050
 H          0.104 -0.062  0.343    0.080 -0.091  0.290    0.090 -0.066  0.314
 H          0.353 -0.173 -0.061    0.249 -0.094 -0.041   -0.246  0.134  0.043
 H          0.119 -0.064  0.371    0.064 -0.079  0.246   -0.075  0.056 -0.267
 H         -0.018  0.027 -0.000    0.057  0.057 -0.246   -0.066 -0.069  0.295
 H          0.005 -0.003 -0.000    0.219  0.143  0.036   -0.269 -0.177 -0.043
 H          0.026 -0.330  0.012   -0.003  0.310 -0.012    0.034 -0.280  0.009
 H         -0.017 -0.076 -0.320   -0.028  0.070  0.297    0.003 -0.059 -0.275
 H          0.035 -0.307  0.007   -0.061  0.399 -0.013   -0.059  0.346 -0.009
 N         -0.000  0.001  0.000    0.002  0.001 -0.000   -0.005 -0.003  0.002
 H          0.000 -0.000  0.000    0.006  0.004 -0.001    0.039  0.025 -0.005
 C         -0.000  0.000 -0.000    0.000  0.000 -0.001    0.005  0.003 -0.005
 H          0.000 -0.001  0.000   -0.000 -0.000  0.000    0.003  0.002  0.004
 O         -0.000  0.000  0.000    0.000  0.000  0.001   -0.001 -0.000  0.003
 TransDip   0.053 -0.070  0.003    0.052  0.037  0.078    0.024  0.012  0.005

 Mode:                46                     47                     48
 Frequency:      1564.10                1646.00                2257.03
 Force Cnst:      2.5240                14.0637                 7.1895
 Red. Mass:       1.7511                 8.8103                 2.3954
 IR Active:          YES                    YES                    YES
 IR Intens:      236.513                984.117                 78.147
 Raman Active:       YES                    YES                    YES
               X      Y      Z        X      Y      Z        X      Y      Z
 C          0.006  0.003  0.006   -0.019 -0.005 -0.014   -0.000 -0.000  0.000
 C          0.057  0.037 -0.043    0.021  0.012  0.028    0.002  0.002  0.000
 C          0.005  0.006  0.006   -0.013 -0.014 -0.015   -0.001 -0.000  0.000
 C         -0.006 -0.004 -0.001    0.001  0.008  0.006   -0.000  0.000  0.000
 C          0.000 -0.000  0.001   -0.001 -0.001 -0.002   -0.000 -0.000 -0.000
 C         -0.006 -0.004 -0.000    0.009 -0.003  0.005    0.000 -0.000  0.000
 H          0.008  0.002 -0.016    0.021 -0.003  0.026    0.001  0.000 -0.001
 H         -0.261 -0.167 -0.073   -0.044 -0.027  0.047    0.005  0.003  0.001
 H         -0.027 -0.048  0.001    0.027  0.031 -0.017   -0.000  0.000  0.001
 H          0.004  0.014 -0.019    0.006  0.017  0.029    0.000  0.001 -0.000
 H          0.028  0.006 -0.003   -0.007 -0.001  0.008   -0.000 -0.000  0.000
 H          0.010  0.009  0.022   -0.031 -0.034 -0.027   -0.000 -0.000 -0.000
 H          0.005  0.006 -0.018   -0.004 -0.004  0.016    0.000  0.000  0.000
 H          0.011  0.007  0.002   -0.006 -0.003 -0.003    0.000  0.000 -0.000
 H          0.015  0.023 -0.002   -0.004 -0.008  0.007   -0.000 -0.000  0.000
 H          0.011  0.003  0.020   -0.045 -0.013 -0.027   -0.000  0.000 -0.000
 H         -0.057 -0.007  0.003    0.036  0.013 -0.019    0.000 -0.000  0.001
 N         -0.163 -0.105  0.057    0.064  0.042 -0.133    0.014  0.009 -0.002
 H          0.756  0.479 -0.085    0.360  0.223 -0.182   -0.048 -0.030 -0.001
 C          0.084  0.053 -0.008   -0.159 -0.101  0.664   -0.138 -0.088 -0.104
 H          0.110  0.070  0.067    0.298  0.191 -0.040    0.706  0.451  0.507
 O         -0.009 -0.006 -0.019    0.008  0.004 -0.374    0.004  0.003  0.016
 TransDip   0.383  0.245 -0.188   -0.431 -0.278  0.864   -0.164 -0.105 -0.206

 Mode:                49                     50                     51
 Frequency:      2992.74                2995.01                3028.68
 Force Cnst:      5.6477                 5.6599                 5.7328
 Red. Mass:       1.0703                 1.0709                 1.0607
 IR Active:          YES                    YES                    YES
 IR Intens:       35.286                146.620                 59.027
 Raman Active:       YES                    YES                    YES
               X      Y      Z        X      Y      Z        X      Y      Z
 C         -0.003  0.002  0.007   -0.003  0.002  0.003    0.004 -0.003  0.003
 C         -0.000  0.001  0.000    0.000 -0.000  0.001    0.000  0.000 -0.001
 C         -0.000  0.001 -0.004    0.001 -0.005  0.006   -0.001  0.005  0.005
 C          0.010 -0.007  0.033   -0.018  0.013 -0.062   -0.008  0.003  0.007
 C          0.002  0.002  0.003    0.008  0.004  0.011    0.046  0.034 -0.034
 C          0.000 -0.015 -0.064    0.001 -0.007 -0.034    0.001 -0.011  0.007
 H          0.003 -0.019  0.004   -0.007  0.061 -0.017    0.006 -0.057  0.019
 H          0.001 -0.002 -0.004   -0.001  0.001 -0.012   -0.000 -0.002  0.018
 H         -0.006  0.006 -0.065   -0.002  0.002 -0.017   -0.002  0.005 -0.059
 H          0.046 -0.024 -0.021    0.038 -0.019 -0.018   -0.042  0.021  0.022
 H         -0.029  0.042 -0.451    0.055 -0.082  0.840   -0.006  0.005 -0.038
 H         -0.090  0.040  0.054    0.154 -0.071 -0.092    0.106 -0.046 -0.051
 H         -0.027 -0.023 -0.014   -0.099 -0.061 -0.046   -0.532 -0.337 -0.273
 H          0.003  0.003 -0.029    0.007  0.013 -0.099   -0.013 -0.064  0.681
 H          0.009 -0.014  0.849    0.003 -0.006  0.444   -0.000 -0.003 -0.042
 H         -0.015  0.190 -0.077   -0.009  0.090 -0.036   -0.008  0.137 -0.042
 H          0.001  0.000  0.046   -0.001 -0.001 -0.056   -0.001  0.003 -0.077
 N          0.000 -0.000  0.000   -0.000 -0.000  0.000    0.000  0.000 -0.000
 H         -0.000  0.000  0.000    0.000  0.000  0.000   -0.000 -0.000 -0.000
 C          0.000  0.000 -0.000    0.000  0.000 -0.000   -0.000 -0.000  0.000
 H         -0.000  0.000  0.000   -0.000 -0.000  0.000    0.000  0.000  0.000
 O         -0.000 -0.000  0.000   -0.000 -0.000  0.000    0.000  0.000 -0.000
 TransDip   0.059 -0.128 -0.128   -0.096  0.020 -0.375    0.200  0.136 -0.044

 Mode:                52                     53                     54
 Frequency:      3031.84                3034.87                3063.15
 Force Cnst:      5.7408                 5.7615                 6.0683
 Red. Mass:       1.0600                 1.0617                 1.0977
 IR Active:          YES                    YES                    YES
 IR Intens:       37.153                 37.721                 99.075
 Raman Active:       YES                    YES                    YES
               X      Y      Z        X      Y      Z        X      Y      Z
 C         -0.036  0.018 -0.030   -0.030  0.016 -0.027   -0.007  0.003  0.021
 C          0.000 -0.000 -0.000   -0.001 -0.001  0.008    0.000  0.002 -0.021
 C         -0.001  0.031  0.033    0.002 -0.033 -0.038    0.002 -0.016  0.019
 C          0.007 -0.003 -0.003   -0.010  0.005  0.008   -0.011  0.005  0.001
 C         -0.000 -0.001  0.000    0.004  0.003 -0.003   -0.037 -0.021 -0.055
 C          0.001 -0.010  0.004    0.001 -0.012  0.007    0.003 -0.037  0.013
 H          0.024 -0.379  0.123   -0.028  0.410 -0.132   -0.013  0.194 -0.056
 H          0.001 -0.001  0.000    0.002  0.009 -0.096   -0.003 -0.023  0.261
 H          0.027 -0.042  0.559    0.024 -0.038  0.491   -0.015  0.018 -0.205
 H          0.399 -0.178 -0.198    0.334 -0.151 -0.165    0.107 -0.049 -0.048
 H          0.002 -0.001 -0.004   -0.005  0.005 -0.031    0.001 -0.005  0.045
 H         -0.083  0.041  0.042    0.124 -0.061 -0.061    0.120 -0.056 -0.058
 H          0.008  0.007  0.004   -0.041 -0.026 -0.020    0.465  0.295  0.220
 H         -0.001  0.002 -0.005   -0.001 -0.006  0.060   -0.022 -0.052  0.448
 H          0.001 -0.003 -0.011    0.000 -0.002 -0.043   -0.001 -0.005 -0.027
 H         -0.012  0.118 -0.037   -0.014  0.143 -0.044   -0.035  0.442 -0.134
 H         -0.012  0.019 -0.514    0.011 -0.020  0.582   -0.003  0.001 -0.170
 N         -0.000  0.000  0.000    0.000  0.000 -0.000   -0.000 -0.000  0.000
 H         -0.001  0.001 -0.000    0.003  0.001  0.001   -0.001 -0.000 -0.003
 C         -0.000  0.000  0.000   -0.000 -0.000  0.001    0.000  0.000 -0.001
 H          0.000 -0.000 -0.000    0.000  0.000 -0.000   -0.000 -0.000  0.000
 O         -0.000  0.000 -0.000   -0.000 -0.000 -0.000    0.000  0.000  0.000
 TransDip  -0.125  0.149  0.014   -0.125 -0.084 -0.126   -0.201 -0.235 -0.079

 Mode:                55                     56                     57
 Frequency:      3064.72                3066.23                3070.84
 Force Cnst:      6.0407                 6.0546                 6.0889
 Red. Mass:       1.0916                 1.0930                 1.0959
 IR Active:          YES                    YES                    YES
 IR Intens:       79.507                 64.472                102.594
 Raman Active:       YES                    YES                    YES
               X      Y      Z        X      Y      Z        X      Y      Z
 C          0.032 -0.014 -0.030    0.012 -0.005 -0.020   -0.001 -0.000  0.012
 C          0.000 -0.002  0.031    0.001 -0.003  0.034    0.001  0.001 -0.012
 C         -0.001  0.013 -0.014   -0.002  0.032 -0.020   -0.001  0.010  0.003
 C          0.020 -0.008 -0.017   -0.038  0.017  0.020   -0.046  0.021  0.038
 C         -0.002 -0.002  0.005   -0.020 -0.011 -0.033    0.011  0.004  0.045
 C          0.004 -0.053  0.024   -0.002  0.021 -0.019    0.003 -0.031  0.021
 H          0.010 -0.158  0.046    0.023 -0.375  0.110    0.008 -0.115  0.033
 H          0.004  0.034 -0.383    0.005  0.036 -0.415   -0.001 -0.012  0.140
 H          0.018 -0.018  0.190    0.015 -0.014  0.174   -0.011  0.011 -0.137
 H         -0.395  0.176  0.181   -0.162  0.072  0.074    0.023 -0.010 -0.010
 H          0.009 -0.010  0.086   -0.008  0.005 -0.028   -0.021  0.024 -0.188
 H         -0.245  0.113  0.117    0.454 -0.212 -0.218    0.566 -0.267 -0.272
 H          0.023  0.013  0.012    0.255  0.163  0.121   -0.155 -0.098 -0.072
 H          0.002  0.006 -0.066   -0.014 -0.032  0.281    0.020  0.051 -0.462
 H         -0.000 -0.007 -0.102    0.000  0.003  0.142    0.000 -0.005 -0.143
 H         -0.051  0.630 -0.191    0.020 -0.258  0.078   -0.032  0.376 -0.114
 H          0.003  0.000  0.126    0.004  0.003  0.137   -0.003  0.002 -0.068
 N          0.000  0.000 -0.000    0.000  0.000 -0.000   -0.000 -0.000  0.000
 H          0.000 -0.000  0.005    0.000 -0.000  0.005   -0.000 -0.000 -0.002
 C         -0.000 -0.000  0.001   -0.000 -0.000  0.001    0.000  0.000 -0.001
 H          0.000  0.000  0.000    0.000  0.000  0.000   -0.000 -0.000  0.000
 O         -0.000 -0.000 -0.000   -0.000 -0.000 -0.000    0.000  0.000  0.000
 TransDip   0.187 -0.216 -0.008   -0.156  0.171 -0.113   -0.119  0.008  0.302

 Mode:                58                     59                     60
 Frequency:      3073.34                3087.69                3565.36
 Force Cnst:      6.1503                 6.1457                 8.0810
 Red. Mass:       1.1052                 1.0941                 1.0790
 IR Active:          YES                    YES                    YES
 IR Intens:       27.447                128.417                101.901
 Raman Active:       YES                    YES                    YES
               X      Y      Z        X      Y      Z        X      Y      Z
 C          0.031 -0.012 -0.052    0.019 -0.007 -0.036    0.000 -0.000  0.000
 C          0.000 -0.000 -0.005    0.001  0.006 -0.064    0.001  0.001 -0.000
 C          0.003 -0.044  0.050   -0.002  0.027 -0.035   -0.000 -0.000  0.000
 C         -0.011  0.004  0.015    0.001 -0.000 -0.006   -0.000  0.000  0.000
 C          0.000  0.001  0.002   -0.002 -0.001 -0.005   -0.000 -0.000  0.000
 C         -0.000  0.008 -0.010   -0.000  0.001 -0.006    0.000 -0.000  0.000
 H         -0.034  0.522 -0.150    0.023 -0.318  0.092   -0.000  0.000 -0.000
 H          0.001 -0.008  0.064   -0.013 -0.069  0.757    0.004  0.001  0.011
 H          0.034 -0.039  0.438    0.024 -0.032  0.314   -0.000 -0.001 -0.000
 H         -0.407  0.183  0.185   -0.248  0.114  0.114    0.000 -0.000 -0.000
 H         -0.011  0.011 -0.111    0.008 -0.005  0.065    0.000  0.000 -0.000
 H          0.147 -0.068 -0.070   -0.017  0.008  0.009    0.000 -0.000 -0.000
 H         -0.008 -0.006 -0.004    0.027  0.017  0.013    0.000  0.000  0.000
 H         -0.000  0.004 -0.025   -0.003 -0.006  0.043   -0.000  0.000 -0.000
 H          0.002  0.001  0.088    0.003  0.002  0.062    0.000  0.000 -0.000
 H          0.008 -0.103  0.031    0.002 -0.017  0.006    0.000  0.000 -0.000
 H         -0.010  0.001 -0.446    0.003 -0.000  0.324   -0.001  0.000 -0.001
 N         -0.000  0.000  0.000   -0.001 -0.001  0.001   -0.008 -0.004 -0.073
 H         -0.001  0.001 -0.001    0.003  0.002 -0.008    0.118  0.067  0.988
 C          0.000 -0.000 -0.000    0.000  0.000 -0.002   -0.002 -0.001 -0.000
 H         -0.000 -0.000  0.000   -0.001 -0.000  0.000    0.002  0.001  0.000
 O          0.000  0.000  0.000    0.000  0.000  0.001   -0.000 -0.000  0.001
 TransDip   0.081 -0.147 -0.003    0.009  0.048 -0.360   -0.031 -0.021  0.321

 STANDARD THERMODYNAMIC QUANTITIES AT   298.18 K  AND     1.00 ATM

   This Molecule has  0 Imaginary Frequencies
   Zero point vibrational energy:      121.975 kcal/mol

   Atom    1 Element C  Has Mass   12.00000
   Atom    2 Element C  Has Mass   12.00000
   Atom    3 Element C  Has Mass   12.00000
   Atom    4 Element C  Has Mass   12.00000
   Atom    5 Element C  Has Mass   12.00000
   Atom    6 Element C  Has Mass   12.00000
   Atom    7 Element H  Has Mass    1.00783
   Atom    8 Element H  Has Mass    1.00783
   Atom    9 Element H  Has Mass    1.00783
   Atom   10 Element H  Has Mass    1.00783
   Atom   11 Element H  Has Mass    1.00783
   Atom   12 Element H  Has Mass    1.00783
   Atom   13 Element H  Has Mass    1.00783
   Atom   14 Element H  Has Mass    1.00783
   Atom   15 Element H  Has Mass    1.00783
   Atom   16 Element H  Has Mass    1.00783
   Atom   17 Element H  Has Mass    1.00783
   Atom   18 Element N  Has Mass   14.00307
   Atom   19 Element H  Has Mass    1.00783
   Atom   20 Element C  Has Mass   12.00000
   Atom   21 Element H  Has Mass    2.01410
   Atom   22 Element O  Has Mass   15.99491
   Molecular Mass:   128.106042 amu
   Principal axes and moments of inertia in amu*Bohr^2:
                             1           2           3
    Eigenvalues --      540.29717  2024.31616  2223.41233
          X               0.82461    -0.52888     0.20076
          Y               0.53967     0.84188     0.00119
          Z              -0.16965     0.10737     0.97964
   Rotational Symmetry Number is   1
   The Molecule is an Asymmetric Top
   Translational Enthalpy:        0.889 kcal/mol
   Rotational Enthalpy:           0.889 kcal/mol
   Vibrational Enthalpy:        125.757 kcal/mol
   gas constant (RT):             0.593 kcal/mol
   Translational Entropy:        40.457  cal/mol.K
   Rotational Entropy:           29.277  cal/mol.K
   Vibrational Entropy:          23.423  cal/mol.K

   Total Enthalpy:              128.127 kcal/mol
   Total Entropy:                93.156  cal/mol.K
Archival summary:
1\1\node028\FREQ\ProcedureUnspecified\6-31+G*\11713\ymao90\MonAug901:13:082021MonAug901:13:082021\0\\#,FREQ,ProcedureUnspecified,6-31+G*,\\0,1\N\H,1,1.01677\C,1,1.33962,2,116.806\H,3,1.1008,1,112.851,2,0.651328,0\O,3,1.24745,1,125.971,2,-179.454,0\C,1,1.46672,2,117.484,3,-179.165,0\H,6,1.09551,1,105.894,2,-176.475,0\C,6,1.53872,1,110.699,2,-58.4531,0\H,8,1.09762,6,109.571,1,-58.0812,0\H,8,1.09925,6,108.884,1,58.681,0\C,8,1.53794,6,111.073,1,179.354,0\H,11,1.09725,8,109.557,6,-177.657,0\H,11,1.10228,8,109.131,6,65.7871,0\C,11,1.53706,8,111.659,6,-55.1497,0\H,14,1.09843,11,110.169,8,177.124,0\H,14,1.09903,11,109.168,8,-66.0335,0\C,14,1.53706,11,111.347,8,54.5598,0\H,17,1.09747,14,110.325,11,-176.625,0\H,17,1.10237,14,109.297,11,66.2704,0\C,17,1.5379,14,111.594,11,-54.5468,0\H,20,1.09781,17,110.703,14,177.115,0\H,20,1.09914,17,109.535,14,-65.0655,0\\\@

 Total job time:  9604.75s(wall), 137801.14s(cpu) 
 Mon Aug  9 01:13:08 2021

        *************************************************************
        *                                                           *
        *  Thank you very much for using Q-Chem.  Have a nice day.  *
        *                                                           *
        *************************************************************


