                  Welcome to Q-Chem
     A Quantum Leap Into The Future Of Chemistry


 Q-Chem 5.2 (devel), Q-Chem, Inc., Pleasanton, CA (2019)

 Yihan Shao,  Zhengting Gan,  E. Epifanovsky,  A. T. B. Gilbert,  M. Wormit,  
 J. Kussmann,  A. W. Lange,  A. Behn,  Jia Deng,  Xintian Feng,  D. Ghosh,  
 M. Goldey,  P. R. Horn,  L. D. Jacobson,  I. Kaliman,  T. Kus,  A. Landau,  
 Jie Liu,  E. I. Proynov,  R. M. Richard,  R. P. Steele,  E. J. Sundstrom,  
 H. L. Woodcock III,  P. M. Zimmerman,  D. Zuev,  B. Alam,  B. Albrecht,  
 E. Alguire,  S. A. Baeppler,  D. Barton,  Z. Benda,  Y. A. Bernard,  
 E. J. Berquist,  K. B. Bravaya,  H. Burton,  K. Carter-Fenk,  D. Casanova,  
 Chun-Min Chang,  Yunqing Chen,  A. Chien,  K. D. Closser,  M. P. Coons,  
 S. Coriani,  S. Dasgupta,  A. L. Dempwolff,  M. Diedenhofen,  Hainam Do,  
 R. G. Edgar,  Po-Tung Fang,  S. Faraji,  S. Fatehi,  Qingguo Feng,  
 J. Fosso-Tande,  J. Gayvert,  Qinghui Ge,  A. Ghysels,  G. Gidofalvi,  
 J. Gomes,  J. Gonthier,  A. Gunina,  D. Hait,  M. W. D. Hanson-Heine,  
 P. H. P. Harbach,  A. W. Hauser,  M. F. Herbst,  J. E. Herr,  
 E. G. Hohenstein,  Z. C. Holden,  Kerwin Hui,  B. C. Huynh,  T.-C. Jagau,  
 Hyunjun Ji,  B. Kaduk,  K. Khistyaev,  Jaehoon Kim,  P. Klunzinger,  K. Koh,  
 D. Kosenkov,  L. Koulias,  T. Kowalczyk,  C. M. Krauter,  A. Kunitsa,  
 Ka Un Lao,  A. Laurent,  K. V. Lawler,  Joonho Lee,  D. Lefrancois,  
 S. Lehtola,  D. S. Levine,  Yi-Pei Li,  You-Sheng Lin,  Fenglai Liu,  
 Kuan-Yu Liu,  E. Livshits,  M. Loipersberger,  A. Luenser,  P. Manohar,  
 E. Mansoor,  S. F. Manzer,  Shan-Ping Mao,  Yuezhi Mao,  N. Mardirossian,  
 A. V. Marenich,  T. Markovich,  L. A. Martinez-Martinez,  S. A. Maurer,  
 N. J. Mayhall,  S. C. McKenzie,  J.-M. Mewes,  P. Morgante,  A. F. Morrison,  
 J. W. Mullinax,  K. Nanda,  T. S. Nguyen-Beck,  R. Olivares-Amaya,  
 J. A. Parkhill,  S. K. Paul,  F. Pavosevic,  Zheng Pei,  T. M. Perrine,  
 F. Plasser,  P. Pokhilko,  S. Prager,  A. Prociuk,  E. Ramos,  B. Rana,  
 D. R. Rehn,  F. Rob,  M. Scheurer,  M. Schneider,  N. Sergueev,  
 S. M. Sharada,  S. Sharma,  D. W. Small,  T. Stauch,  C. J. Stein,  
 T. Stein,  Yu-Chuan Su,  S. P. Veccham,  Zhen Tao,  A. J. W. Thom,  
 A. Tkatchenko,  T. Tsuchimochi,  N. M. Tubman,  L. Vogt,  M. L. Vidal,  
 O. Vydrov,  M. A. Watson,  J. Wenzel,  M. de Wergifosse,  T. A. Wesolowski,  
 A. White,  J. Witte,  A. Yamada,  Jun Yang,  K. Yao,  S. Yeganeh,  
 S. R. Yost,  Zhi-Qiang You,  A. Zech,  Igor Ying Zhang,  Xing Zhang,  
 Yan Zhao,  Ying Zhu,  B. R. Brooks,  G. K. L. Chan,  C. J. Cramer,  
 M. S. Gordon,  W. J. Hehre,  A. Klamt,  M. W. Schmidt,  C. D. Sherrill,  
 D. G. Truhlar,  A. Aspuru-Guzik,  R. Baer,  A. T. Bell,  N. A. Besley,  
 Jeng-Da Chai,  A. E. DePrince, III,  R. A. DiStasio Jr.,  A. Dreuw,  
 B. D. Dunietz,  T. R. Furlani,  Chao-Ping Hsu,  Yousung Jung,  Jing Kong,  
 D. S. Lambrecht,  WanZhen Liang,  C. Ochsenfeld,  V. A. Rassolov,  
 L. V. Slipchenko,  J. E. Subotnik,  T. Van Voorhis,  J. M. Herbert,  
 A. I. Krylov,  P. M. W. Gill,  M. Head-Gordon

 Contributors to earlier versions of Q-Chem not listed above: 
 R. D. Adamson,  B. Austin,  J. Baker,  G. J. O. Beran,  K. Brandhorst,  
 S. T. Brown,  E. F. C. Byrd,  A. K. Chakraborty,  C.-L. Cheng,  
 Siu Hung Chien,  D. M. Chipman,  D. L. Crittenden,  H. Dachsel,  
 R. J. Doerksen,  A. D. Dutoi,  L. Fusti-Molnar,  W. A. Goddard III,  
 A. Golubeva-Zadorozhnaya,  S. R. Gwaltney,  G. Hawkins,  A. Heyden,  
 S. Hirata,  G. Kedziora,  F. J. Keil,  C. Kelley,  Jihan Kim,  R. A. King,  
 R. Z. Khaliullin,  P. P. Korambath,  W. Kurlancheek,  A. M. Lee,  M. S. Lee,  
 S. V. Levchenko,  Ching Yeh Lin,  D. Liotard,  R. C. Lochan,  I. Lotan,  
 P. E. Maslen,  N. Nair,  D. P. O'Neill,  D. Neuhauser,  E. Neuscamman,  
 C. M. Oana,  R. Olson,  B. Peters,  R. Peverati,  P. A. Pieniazek,  
 Y. M. Rhee,  J. Ritchie,  M. A. Rohrdanz,  E. Rosta,  N. J. Russ,  
 H. F. Schaefer III,  N. E. Schultz,  N. Shenvi,  A. C. Simmonett,  A. Sodt,  
 D. Stuck,  K. S. Thanthiriwatte,  V. Vanovschi,  Tao Wang,  A. Warshel,  
 C. F. Williams,  Q. Wu,  X. Xu,  W. Zhang

 Please cite Q-Chem as follows:
 Y. Shao et al., Mol. Phys. 113, 184-215 (2015)
 DOI: 10.1080/00268976.2014.952696

 Q-Chem 5.2.2 for Intel X86 EM64T Linux

 Parts of Q-Chem use Armadillo 9.800.1 (Horizon Scraper).
 http://arma.sourceforge.net/

 Q-Chem begins on Tue Jul 27 17:24:05 2021  

Host: node028
0

     Scratch files written to /home/ymao90/scratch/CCX_CO_-20_MeTHF20210727172405//
Symmetry turned off for PCM/SM12/SMD calculation

Checking the input file for inconsistencies... 	...done.

--------------------------------------------------------------
User input:
--------------------------------------------------------------
$molecule
0 1
C      1.9839655798    2.8343873569   -0.6530035790
C      2.0889665948    1.3399289492   -0.2973932582
C      3.4017166944    0.7321441035   -0.8222227424
C      4.6254659785    1.5200300416   -0.3255741318
C      4.5210827926    3.0122209378   -0.6783481608
C      3.2094896156    3.6188525050   -0.1554554411
H      3.4653882129   -0.3186255299   -0.5134835234
H      2.0538505535    1.2303619181    0.7916336585
H      1.9041773336    2.9373830819   -1.7471760654
H      1.0604862058    3.2447823031   -0.2264495779
H      4.7056113531    1.4098609561    0.7662015896
H      5.5416784391    1.0893334561   -0.7496610014
H      5.3807748665    3.5587419877   -0.2692766409
H      4.5659637339    3.1311627355   -1.7719372538
H      3.2192612515    3.6121018079    0.9447339030
H      3.1260878858    4.6703627905   -0.4590864625
H      3.3863457527    0.7409636912   -1.9242196110
N      0.9315723625    0.5939302253   -0.7942938700
H      0.8024957372    0.5217251348   -1.7968919912
C      0.0000000000    0.0000000000    0.0000000000
H     -0.7899738588   -0.5065817117   -0.5873052394
O     -0.0000000000    0.0000000000    1.2238135054
$end

$rem
JOBTYPE  OPT
METHOD  B3LYP
BASIS  6-31+G(D)
SYMMETRY  FALSE
SYM_IGNORE  TRUE
MEM_TOTAL  8000
MEM_STATIC  2000
MAX_SUB_FILE_NUM  16000
BASIS_LIN_DEP_THRESH  6
THRESH  14
SCF_CONVERGENCE  9
GEN_SCFMAN  TRUE
SCF_GUESS  SAD
FD_MAT_VEC_PROD  FALSE
XC_GRID  000099000590
NL_GRID  1
MAX_SCF_CYCLES  200
GEOM_OPT_TOL_GRADIENT  100
GEOM_OPT_TOL_DISPLACEMENT  100
GEOM_OPT_TOL_ENERGY  10
SOLVENT_METHOD       PCM
$end

$PCM
THEORY                     CPCM
METHOD                     SWIG
SOLVER                     INVERSION
HPOINTS                    302
HEAVYPOINTS                302
$END

$SOLVENT
DIELECTRIC                 6.97
$END

$multipole_field
Z   0.003890
$end


--------------------------------------------------------------
 ----------------------------------------------------------------
             Standard Nuclear Orientation (Angstroms)
    I     Atom           X                Y                Z
 ----------------------------------------------------------------
    1      C       1.9839655798     2.8343873569    -0.6530035790
    2      C       2.0889665948     1.3399289492    -0.2973932582
    3      C       3.4017166944     0.7321441035    -0.8222227424
    4      C       4.6254659785     1.5200300416    -0.3255741318
    5      C       4.5210827926     3.0122209378    -0.6783481608
    6      C       3.2094896156     3.6188525050    -0.1554554411
    7      H       3.4653882129    -0.3186255299    -0.5134835234
    8      H       2.0538505535     1.2303619181     0.7916336585
    9      H       1.9041773336     2.9373830819    -1.7471760654
   10      H       1.0604862058     3.2447823031    -0.2264495779
   11      H       4.7056113531     1.4098609561     0.7662015896
   12      H       5.5416784391     1.0893334561    -0.7496610014
   13      H       5.3807748665     3.5587419877    -0.2692766409
   14      H       4.5659637339     3.1311627355    -1.7719372538
   15      H       3.2192612515     3.6121018079     0.9447339030
   16      H       3.1260878858     4.6703627905    -0.4590864625
   17      H       3.3863457527     0.7409636912    -1.9242196110
   18      N       0.9315723625     0.5939302253    -0.7942938700
   19      H       0.8024957372     0.5217251348    -1.7968919912
   20      C       0.0000000000     0.0000000000     0.0000000000
   21      H      -0.7899738588    -0.5065817117    -0.5873052394
   22      O       0.0000000000     0.0000000000     1.2238135054
 ----------------------------------------------------------------
 Nuclear Repulsion Energy =         466.63298041 hartrees
 There are       35 alpha and       35 beta electrons
 Requested basis set is 6-31+G(d)
 There are 71 shells and 197 basis functions

 Total QAlloc Memory Limit   8000 MB
 Mega-Array Size      1956 MB
 MEM_STATIC part      2000 MB
 Discretize the solute cavity surface with Lebedev spheres
	Using 302 Lebedev grid points for each H atom
	Using 302 Lebedev grid points for other atoms
	Atomic van der Waals radii will be scaled by 1.20
 Remove points where switching function is < 1.0e-08
 Keep 2701 surface tesserae and discard 3943 interior tesserae
 Molecular Surface Area = 182.842 Angst**2
 Applying Cartesian multipole field
    Component          Value
    ---------          -----
     (0,0,1)        3.89000E-03
 Nucleus-field energy     =    -0.1536693442 hartrees
 A cutoff of  1.0D-14 yielded   2413 shell pairs
 There are     18998 function pairs
 Smallest overlap matrix eigenvalue = 2.48E-05
 Guess from superposition of atomic densities
 Warning:  Energy on first SCF cycle will be non-variational
 SAD guess density has 70.000000 electrons

 -----------------------------------------------------------------------
  General SCF calculation program by
  Eric Jon Sundstrom, Paul Horn, Yuezhi Mao, Dmitri Zuev, Alec White,
  David Stuck, Shaama M.S., Shane Yost, Joonho Lee, David Small,
  Daniel Levine, Susi Lehtola, Hugh Burton, Evgeny Epifanovsky,
  Bang C. Huynh
 -----------------------------------------------------------------------
 Exchange:     0.2000 Hartree-Fock + 0.0800 Slater + 0.7200 B88
 Correlation:  0.1900 VWN1RPA + 0.8100 LYP
 Using Euler-Maclaurin-Lebedev (99,590) quadrature formula
 using 16 threads for integral computing
 -------------------------------------------------------
 OpenMP Integral computing Module                
 Release: version 2.0, May 2017, Q-Chem Inc. Pleasanton 
 -------------------------------------------------------
 A restricted SCF calculation will be
 performed using DIIS
 SCF converges when DIIS error is below 1.0e-09
 ---------------------------------------
  Cycle       Energy         DIIS error
 ---------------------------------------
    1    -406.2319506887      5.08e-02  
    2    -404.4134895123      6.47e-03  
    3    -404.1706925773      1.02e-02  
    4    -404.5905831081      2.04e-03  
    5    -404.6064238146      5.42e-04  
    6    -404.6075730201      1.60e-04  
    7    -404.6076721485      5.64e-05  
    8    -404.6076854460      1.00e-05  
    9    -404.6076858658      2.51e-06  
   10    -404.6076858924      5.37e-07  
   11    -404.6076858936      1.95e-07  
   12    -404.6076858938      2.58e-08  
   13    -404.6076858938      6.29e-09  
   14    -404.6076858938      3.12e-09  
   15    -404.6076858938      5.60e-10  Convergence criterion met
 ---------------------------------------
 SCF time:   CPU 1043.38s  wall 71.00s 

************** Final PCM Free Energy Summary **************
 G_electrostatic  =      -0.01793274 hartree =     -11.25296368 kcal/mol
 G_cavitation     =       0.00000000 hartree =       0.00000000 kcal/mol
 G_dispersion     =       0.00000000 hartree =       0.00000000 kcal/mol
 G_repulsion      =       0.00000000 hartree =       0.00000000 kcal/mol
 --------------------------------------------------
 Non-electrostatic Free Energy =       0.00000000 hartree =       0.00000000 kcal/mol
 Total                         =      -0.01793274 hartree =     -11.25296368 kcal/mol
 --------------------------------------------------
 SCF Energy (H0 + V/2)                       =    -404.60768589 
 Solute Internal Energy (H0)                 =    -404.58975315 
 Total Free Energy (H0 + V/2 + non-elec)     =    -404.60768589 hartree
                                             = -253895.15493775 kcal/mol
***********************************************************

 SCF   energy in the final basis set =     -404.6076858938
 Total energy in the final basis set =     -404.6076858938
 
 --------------------------------------------------------------
 
                    Orbital Energies (a.u.)
 --------------------------------------------------------------
 
 Alpha MOs
 -- Occupied --
-19.1383 -14.3667 -10.2940 -10.2228 -10.1796 -10.1789 -10.1788 -10.1785
-10.1747  -1.0483  -0.9284  -0.8211  -0.7389  -0.7385  -0.6331  -0.6089
 -0.5889  -0.5615  -0.5230  -0.4825  -0.4597  -0.4398  -0.4363  -0.4206
 -0.4180  -0.3937  -0.3764  -0.3745  -0.3440  -0.3407  -0.3193  -0.3100
 -0.3077  -0.2737  -0.2582
 -- Virtual --
  0.0037   0.0101   0.0211   0.0262   0.0268   0.0431   0.0497   0.0508
  0.0621   0.0723   0.0733   0.0863   0.0870   0.0958   0.1041   0.1099
  0.1153   0.1191   0.1307   0.1356   0.1422   0.1546   0.1603   0.1640
  0.1718   0.1806   0.1849   0.1923   0.2019   0.2057   0.2141   0.2168
  0.2227   0.2290   0.2306   0.2482   0.2501   0.2589   0.2662   0.2746
  0.2769   0.2822   0.2924   0.2935   0.2980   0.3030   0.3136   0.3301
  0.3319   0.3342   0.3609   0.3753   0.3800   0.3908   0.4202   0.4216
  0.4417   0.4618   0.4896   0.6135   0.6419   0.6604   0.6691   0.6704
  0.6863   0.6996   0.7322   0.7356   0.7500   0.7535   0.7780   0.7827
  0.8043   0.8086   0.8246   0.8534   0.8650   0.9105   0.9559   0.9789
  0.9836   0.9941   1.0243   1.0303   1.0315   1.0601   1.0921   1.1110
  1.1234   1.1271   1.1301   1.1448   1.1621   1.1760   1.1848   1.1898
  1.2389   1.2438   1.2796   1.3220   1.3448   1.3706   1.3950   1.4211
  1.4814   1.4906   1.4935   1.5690   1.5744   1.6119   1.7006   1.7329
  1.7370   1.7540   1.7724   1.8043   1.8513   1.8693   1.9048   1.9100
  1.9146   1.9379   1.9864   2.0148   2.0213   2.0489   2.0584   2.0901
  2.0964   2.1313   2.2048   2.2242   2.2783   2.3133   2.3169   2.3525
  2.4039   2.4133   2.4223   2.4259   2.4529   2.5638   2.5898   2.6245
  2.6760   2.6864   2.7070   2.7646   2.7797   2.8368   2.8700   3.0052
  3.1845   4.0943   4.1944   4.2310   4.2978   4.3364   4.4165   4.6063
  4.6114   4.6768
 --------------------------------------------------------------
 
          Ground-State Mulliken Net Atomic Charges

     Atom                 Charge (a.u.)
  ----------------------------------------
      1 C                    -0.263302
      2 C                    -0.420686
      3 C                    -0.283177
      4 C                    -0.460112
      5 C                    -0.365684
      6 C                    -0.464409
      7 H                     0.206313
      8 H                     0.211296
      9 H                     0.229331
     10 H                     0.203253
     11 H                     0.187677
     12 H                     0.209810
     13 H                     0.192613
     14 H                     0.221378
     15 H                     0.187217
     16 H                     0.207297
     17 H                     0.229756
     18 N                    -0.400204
     19 H                     0.457747
     20 C                     0.339401
     21 H                     0.186590
     22 O                    -0.612106
  ----------------------------------------
  Sum of atomic charges =     0.000000

 -----------------------------------------------------------------
                    Cartesian Multipole Moments
 -----------------------------------------------------------------
    Charge (ESU x 10^10)
                 0.0000
    Dipole Moment (Debye)
         X       2.0188      Y       1.3158      Z      -6.0764
       Tot       6.5368
    Quadrupole Moments (Debye-Ang)
        XX     -50.7890     XY       3.9817     YY     -54.4229
        XZ      -3.7448     YZ      -2.5057     ZZ     -56.8386
    Octopole Moments (Debye-Ang^2)
       XXX    -390.9402    XXY     -79.9076    XYY    -129.2920
       YYY    -262.8493    XXZ       3.9596    XYZ      -7.9556
       YYZ      10.8000    XZZ    -128.4375    YZZ     -84.6101
       ZZZ      32.1749
    Hexadecapole Moments (Debye-Ang^3)
      XXXX   -2976.7215   XXXY    -845.7541   XXYY    -742.8385
      XYYY    -857.5906   YYYY   -1513.3804   XXXZ     156.6984
      XXYZ      19.2175   XYYZ      49.7239   YYYZ     103.1961
      XXZZ    -532.8757   XYZZ    -279.7369   YYZZ    -293.6999
      XZZZ     188.0254   YZZZ     112.7481   ZZZZ    -249.6006
 -----------------------------------------------------------------
 Calculating analytic gradient of the SCF energy
 Gradient of SCF Energy
            1           2           3           4           5           6
    1   0.0031148   0.0017239  -0.0006932  -0.0046350  -0.0033581   0.0001759
    2  -0.0027147   0.0012700   0.0037139   0.0021585  -0.0027599  -0.0044525
    3   0.0109969   0.0018709   0.0121656  -0.0006745   0.0073668  -0.0009140
            7           8           9          10          11          12
    1   0.0001312   0.0002614  -0.0003199  -0.0005325   0.0001321   0.0027213
    2  -0.0014084   0.0003327   0.0005427   0.0003335  -0.0000919  -0.0011635
    3  -0.0004914  -0.0035383  -0.0081532  -0.0006514  -0.0007233  -0.0013982
           13          14          15          16          17          18
    1   0.0012536   0.0000672  -0.0000083  -0.0000516  -0.0001710   0.0080924
    2   0.0007797   0.0004539   0.0002471   0.0026538   0.0002983   0.0046694
    3   0.0002112  -0.0058217  -0.0009395  -0.0009397  -0.0085760   0.0027728
           19          20          21          22
    1  -0.0005815  -0.0043426  -0.0033601   0.0003801
    2  -0.0001745  -0.0027871  -0.0021580   0.0002571
    3  -0.0129951   0.0407996  -0.0064307  -0.0239368
 Max gradient component =       4.080E-02
 RMS gradient           =       6.993E-03
 Computing fast CPCM-SWIG gradient
 Updating gradient with PCM contributions...
 -- total gradient after adding PCM contribution --
---------------------------------------------------
  Atom         X              Y              Z     
---------------------------------------------------
   1       0.000321      -0.000291       0.002237
   2      -0.000921      -0.000497       0.000115
   3      -0.000228       0.000279       0.002294
   4       0.000093      -0.000039       0.000343
   5      -0.000077      -0.000068       0.001216
   6       0.000053       0.000022       0.000424
   7      -0.000212       0.000370      -0.000129
   8      -0.001117      -0.000573      -0.000481
   9      -0.000129       0.000502      -0.001381
  10       0.000407      -0.000424      -0.000235
  11       0.000088      -0.000110      -0.001267
  12       0.000399      -0.000049       0.000475
  13      -0.000302      -0.000196      -0.000172
  14       0.000265       0.000250      -0.000976
  15      -0.000170       0.000307      -0.001278
  16       0.000145       0.000210       0.000534
  17       0.000370      -0.000105      -0.001492
  18       0.007844       0.004830      -0.009405
  19       0.000660       0.000385       0.001859
  20      -0.006406      -0.004051       0.033015
  21      -0.001844      -0.001199      -0.001496
  22       0.000762       0.000446      -0.024202
---------------------------------------------------
 Number of fixed atoms: 0
 Gradient time:  CPU 141.20 s  wall 14.73 s
 Geometry Optimization Parameters
   NAtoms,    NIC,     NZ,  NCons,   NDum,   NFix, NCnnct, MaxDiis
       22     172       0       0       0       0       0       0


** GEOMETRY OPTIMIZATION IN DELOCALIZED INTERNAL COORDINATES **
   Searching for a Minimum

   Optimization Cycle:   1

                       Coordinates (Angstroms)
     ATOM                X               Y               Z
      1  C         1.9839655798    2.8343873569   -0.6530035790
      2  C         2.0889665948    1.3399289492   -0.2973932582
      3  C         3.4017166944    0.7321441035   -0.8222227424
      4  C         4.6254659785    1.5200300416   -0.3255741318
      5  C         4.5210827926    3.0122209378   -0.6783481608
      6  C         3.2094896156    3.6188525050   -0.1554554411
      7  H         3.4653882129   -0.3186255299   -0.5134835234
      8  H         2.0538505535    1.2303619181    0.7916336585
      9  H         1.9041773336    2.9373830819   -1.7471760654
     10  H         1.0604862058    3.2447823031   -0.2264495779
     11  H         4.7056113531    1.4098609561    0.7662015896
     12  H         5.5416784391    1.0893334561   -0.7496610014
     13  H         5.3807748665    3.5587419877   -0.2692766409
     14  H         4.5659637339    3.1311627355   -1.7719372538
     15  H         3.2192612515    3.6121018079    0.9447339030
     16  H         3.1260878858    4.6703627905   -0.4590864625
     17  H         3.3863457527    0.7409636912   -1.9242196110
     18  N         0.9315723625    0.5939302253   -0.7942938700
     19  H         0.8024957372    0.5217251348   -1.7968919912
     20  C         0.0000000000    0.0000000000    0.0000000000
     21  H        -0.7899738588   -0.5065817117   -0.5873052394
     22  O         0.0000000000    0.0000000000    1.2238135054
   Point Group: c1    Number of degrees of freedom:    60


   Energy is   -404.607685894


 Attempting to generate delocalized internal coordinates
 Initial Hessian constructed with Jon Baker's OPTIMIZE code

 60 Hessian modes will be used to form the next step
  Hessian Eigenvalues:
     0.005967    0.006024    0.006964    0.007193    0.012605    0.019501
     0.019786    0.020845    0.020845    0.037215    0.038526    0.039417
     0.041724    0.048166    0.048450    0.048891    0.055292    0.055631
     0.055746    0.059934    0.066958    0.081508    0.081536    0.081616
     0.082032    0.082133    0.084029    0.087513    0.120967    0.121178
     0.142989    0.159989    0.160000    0.160554    0.174868    0.210947
     0.220000    0.220003    0.272263    0.272658    0.275535    0.286789
     0.287121    0.287175    0.329119    0.334466    0.334727    0.335769
     0.336541    0.336553    0.339301    0.339441    0.339454    0.340119
     0.340274    0.342312    0.364811    0.454000    0.528079    0.937134

 Minimum search - taking simple RFO step
 Searching for Lamda that Minimizes Along All modes
 Value Taken    Lamda =  -0.00107086
 Step Taken.  Stepsize is  0.064856

                             Maximum     Tolerance    Cnvgd?
         Gradient           0.013947      0.000100      NO
         Displacement       0.025743      0.000100      NO
         Energy change     *********      0.000000      NO


 New Cartesian Coordinates Obtained by Inverse Iteration

 Displacement from previous Coordinates is:  0.084583
 ----------------------------------------------------------------
             Standard Nuclear Orientation (Angstroms)
    I     Atom           X                Y                Z
 ----------------------------------------------------------------
    1      C       1.9837579916     2.8322073796    -0.6530308171
    2      C       2.0925881002     1.3401890736    -0.2897846264
    3      C       3.4014986344     0.7320091949    -0.8229436192
    4      C       4.6250261070     1.5198159452    -0.3262807107
    5      C       4.5199981859     3.0119766972    -0.6785537520
    6      C       3.2082041241     3.6178625197    -0.1554670001
    7      H       3.4680237757    -0.3201236194    -0.5172581001
    8      H       2.0711486395     1.2381732613     0.8009051108
    9      H       1.9061041495     2.9270360172    -1.7458319881
   10      H       1.0591253252     3.2453549437    -0.2292872876
   11      H       4.7075026789     1.4091315727     0.7672731692
   12      H       5.5384683240     1.0898971218    -0.7563608594
   13      H       5.3803990651     3.5595818334    -0.2706816555
   14      H       4.5618385648     3.1292778961    -1.7707817323
   15      H       3.2188235515     3.6122876926     0.9467730410
   16      H       3.1227613540     4.6674973932    -0.4646719694
   17      H       3.3787667156     0.7453841217    -1.9224231343
   18      N       0.9326851573     0.5935493740    -0.7842976702
   19      H       0.8045480985     0.5216561895    -1.7893775532
   20      C       0.0009989246     0.0026893670    -0.0078054262
   21      H      -0.7802788765    -0.4966575416    -0.6049648982
   22      O      -0.0175815057    -0.0057296929     1.2294555852
 ----------------------------------------------------------------
 Nuclear Repulsion Energy =         466.48591371 hartrees
 There are       35 alpha and       35 beta electrons
 Discretize the solute cavity surface with Lebedev spheres
	Using 302 Lebedev grid points for each H atom
	Using 302 Lebedev grid points for other atoms
	Atomic van der Waals radii will be scaled by 1.20
 Remove points where switching function is < 1.0e-08
 Keep 2705 surface tesserae and discard 3939 interior tesserae
 Molecular Surface Area = 182.945 Angst**2
 Applying Cartesian multipole field
    Component          Value
    ---------          -----
     (0,0,1)        3.89000E-03
 Nucleus-field energy     =    -0.1530068060 hartrees
 Requested basis set is 6-31+G(d)
 There are 71 shells and 197 basis functions
 A cutoff of  1.0D-14 yielded   2412 shell pairs
 There are     18997 function pairs
 Smallest overlap matrix eigenvalue = 2.46E-05
 Guess MOs from SCF MO coefficient file

 -----------------------------------------------------------------------
  General SCF calculation program by
  Eric Jon Sundstrom, Paul Horn, Yuezhi Mao, Dmitri Zuev, Alec White,
  David Stuck, Shaama M.S., Shane Yost, Joonho Lee, David Small,
  Daniel Levine, Susi Lehtola, Hugh Burton, Evgeny Epifanovsky,
  Bang C. Huynh
 -----------------------------------------------------------------------
 Exchange:     0.2000 Hartree-Fock + 0.0800 Slater + 0.7200 B88
 Correlation:  0.1900 VWN1RPA + 0.8100 LYP
 Using Euler-Maclaurin-Lebedev (99,590) quadrature formula
 using 16 threads for integral computing
 -------------------------------------------------------
 OpenMP Integral computing Module                
 Release: version 2.0, May 2017, Q-Chem Inc. Pleasanton 
 -------------------------------------------------------
 A restricted SCF calculation will be
 performed using Roothaan-Hall, DIIS
 SCF converges when DIIS error is below 1.0e-09
 ---------------------------------------
  Cycle       Energy         DIIS error
 ---------------------------------------
    1    -404.5893529756      6.20e-04  Roothaan Step
 ---------------------------------------
  Cycle       Energy         DIIS error
 ---------------------------------------
    1    -404.5973958470      1.25e-03  
    2    -404.5810272174      2.66e-03  
    3    -404.6081451940      2.02e-04  
    4    -404.6083054106      1.14e-04  
    5    -404.6083542887      3.79e-05  
    6    -404.6083600581      9.07e-06  
    7    -404.6083603642      3.26e-06  
    8    -404.6083604146      5.55e-07  
    9    -404.6083604159      2.50e-07  
   10    -404.6083604162      4.66e-08  
   11    -404.6083604162      1.27e-08  
   12    -404.6083604162      3.11e-09  
   13    -404.6083604162      3.95e-10  Convergence criterion met
 ---------------------------------------
 SCF time:   CPU 977.85s  wall 66.00s 

************** Final PCM Free Energy Summary **************
 G_electrostatic  =      -0.01906345 hartree =     -11.96249294 kcal/mol
 G_cavitation     =       0.00000000 hartree =       0.00000000 kcal/mol
 G_dispersion     =       0.00000000 hartree =       0.00000000 kcal/mol
 G_repulsion      =       0.00000000 hartree =       0.00000000 kcal/mol
 --------------------------------------------------
 Non-electrostatic Free Energy =       0.00000000 hartree =       0.00000000 kcal/mol
 Total                         =      -0.01906345 hartree =     -11.96249294 kcal/mol
 --------------------------------------------------
 SCF Energy (H0 + V/2)                       =    -404.60836042 
 Solute Internal Energy (H0)                 =    -404.58929697 
 Total Free Energy (H0 + V/2 + non-elec)     =    -404.60836042 hartree
                                             = -253895.57820695 kcal/mol
***********************************************************

 SCF   energy in the final basis set =     -404.6083604162
 Total energy in the final basis set =     -404.6083604162
 
 --------------------------------------------------------------
 
                    Orbital Energies (a.u.)
 --------------------------------------------------------------
 
 Alpha MOs
 -- Occupied --
-19.1366 -14.3693 -10.2935 -10.2241 -10.1801 -10.1794 -10.1793 -10.1789
-10.1748  -1.0410  -0.9308  -0.8224  -0.7405  -0.7391  -0.6346  -0.6092
 -0.5897  -0.5618  -0.5241  -0.4828  -0.4596  -0.4403  -0.4362  -0.4193
 -0.4172  -0.3938  -0.3766  -0.3731  -0.3447  -0.3416  -0.3199  -0.3102
 -0.3078  -0.2723  -0.2594
 -- Virtual --
  0.0035   0.0094   0.0208   0.0260   0.0266   0.0433   0.0495   0.0508
  0.0621   0.0723   0.0732   0.0862   0.0869   0.0953   0.1040   0.1097
  0.1151   0.1190   0.1308   0.1356   0.1421   0.1542   0.1601   0.1638
  0.1716   0.1806   0.1847   0.1921   0.2014   0.2053   0.2138   0.2160
  0.2223   0.2287   0.2303   0.2480   0.2500   0.2589   0.2661   0.2740
  0.2767   0.2827   0.2913   0.2931   0.2981   0.3023   0.3127   0.3295
  0.3324   0.3341   0.3603   0.3754   0.3828   0.3908   0.4200   0.4222
  0.4408   0.4625   0.4849   0.6125   0.6413   0.6597   0.6688   0.6701
  0.6851   0.6992   0.7320   0.7355   0.7495   0.7538   0.7778   0.7803
  0.8027   0.8084   0.8239   0.8532   0.8660   0.9138   0.9572   0.9780
  0.9833   0.9940   1.0242   1.0295   1.0310   1.0599   1.0918   1.1095
  1.1229   1.1269   1.1294   1.1443   1.1614   1.1761   1.1860   1.1913
  1.2399   1.2438   1.2807   1.3232   1.3458   1.3751   1.3926   1.4222
  1.4809   1.4887   1.4950   1.5685   1.5741   1.6132   1.6954   1.7347
  1.7358   1.7538   1.7727   1.8058   1.8527   1.8699   1.9055   1.9091
  1.9142   1.9400   1.9859   2.0124   2.0218   2.0475   2.0584   2.0867
  2.0942   2.1298   2.2043   2.2203   2.2786   2.3151   2.3159   2.3499
  2.3995   2.4132   2.4218   2.4252   2.4511   2.5637   2.5874   2.6210
  2.6759   2.6860   2.7050   2.7650   2.7814   2.8360   2.8668   2.9934
  3.1846   4.0959   4.1941   4.2291   4.2975   4.3356   4.4157   4.6066
  4.6129   4.6768
 --------------------------------------------------------------
 
          Ground-State Mulliken Net Atomic Charges

     Atom                 Charge (a.u.)
  ----------------------------------------
      1 C                    -0.259662
      2 C                    -0.437666
      3 C                    -0.278277
      4 C                    -0.460209
      5 C                    -0.365084
      6 C                    -0.464574
      7 H                     0.207063
      8 H                     0.212580
      9 H                     0.230399
     10 H                     0.203964
     11 H                     0.187723
     12 H                     0.210235
     13 H                     0.192762
     14 H                     0.221815
     15 H                     0.187202
     16 H                     0.207655
     17 H                     0.230769
     18 N                    -0.386079
     19 H                     0.459388
     20 C                     0.341023
     21 H                     0.188040
     22 O                    -0.629067
  ----------------------------------------
  Sum of atomic charges =     0.000000

 -----------------------------------------------------------------
                    Cartesian Multipole Moments
 -----------------------------------------------------------------
    Charge (ESU x 10^10)
                -0.0000
    Dipole Moment (Debye)
         X       2.1831      Y       1.4092      Z      -6.2691
       Tot       6.7863
    Quadrupole Moments (Debye-Ang)
        XX     -50.5514     XY       4.1065     YY     -54.3092
        XZ      -3.7531     YZ      -2.5364     ZZ     -56.8770
    Octopole Moments (Debye-Ang^2)
       XXX    -389.6661    XXY     -79.4369    XYY    -128.8443
       YYY    -262.2807    XXZ       3.5333    XYZ      -8.0358
       YYZ      10.4284    XZZ    -128.0213    YZZ     -84.4045
       ZZZ      31.4345
    Hexadecapole Moments (Debye-Ang^3)
      XXXX   -2972.7532   XXXY    -843.8529   XXYY    -741.4228
      XYYY    -856.4506   YYYY   -1511.1058   XXXZ     155.8584
      XXYZ      18.9293   XYYZ      49.3831   YYYZ     102.3751
      XXZZ    -532.0614   XYZZ    -279.2449   YYZZ    -293.2518
      XZZZ     187.8506   YZZZ     112.4183   ZZZZ    -249.9755
 -----------------------------------------------------------------
 Calculating analytic gradient of the SCF energy
 Gradient of SCF Energy
            1           2           3           4           5           6
    1   0.0033488   0.0022223  -0.0004078  -0.0051557  -0.0034852   0.0000829
    2  -0.0026314   0.0015068   0.0040097   0.0023345  -0.0028504  -0.0049318
    3   0.0093890   0.0018279   0.0106014  -0.0011999   0.0065728  -0.0015562
            7           8           9          10          11          12
    1   0.0003358   0.0015553  -0.0002686  -0.0010852   0.0001156   0.0024160
    2  -0.0019681   0.0010356   0.0000072   0.0008093   0.0000333  -0.0011754
    3  -0.0003779  -0.0028878  -0.0071422  -0.0004214   0.0007462  -0.0019263
           13          14          15          16          17          18
    1   0.0016671  -0.0001952   0.0002068  -0.0002298  -0.0006534   0.0031823
    2   0.0010573   0.0002229  -0.0000217   0.0025552   0.0003849   0.0017412
    3   0.0004244  -0.0050012   0.0005149  -0.0015081  -0.0074616   0.0079545
           19          20          21          22
    1  -0.0015208  -0.0006871  -0.0012535  -0.0001906
    2  -0.0006865  -0.0007081  -0.0007331   0.0000086
    3  -0.0150750   0.0193528  -0.0063965  -0.0064299
 Max gradient component =       1.935E-02
 RMS gradient           =       4.456E-03
 Computing fast CPCM-SWIG gradient
 Updating gradient with PCM contributions...
 -- total gradient after adding PCM contribution --
---------------------------------------------------
  Atom         X              Y              Z     
---------------------------------------------------
   1       0.000379      -0.000083       0.000256
   2      -0.000648      -0.000440       0.000205
   3       0.000062       0.000360       0.000349
   4      -0.000213       0.000014      -0.000093
   5      -0.000091      -0.000056       0.000208
   6      -0.000062      -0.000252      -0.000108
   7      -0.000024      -0.000036      -0.000028
   8       0.000136       0.000109       0.000128
   9      -0.000067       0.000029      -0.000094
  10      -0.000048      -0.000004      -0.000015
  11       0.000078       0.000017       0.000101
  12       0.000025      -0.000013       0.000052
  13       0.000041       0.000037       0.000011
  14       0.000036       0.000027       0.000005
  15       0.000037       0.000056       0.000093
  16      -0.000009       0.000029       0.000052
  17      -0.000019      -0.000052      -0.000106
  18       0.002944       0.001925      -0.004412
  19      -0.000248      -0.000119       0.000201
  20      -0.002652      -0.001918       0.011236
  21       0.000175       0.000171      -0.001253
  22       0.000166       0.000199      -0.006788
---------------------------------------------------
 Number of fixed atoms: 0
 Gradient time:  CPU 135.59 s  wall 13.26 s
 Geometry Optimization Parameters
   NAtoms,    NIC,     NZ,  NCons,   NDum,   NFix, NCnnct, MaxDiis
       22     172       0       0       0       0       0       0

 Cartesian Hessian Update
 Hessian updated using BFGS update


** GEOMETRY OPTIMIZATION IN DELOCALIZED INTERNAL COORDINATES **
   Searching for a Minimum

   Optimization Cycle:   2

                       Coordinates (Angstroms)
     ATOM                X               Y               Z
      1  C         1.9837579916    2.8322073796   -0.6530308171
      2  C         2.0925881002    1.3401890736   -0.2897846264
      3  C         3.4014986344    0.7320091949   -0.8229436192
      4  C         4.6250261070    1.5198159452   -0.3262807107
      5  C         4.5199981859    3.0119766972   -0.6785537520
      6  C         3.2082041241    3.6178625197   -0.1554670001
      7  H         3.4680237757   -0.3201236194   -0.5172581001
      8  H         2.0711486395    1.2381732613    0.8009051108
      9  H         1.9061041495    2.9270360172   -1.7458319881
     10  H         1.0591253252    3.2453549437   -0.2292872876
     11  H         4.7075026789    1.4091315727    0.7672731692
     12  H         5.5384683240    1.0898971218   -0.7563608594
     13  H         5.3803990651    3.5595818334   -0.2706816555
     14  H         4.5618385648    3.1292778961   -1.7707817323
     15  H         3.2188235515    3.6122876926    0.9467730410
     16  H         3.1227613540    4.6674973932   -0.4646719694
     17  H         3.3787667156    0.7453841217   -1.9224231343
     18  N         0.9326851573    0.5935493740   -0.7842976702
     19  H         0.8045480985    0.5216561895   -1.7893775532
     20  C         0.0009989246    0.0026893670   -0.0078054262
     21  H        -0.7802788765   -0.4966575416   -0.6049648982
     22  O        -0.0175815057   -0.0057296929    1.2294555852
   Point Group: c1    Number of degrees of freedom:    60


   Energy is   -404.608360416

 Hessian updated using BFGS update

 60 Hessian modes will be used to form the next step
  Hessian Eigenvalues:
     0.005966    0.006012    0.006963    0.007193    0.012605    0.019500
     0.019787    0.020845    0.020861    0.037298    0.038622    0.039416
     0.041869    0.048440    0.048451    0.048931    0.055293    0.055724
     0.055850    0.060209    0.066958    0.081526    0.081563    0.081638
     0.082029    0.082133    0.084102    0.087512    0.120967    0.121088
     0.142965    0.156175    0.160083    0.163092    0.174887    0.210598
     0.213031    0.224385    0.272234    0.272634    0.275535    0.286830
     0.287139    0.287242    0.328162    0.334532    0.334828    0.335817
     0.336547    0.338390    0.339433    0.339438    0.339511    0.340166
     0.340861    0.342924    0.364511    0.445722    0.457846    0.808633

 Minimum search - taking simple RFO step
 Searching for Lamda that Minimizes Along All modes
 Value Taken    Lamda =  -0.00017467
 Step Taken.  Stepsize is  0.034082

                             Maximum     Tolerance    Cnvgd?
         Gradient           0.004953      0.000100      NO
         Displacement       0.019389      0.000100      NO
         Energy change     -0.000675      0.000000      NO


 New Cartesian Coordinates Obtained by Inverse Iteration

 Displacement from previous Coordinates is:  0.033230
 ----------------------------------------------------------------
             Standard Nuclear Orientation (Angstroms)
    I     Atom           X                Y                Z
 ----------------------------------------------------------------
    1      C       1.9835030202     2.8326615288    -0.6557610043
    2      C       2.0934839485     1.3411593835    -0.2896240691
    3      C       3.4010538597     0.7319807598    -0.8258620042
    4      C       4.6245055836     1.5187720125    -0.3268289485
    5      C       4.5203542143     3.0119532284    -0.6767233112
    6      C       3.2073351053     3.6184469794    -0.1561440301
    7      H       3.4674231506    -0.3207000978    -0.5220993472
    8      H       2.0735014389     1.2397860748     0.8009185393
    9      H       1.9087982711     2.9256966414    -1.7485518756
   10      H       1.0581415214     3.2463311586    -0.2341560259
   11      H       4.7045522053     1.4058726467     0.7666581380
   12      H       5.5382460717     1.0893047120    -0.7565714110
   13      H       5.3797526349     3.5582792988    -0.2651103766
   14      H       4.5651781648     3.1310462495    -1.7684305345
   15      H       3.2151564302     3.6119545043     0.9461166762
   16      H       3.1227369215     4.6680242903    -0.4655710253
   17      H       3.3780820368     0.7485222619    -1.9249049007
   18      N       0.9315983908     0.5935324037    -0.7794666007
   19      H       0.8061728235     0.5220282078    -1.7853972600
   20      C       0.0014505546     0.0051119684    -0.0106025997
   21      H      -0.7808432514    -0.4991085259    -0.6000168989
   22      O      -0.0157760113    -0.0075889463     1.2327329762
 ----------------------------------------------------------------
 Nuclear Repulsion Energy =         466.45956222 hartrees
 There are       35 alpha and       35 beta electrons
 Discretize the solute cavity surface with Lebedev spheres
	Using 302 Lebedev grid points for each H atom
	Using 302 Lebedev grid points for other atoms
	Atomic van der Waals radii will be scaled by 1.20
 Remove points where switching function is < 1.0e-08
 Keep 2702 surface tesserae and discard 3942 interior tesserae
 Molecular Surface Area = 182.965 Angst**2
 Applying Cartesian multipole field
    Component          Value
    ---------          -----
     (0,0,1)        3.89000E-03
 Nucleus-field energy     =    -0.1529073606 hartrees
 Requested basis set is 6-31+G(d)
 There are 71 shells and 197 basis functions
 A cutoff of  1.0D-14 yielded   2412 shell pairs
 There are     18997 function pairs
 Smallest overlap matrix eigenvalue = 2.47E-05
 Guess MOs from SCF MO coefficient file

 -----------------------------------------------------------------------
  General SCF calculation program by
  Eric Jon Sundstrom, Paul Horn, Yuezhi Mao, Dmitri Zuev, Alec White,
  David Stuck, Shaama M.S., Shane Yost, Joonho Lee, David Small,
  Daniel Levine, Susi Lehtola, Hugh Burton, Evgeny Epifanovsky,
  Bang C. Huynh
 -----------------------------------------------------------------------
 Exchange:     0.2000 Hartree-Fock + 0.0800 Slater + 0.7200 B88
 Correlation:  0.1900 VWN1RPA + 0.8100 LYP
 Using Euler-Maclaurin-Lebedev (99,590) quadrature formula
 using 16 threads for integral computing
 -------------------------------------------------------
 OpenMP Integral computing Module                
 Release: version 2.0, May 2017, Q-Chem Inc. Pleasanton 
 -------------------------------------------------------
 A restricted SCF calculation will be
 performed using Roothaan-Hall, DIIS
 SCF converges when DIIS error is below 1.0e-09
 ---------------------------------------
  Cycle       Energy         DIIS error
 ---------------------------------------
    1    -404.5890790497      5.93e-04  Roothaan Step
 ---------------------------------------
  Cycle       Energy         DIIS error
 ---------------------------------------
    1    -404.5972290020      1.26e-03  
    2    -404.5806429741      2.68e-03  
    3    -404.6082285104      2.02e-04  
    4    -404.6083950931      1.10e-04  
    5    -404.6084400020      3.88e-05  
    6    -404.6084460555      9.01e-06  
    7    -404.6084463559      3.25e-06  
    8    -404.6084464059      5.57e-07  
    9    -404.6084464072      2.48e-07  
   10    -404.6084464074      4.85e-08  
   11    -404.6084464074      1.23e-08  
   12    -404.6084464074      3.25e-09  
   13    -404.6084464074      4.00e-10  Convergence criterion met
 ---------------------------------------
 SCF time:   CPU 1010.41s  wall 68.00s 

************** Final PCM Free Energy Summary **************
 G_electrostatic  =      -0.01955105 hartree =     -12.26847086 kcal/mol
 G_cavitation     =       0.00000000 hartree =       0.00000000 kcal/mol
 G_dispersion     =       0.00000000 hartree =       0.00000000 kcal/mol
 G_repulsion      =       0.00000000 hartree =       0.00000000 kcal/mol
 --------------------------------------------------
 Non-electrostatic Free Energy =       0.00000000 hartree =       0.00000000 kcal/mol
 Total                         =      -0.01955105 hartree =     -12.26847086 kcal/mol
 --------------------------------------------------
 SCF Energy (H0 + V/2)                       =    -404.60844641 
 Solute Internal Energy (H0)                 =    -404.58889535 
 Total Free Energy (H0 + V/2 + non-elec)     =    -404.60844641 hartree
                                             = -253895.63216727 kcal/mol
***********************************************************

 SCF   energy in the final basis set =     -404.6084464074
 Total energy in the final basis set =     -404.6084464074
 
 --------------------------------------------------------------
 
                    Orbital Energies (a.u.)
 --------------------------------------------------------------
 
 Alpha MOs
 -- Occupied --
-19.1353 -14.3703 -10.2932 -10.2246 -10.1803 -10.1796 -10.1795 -10.1792
-10.1750  -1.0380  -0.9318  -0.8229  -0.7412  -0.7393  -0.6353  -0.6094
 -0.5902  -0.5620  -0.5248  -0.4831  -0.4593  -0.4407  -0.4361  -0.4184
 -0.4168  -0.3939  -0.3769  -0.3723  -0.3450  -0.3418  -0.3200  -0.3104
 -0.3079  -0.2715  -0.2598
 -- Virtual --
  0.0035   0.0092   0.0207   0.0260   0.0265   0.0434   0.0495   0.0507
  0.0620   0.0723   0.0732   0.0863   0.0870   0.0952   0.1039   0.1096
  0.1151   0.1190   0.1308   0.1357   0.1422   0.1541   0.1601   0.1638
  0.1715   0.1802   0.1846   0.1921   0.2014   0.2052   0.2133   0.2159
  0.2223   0.2287   0.2301   0.2478   0.2499   0.2588   0.2660   0.2739
  0.2767   0.2824   0.2909   0.2930   0.2982   0.3023   0.3122   0.3292
  0.3328   0.3344   0.3599   0.3753   0.3841   0.3909   0.4197   0.4231
  0.4406   0.4628   0.4829   0.6121   0.6413   0.6595   0.6687   0.6701
  0.6848   0.6990   0.7319   0.7353   0.7497   0.7537   0.7775   0.7796
  0.8022   0.8082   0.8233   0.8533   0.8666   0.9143   0.9565   0.9780
  0.9833   0.9940   1.0241   1.0292   1.0309   1.0596   1.0919   1.1092
  1.1227   1.1269   1.1292   1.1439   1.1614   1.1758   1.1862   1.1912
  1.2400   1.2444   1.2810   1.3242   1.3464   1.3756   1.3918   1.4220
  1.4801   1.4886   1.4956   1.5677   1.5736   1.6140   1.6957   1.7345
  1.7352   1.7542   1.7727   1.8062   1.8527   1.8706   1.9054   1.9084
  1.9143   1.9397   1.9857   2.0121   2.0220   2.0475   2.0584   2.0859
  2.0931   2.1305   2.2037   2.2188   2.2802   2.3160   2.3163   2.3484
  2.3969   2.4125   2.4209   2.4250   2.4504   2.5622   2.5872   2.6191
  2.6754   2.6854   2.7053   2.7648   2.7837   2.8355   2.8638   2.9884
  3.1860   4.0966   4.1936   4.2283   4.2972   4.3353   4.4141   4.6067
  4.6130   4.6762
 --------------------------------------------------------------
 
          Ground-State Mulliken Net Atomic Charges

     Atom                 Charge (a.u.)
  ----------------------------------------
      1 C                    -0.257931
      2 C                    -0.443713
      3 C                    -0.277341
      4 C                    -0.459596
      5 C                    -0.365408
      6 C                    -0.464090
      7 H                     0.207477
      8 H                     0.213151
      9 H                     0.230760
     10 H                     0.204346
     11 H                     0.187914
     12 H                     0.210414
     13 H                     0.192815
     14 H                     0.221943
     15 H                     0.187371
     16 H                     0.207836
     17 H                     0.231161
     18 N                    -0.380237
     19 H                     0.459773
     20 C                     0.340548
     21 H                     0.189623
     22 O                    -0.636818
  ----------------------------------------
  Sum of atomic charges =     0.000000

 -----------------------------------------------------------------
                    Cartesian Multipole Moments
 -----------------------------------------------------------------
    Charge (ESU x 10^10)
                 0.0000
    Dipole Moment (Debye)
         X       2.2309      Y       1.4462      Z      -6.3541
       Tot       6.8879
    Quadrupole Moments (Debye-Ang)
        XX     -50.4028     XY       4.1774     YY     -54.2288
        XZ      -3.8004     YZ      -2.5472     ZZ     -56.9428
    Octopole Moments (Debye-Ang^2)
       XXX    -389.0487    XXY     -79.2411    XYY    -128.6344
       YYY    -261.9694    XXZ       3.3485    XYZ      -8.0762
       YYZ      10.2949    XZZ    -127.9170    YZZ     -84.3449
       ZZZ      31.1761
    Hexadecapole Moments (Debye-Ang^3)
      XXXX   -2969.6007   XXXY    -842.9618   XXYY    -740.7032
      XYYY    -855.6189   YYYY   -1510.0123   XXXZ     155.4823
      XXYZ      18.8370   XYYZ      49.2610   YYYZ     102.3095
      XXZZ    -531.7317   XYZZ    -279.0450   YYZZ    -293.2099
      XZZZ     187.7713   YZZZ     112.4828   ZZZZ    -250.5391
 -----------------------------------------------------------------
 Calculating analytic gradient of the SCF energy
 Gradient of SCF Energy
            1           2           3           4           5           6
    1   0.0031840   0.0026731  -0.0002726  -0.0050100  -0.0034402   0.0000638
    2  -0.0025153   0.0017972   0.0038630   0.0022679  -0.0028262  -0.0047022
    3   0.0091869   0.0014225   0.0103231  -0.0012389   0.0064342  -0.0015850
            7           8           9          10          11          12
    1   0.0003693   0.0013627  -0.0001572  -0.0011521  -0.0000010   0.0024314
    2  -0.0020479   0.0009008  -0.0000159   0.0008697  -0.0000008  -0.0012061
    3  -0.0003549  -0.0030673  -0.0070467  -0.0003998   0.0007817  -0.0019712
           13          14          15          16          17          18
    1   0.0016622  -0.0002103   0.0001453  -0.0002503  -0.0006040   0.0005348
    2   0.0010448   0.0002061  -0.0001220   0.0025908   0.0004670  -0.0001931
    3   0.0004975  -0.0049494   0.0005566  -0.0015486  -0.0073555   0.0128510
           19          20          21          22
    1  -0.0013618   0.0013108  -0.0012292  -0.0000487
    2  -0.0007017   0.0018678  -0.0011483  -0.0003957
    3  -0.0154397   0.0083091  -0.0054241   0.0000186
 Max gradient component =       1.544E-02
 RMS gradient           =       3.967E-03
 Computing fast CPCM-SWIG gradient
 Updating gradient with PCM contributions...
 -- total gradient after adding PCM contribution --
---------------------------------------------------
  Atom         X              Y              Z     
---------------------------------------------------
   1       0.000155       0.000096      -0.000081
   2      -0.000244      -0.000196      -0.000211
   3       0.000190       0.000139      -0.000066
   4       0.000008      -0.000096      -0.000099
   5       0.000017       0.000013       0.000011
   6      -0.000085       0.000054      -0.000094
   7       0.000006      -0.000055      -0.000003
   8      -0.000076      -0.000045      -0.000010
   9       0.000032       0.000013       0.000103
  10      -0.000063       0.000033       0.000002
  11      -0.000034      -0.000012       0.000118
  12       0.000002      -0.000025       0.000034
  13       0.000016       0.000013       0.000066
  14       0.000012       0.000001       0.000113
  15      -0.000022      -0.000041       0.000119
  16      -0.000026       0.000021       0.000033
  17       0.000037       0.000008       0.000105
  18       0.000335      -0.000012       0.000434
  19      -0.000134      -0.000137      -0.000038
  20      -0.000648       0.000672       0.000156
  21       0.000208      -0.000228      -0.000227
  22       0.000314      -0.000215      -0.000466
---------------------------------------------------
 Number of fixed atoms: 0
 Gradient time:  CPU 140.75 s  wall 14.16 s
 Geometry Optimization Parameters
   NAtoms,    NIC,     NZ,  NCons,   NDum,   NFix, NCnnct, MaxDiis
       22     172       0       0       0       0       0       0

 Cartesian Hessian Update
 Hessian updated using BFGS update


** GEOMETRY OPTIMIZATION IN DELOCALIZED INTERNAL COORDINATES **
   Searching for a Minimum

   Optimization Cycle:   3

                       Coordinates (Angstroms)
     ATOM                X               Y               Z
      1  C         1.9835030202    2.8326615288   -0.6557610043
      2  C         2.0934839485    1.3411593835   -0.2896240691
      3  C         3.4010538597    0.7319807598   -0.8258620042
      4  C         4.6245055836    1.5187720125   -0.3268289485
      5  C         4.5203542143    3.0119532284   -0.6767233112
      6  C         3.2073351053    3.6184469794   -0.1561440301
      7  H         3.4674231506   -0.3207000978   -0.5220993472
      8  H         2.0735014389    1.2397860748    0.8009185393
      9  H         1.9087982711    2.9256966414   -1.7485518756
     10  H         1.0581415214    3.2463311586   -0.2341560259
     11  H         4.7045522053    1.4058726467    0.7666581380
     12  H         5.5382460717    1.0893047120   -0.7565714110
     13  H         5.3797526349    3.5582792988   -0.2651103766
     14  H         4.5651781648    3.1310462495   -1.7684305345
     15  H         3.2151564302    3.6119545043    0.9461166762
     16  H         3.1227369215    4.6680242903   -0.4655710253
     17  H         3.3780820368    0.7485222619   -1.9249049007
     18  N         0.9315983908    0.5935324037   -0.7794666007
     19  H         0.8061728235    0.5220282078   -1.7853972600
     20  C         0.0014505546    0.0051119684   -0.0106025997
     21  H        -0.7808432514   -0.4991085259   -0.6000168989
     22  O        -0.0157760113   -0.0075889463    1.2327329762
   Point Group: c1    Number of degrees of freedom:    60


   Energy is   -404.608446407

 Hessian updated using BFGS update

 60 Hessian modes will be used to form the next step
  Hessian Eigenvalues:
     0.005966    0.006006    0.006966    0.007189    0.012607    0.019498
     0.019786    0.020831    0.022110    0.037315    0.038583    0.039418
     0.041823    0.048449    0.048550    0.048924    0.055293    0.055725
     0.056033    0.060212    0.066957    0.081528    0.081567    0.081640
     0.082047    0.082135    0.084003    0.087514    0.120964    0.120978
     0.142993    0.147994    0.160401    0.162225    0.174879    0.210545
     0.217775    0.226472    0.272350    0.272759    0.275535    0.286926
     0.286973    0.288178    0.327533    0.334567    0.335044    0.335869
     0.336547    0.338485    0.339415    0.339434    0.339518    0.340165
     0.340898    0.342725    0.363584    0.450357    0.459865    0.783191

 Minimum search - taking simple RFO step
 Searching for Lamda that Minimizes Along All modes
 Value Taken    Lamda =  -0.00002072
 Step Taken.  Stepsize is  0.029261

                             Maximum     Tolerance    Cnvgd?
         Gradient           0.000509      0.000100      NO
         Displacement       0.022103      0.000100      NO
         Energy change     -0.000086      0.000000      NO


 New Cartesian Coordinates Obtained by Inverse Iteration

 Displacement from previous Coordinates is:  0.036118
 ----------------------------------------------------------------
             Standard Nuclear Orientation (Angstroms)
    I     Atom           X                Y                Z
 ----------------------------------------------------------------
    1      C       1.9830173849     2.8304996148    -0.6551357772
    2      C       2.0950959484     1.3393079172    -0.2890918023
    3      C       3.4025400981     0.7314987645    -0.8266488605
    4      C       4.6254358188     1.5194126276    -0.3275688765
    5      C       4.5197480972     3.0125857280    -0.6767126206
    6      C       3.2062820425     3.6174299952    -0.1555395560
    7      H       3.4700969813    -0.3211893513    -0.5235012408
    8      H       2.0758756905     1.2375945376     0.8013837918
    9      H       1.9079667748     2.9235349048    -1.7480312255
   10      H       1.0574270841     3.2429378704    -0.2331180626
   11      H       4.7059602167     1.4059156449     0.7656775812
   12      H       5.5395531449     1.0913207343    -0.7578197325
   13      H       5.3785581084     3.5594390957    -0.2646804065
   14      H       4.5644477772     3.1324276715    -1.7684271092
   15      H       3.2143020425     3.6106962583     0.9465708224
   16      H       3.1207219797     4.6669757661    -0.4646567640
   17      H       3.3788631161     0.7488721838    -1.9257905024
   18      N       0.9338154456     0.5904603802    -0.7793789984
   19      H       0.8098555306     0.5201826759    -1.7856029249
   20      C       0.0037641185     0.0022044588    -0.0111986925
   21      H      -0.7862395729    -0.4912657844    -0.5990791919
   22      O      -0.0226807429     0.0022250467     1.2329542551
 ----------------------------------------------------------------
 Nuclear Repulsion Energy =         466.46361413 hartrees
 There are       35 alpha and       35 beta electrons
 Discretize the solute cavity surface with Lebedev spheres
	Using 302 Lebedev grid points for each H atom
	Using 302 Lebedev grid points for other atoms
	Atomic van der Waals radii will be scaled by 1.20
 Remove points where switching function is < 1.0e-08
 Keep 2704 surface tesserae and discard 3940 interior tesserae
 Molecular Surface Area = 182.954 Angst**2
 Applying Cartesian multipole field
    Component          Value
    ---------          -----
     (0,0,1)        3.89000E-03
 Nucleus-field energy     =    -0.1529049828 hartrees
 Requested basis set is 6-31+G(d)
 There are 71 shells and 197 basis functions
 A cutoff of  1.0D-14 yielded   2412 shell pairs
 There are     18997 function pairs
 Smallest overlap matrix eigenvalue = 2.46E-05
 Guess MOs from SCF MO coefficient file

 -----------------------------------------------------------------------
  General SCF calculation program by
  Eric Jon Sundstrom, Paul Horn, Yuezhi Mao, Dmitri Zuev, Alec White,
  David Stuck, Shaama M.S., Shane Yost, Joonho Lee, David Small,
  Daniel Levine, Susi Lehtola, Hugh Burton, Evgeny Epifanovsky,
  Bang C. Huynh
 -----------------------------------------------------------------------
 Exchange:     0.2000 Hartree-Fock + 0.0800 Slater + 0.7200 B88
 Correlation:  0.1900 VWN1RPA + 0.8100 LYP
 Using Euler-Maclaurin-Lebedev (99,590) quadrature formula
 using 16 threads for integral computing
 -------------------------------------------------------
 OpenMP Integral computing Module                
 Release: version 2.0, May 2017, Q-Chem Inc. Pleasanton 
 -------------------------------------------------------
 A restricted SCF calculation will be
 performed using Roothaan-Hall, DIIS
 SCF converges when DIIS error is below 1.0e-09
 ---------------------------------------
  Cycle       Energy         DIIS error
 ---------------------------------------
    1    -404.5887408663      6.06e-04  Roothaan Step
 ---------------------------------------
  Cycle       Energy         DIIS error
 ---------------------------------------
    1    -404.5974100347      1.23e-03  
    2    -404.5818684058      2.62e-03  
    3    -404.6082160672      2.00e-04  
    4    -404.6083801054      1.08e-04  
    5    -404.6084235418      3.89e-05  
    6    -404.6084296110      9.15e-06  
    7    -404.6084299190      3.29e-06  
    8    -404.6084299703      5.69e-07  
    9    -404.6084299717      2.51e-07  
   10    -404.6084299720      4.89e-08  
   11    -404.6084299720      1.23e-08  
   12    -404.6084299720      3.29e-09  
   13    -404.6084299720      4.05e-10  Convergence criterion met
 ---------------------------------------
 SCF time:   CPU 999.01s  wall 68.00s 

************** Final PCM Free Energy Summary **************
 G_electrostatic  =      -0.01961236 hartree =     -12.30694447 kcal/mol
 G_cavitation     =       0.00000000 hartree =       0.00000000 kcal/mol
 G_dispersion     =       0.00000000 hartree =       0.00000000 kcal/mol
 G_repulsion      =       0.00000000 hartree =       0.00000000 kcal/mol
 --------------------------------------------------
 Non-electrostatic Free Energy =       0.00000000 hartree =       0.00000000 kcal/mol
 Total                         =      -0.01961236 hartree =     -12.30694447 kcal/mol
 --------------------------------------------------
 SCF Energy (H0 + V/2)                       =    -404.60842997 
 Solute Internal Energy (H0)                 =    -404.58881761 
 Total Free Energy (H0 + V/2 + non-elec)     =    -404.60842997 hartree
                                             = -253895.62185385 kcal/mol
***********************************************************

 SCF   energy in the final basis set =     -404.6084299720
 Total energy in the final basis set =     -404.6084299720
 
 --------------------------------------------------------------
 
                    Orbital Energies (a.u.)
 --------------------------------------------------------------
 
 Alpha MOs
 -- Occupied --
-19.1352 -14.3705 -10.2932 -10.2247 -10.1803 -10.1797 -10.1795 -10.1792
-10.1750  -1.0375  -0.9319  -0.8229  -0.7412  -0.7393  -0.6354  -0.6094
 -0.5903  -0.5620  -0.5249  -0.4832  -0.4593  -0.4407  -0.4361  -0.4184
 -0.4166  -0.3939  -0.3769  -0.3722  -0.3451  -0.3419  -0.3200  -0.3105
 -0.3079  -0.2713  -0.2599
 -- Virtual --
  0.0035   0.0091   0.0208   0.0260   0.0265   0.0434   0.0495   0.0507
  0.0620   0.0723   0.0732   0.0862   0.0870   0.0952   0.1039   0.1096
  0.1151   0.1190   0.1308   0.1357   0.1422   0.1541   0.1600   0.1637
  0.1716   0.1801   0.1846   0.1921   0.2012   0.2052   0.2132   0.2159
  0.2223   0.2287   0.2302   0.2478   0.2499   0.2586   0.2660   0.2739
  0.2766   0.2824   0.2909   0.2930   0.2982   0.3023   0.3121   0.3292
  0.3328   0.3345   0.3599   0.3753   0.3844   0.3909   0.4197   0.4232
  0.4404   0.4627   0.4827   0.6120   0.6413   0.6594   0.6686   0.6701
  0.6848   0.6991   0.7320   0.7353   0.7488   0.7543   0.7771   0.7800
  0.8020   0.8083   0.8231   0.8535   0.8666   0.9145   0.9563   0.9780
  0.9833   0.9941   1.0241   1.0293   1.0309   1.0596   1.0919   1.1093
  1.1227   1.1268   1.1292   1.1438   1.1614   1.1758   1.1862   1.1914
  1.2406   1.2435   1.2812   1.3243   1.3466   1.3754   1.3915   1.4218
  1.4819   1.4863   1.4959   1.5687   1.5731   1.6139   1.6954   1.7346
  1.7353   1.7543   1.7726   1.8064   1.8521   1.8714   1.9052   1.9086
  1.9143   1.9396   1.9857   2.0119   2.0220   2.0475   2.0585   2.0860
  2.0929   2.1304   2.2038   2.2184   2.2803   2.3140   2.3174   2.3484
  2.3966   2.4124   2.4209   2.4251   2.4504   2.5620   2.5873   2.6189
  2.6753   2.6853   2.7054   2.7650   2.7837   2.8354   2.8635   2.9874
  3.1859   4.0967   4.1936   4.2282   4.2972   4.3353   4.4139   4.6068
  4.6131   4.6762
 --------------------------------------------------------------
 
          Ground-State Mulliken Net Atomic Charges

     Atom                 Charge (a.u.)
  ----------------------------------------
      1 C                    -0.258391
      2 C                    -0.444500
      3 C                    -0.276164
      4 C                    -0.459620
      5 C                    -0.365486
      6 C                    -0.464167
      7 H                     0.207529
      8 H                     0.213265
      9 H                     0.230805
     10 H                     0.204471
     11 H                     0.187971
     12 H                     0.210406
     13 H                     0.192831
     14 H                     0.221952
     15 H                     0.187454
     16 H                     0.207857
     17 H                     0.231146
     18 N                    -0.379913
     19 H                     0.460038
     20 C                     0.340280
     21 H                     0.189773
     22 O                    -0.637535
  ----------------------------------------
  Sum of atomic charges =     0.000000

 -----------------------------------------------------------------
                    Cartesian Multipole Moments
 -----------------------------------------------------------------
    Charge (ESU x 10^10)
                 0.0000
    Dipole Moment (Debye)
         X       2.2566      Y       1.4273      Z      -6.3630
       Tot       6.9005
    Quadrupole Moments (Debye-Ang)
        XX     -50.3821     XY       4.1892     YY     -54.2220
        XZ      -3.7749     YZ      -2.5940     ZZ     -56.9447
    Octopole Moments (Debye-Ang^2)
       XXX    -388.9864    XXY     -79.2018    XYY    -128.5870
       YYY    -261.9304    XXZ       3.3386    XYZ      -8.0721
       YYZ      10.2958    XZZ    -127.8512    YZZ     -84.3762
       ZZZ      31.1392
    Hexadecapole Moments (Debye-Ang^3)
      XXXX   -2970.0599   XXXY    -842.5595   XXYY    -740.5186
      XYYY    -855.2881   YYYY   -1508.9140   XXXZ     155.8028
      XXYZ      18.7228   XYYZ      49.3674   YYYZ     101.9589
      XXZZ    -531.7738   XYZZ    -278.9351   YYZZ    -293.0436
      XZZZ     188.0046   YZZZ     112.0747   ZZZZ    -250.5823
 -----------------------------------------------------------------
 Calculating analytic gradient of the SCF energy
 Gradient of SCF Energy
            1           2           3           4           5           6
    1   0.0030931   0.0027733  -0.0004688  -0.0050538  -0.0034292   0.0001203
    2  -0.0025495   0.0020510   0.0037283   0.0023604  -0.0028332  -0.0047303
    3   0.0092233   0.0015375   0.0103656  -0.0011185   0.0064515  -0.0014546
            7           8           9          10          11          12
    1   0.0003647   0.0014146  -0.0001606  -0.0010803   0.0000001   0.0024305
    2  -0.0020301   0.0008911  -0.0000193   0.0008250  -0.0000085  -0.0011764
    3  -0.0003475  -0.0030738  -0.0071521  -0.0004245   0.0007125  -0.0019697
           13          14          15          16          17          18
    1   0.0016401  -0.0002019   0.0001439  -0.0002171  -0.0006204  -0.0001568
    2   0.0010263   0.0002183  -0.0001083   0.0025625   0.0004827   0.0001309
    3   0.0005093  -0.0050164   0.0004743  -0.0015426  -0.0074607   0.0129041
           19          20          21          22
    1  -0.0012895   0.0035775  -0.0019347  -0.0009450
    2  -0.0003833  -0.0008615  -0.0001642   0.0005878
    3  -0.0155095   0.0070652  -0.0051767   0.0010034
 Max gradient component =       1.551E-02
 RMS gradient           =       3.963E-03
 Computing fast CPCM-SWIG gradient
 Updating gradient with PCM contributions...
 -- total gradient after adding PCM contribution --
---------------------------------------------------
  Atom         X              Y              Z     
---------------------------------------------------
   1       0.000060       0.000044      -0.000046
   2      -0.000150       0.000050      -0.000089
   3       0.000021      -0.000029      -0.000069
   4      -0.000005      -0.000014       0.000047
   5       0.000031       0.000021       0.000020
   6      -0.000029       0.000028       0.000032
   7       0.000001      -0.000006      -0.000007
   8      -0.000032      -0.000038      -0.000025
   9       0.000029       0.000012       0.000015
  10      -0.000013      -0.000005      -0.000008
  11      -0.000033      -0.000014       0.000035
  12      -0.000008       0.000005       0.000040
  13      -0.000009      -0.000008       0.000074
  14       0.000020       0.000011       0.000054
  15      -0.000028      -0.000027       0.000037
  16       0.000006      -0.000008       0.000040
  17       0.000029       0.000020       0.000019
  18      -0.000364       0.000353       0.000474
  19      -0.000076       0.000138      -0.000082
  20       0.001658      -0.002070      -0.001100
  21      -0.000489       0.000734       0.000020
  22      -0.000620       0.000803       0.000518
---------------------------------------------------
 Number of fixed atoms: 0
 Gradient time:  CPU 138.54 s  wall 13.61 s
 Geometry Optimization Parameters
   NAtoms,    NIC,     NZ,  NCons,   NDum,   NFix, NCnnct, MaxDiis
       22     172       0       0       0       0       0       0

 Cartesian Hessian Update
 Hessian updated using BFGS update


** GEOMETRY OPTIMIZATION IN DELOCALIZED INTERNAL COORDINATES **
   Searching for a Minimum

   Optimization Cycle:   4

                       Coordinates (Angstroms)
     ATOM                X               Y               Z
      1  C         1.9830173849    2.8304996148   -0.6551357772
      2  C         2.0950959484    1.3393079172   -0.2890918023
      3  C         3.4025400981    0.7314987645   -0.8266488605
      4  C         4.6254358188    1.5194126276   -0.3275688765
      5  C         4.5197480972    3.0125857280   -0.6767126206
      6  C         3.2062820425    3.6174299952   -0.1555395560
      7  H         3.4700969813   -0.3211893513   -0.5235012408
      8  H         2.0758756905    1.2375945376    0.8013837918
      9  H         1.9079667748    2.9235349048   -1.7480312255
     10  H         1.0574270841    3.2429378704   -0.2331180626
     11  H         4.7059602167    1.4059156449    0.7656775812
     12  H         5.5395531449    1.0913207343   -0.7578197325
     13  H         5.3785581084    3.5594390957   -0.2646804065
     14  H         4.5644477772    3.1324276715   -1.7684271092
     15  H         3.2143020425    3.6106962583    0.9465708224
     16  H         3.1207219797    4.6669757661   -0.4646567640
     17  H         3.3788631161    0.7488721838   -1.9257905024
     18  N         0.9338154456    0.5904603802   -0.7793789984
     19  H         0.8098555306    0.5201826759   -1.7856029249
     20  C         0.0037641185    0.0022044588   -0.0111986925
     21  H        -0.7862395729   -0.4912657844   -0.5990791919
     22  O        -0.0226807429    0.0022250467    1.2329542551
   Point Group: c1    Number of degrees of freedom:    60


   Energy is   -404.608429972

 Hessian updated using BFGS update

 60 Hessian modes will be used to form the next step
  Hessian Eigenvalues:
     0.005967    0.006016    0.006967    0.007186    0.012629    0.019500
     0.019769    0.020847    0.037287    0.038457    0.039416    0.041732
     0.048448    0.048479    0.048915    0.055289    0.055714    0.055833
     0.060197    0.066924    0.081470    0.081545    0.081629    0.082008
     0.082132    0.083748    0.084545    0.087644    0.120936    0.120967
     0.143055    0.145774    0.159401    0.162341    0.175197    0.210578
     0.214780    0.224961    0.272191    0.272616    0.275534    0.286027
     0.286965    0.287395    0.327507    0.334521    0.334785    0.335825
     0.336546    0.337923    0.339374    0.339434    0.339502    0.340108
     0.340320    0.342612    0.362750    0.450162    0.459865    0.784381

 Minimum search - taking simple RFO step
 Searching for Lamda that Minimizes Along All modes
 Value Taken    Lamda =  -0.00004002
 Step Taken.  Stepsize is  0.021574

                             Maximum     Tolerance    Cnvgd?
         Gradient           0.001461      0.000100      NO
         Displacement       0.016990      0.000100      NO
         Energy change      0.000016      0.000000      NO


 New Cartesian Coordinates Obtained by Inverse Iteration

 Displacement from previous Coordinates is:  0.025330
 ----------------------------------------------------------------
             Standard Nuclear Orientation (Angstroms)
    I     Atom           X                Y                Z
 ----------------------------------------------------------------
    1      C       1.9832436452     2.8318562040    -0.6552517187
    2      C       2.0940656881     1.3406697733    -0.2890449307
    3      C       3.4012548662     0.7317889387    -0.8258511702
    4      C       4.6246785947     1.5190492085    -0.3270414879
    5      C       4.5200707970     3.0120722493    -0.6769130026
    6      C       3.2071026046     3.6179965599    -0.1559048339
    7      H       3.4679798051    -0.3207890515    -0.5221567661
    8      H       2.0744157312     1.2392564209     0.8014741491
    9      H       1.9081479858     2.9247809039    -1.7481970618
   10      H       1.0579832891     3.2450747343    -0.2332927442
   11      H       4.7051955538     1.4060529401     0.7662556746
   12      H       5.5385256905     1.0901169841    -0.7570481462
   13      H       5.3793184428     3.5585460277    -0.2652787119
   14      H       4.5647506962     3.1313584154    -1.7687113781
   15      H       3.2152111216     3.6117435861     0.9462007476
   16      H       3.1223044368     4.6675019477    -0.4653884498
   17      H       3.3777959372     0.7485203391    -1.9250523338
   18      N       0.9324005734     0.5927953269    -0.7799901922
   19      H       0.8087599693     0.5219302849    -1.7861651749
   20      C       0.0020063392     0.0046291284    -0.0110458819
   21      H      -0.7823541541    -0.4971646121    -0.5996265307
   22      O      -0.0184505287    -0.0047195689     1.2326340506
 ----------------------------------------------------------------
 Nuclear Repulsion Energy =         466.46286023 hartrees
 There are       35 alpha and       35 beta electrons
 Discretize the solute cavity surface with Lebedev spheres
	Using 302 Lebedev grid points for each H atom
	Using 302 Lebedev grid points for other atoms
	Atomic van der Waals radii will be scaled by 1.20
 Remove points where switching function is < 1.0e-08
 Keep 2702 surface tesserae and discard 3942 interior tesserae
 Molecular Surface Area = 182.959 Angst**2
 Applying Cartesian multipole field
    Component          Value
    ---------          -----
     (0,0,1)        3.89000E-03
 Nucleus-field energy     =    -0.1529174266 hartrees
 Requested basis set is 6-31+G(d)
 There are 71 shells and 197 basis functions
 A cutoff of  1.0D-14 yielded   2412 shell pairs
 There are     18997 function pairs
 Smallest overlap matrix eigenvalue = 2.46E-05
 Guess MOs from SCF MO coefficient file

 -----------------------------------------------------------------------
  General SCF calculation program by
  Eric Jon Sundstrom, Paul Horn, Yuezhi Mao, Dmitri Zuev, Alec White,
  David Stuck, Shaama M.S., Shane Yost, Joonho Lee, David Small,
  Daniel Levine, Susi Lehtola, Hugh Burton, Evgeny Epifanovsky,
  Bang C. Huynh
 -----------------------------------------------------------------------
 Exchange:     0.2000 Hartree-Fock + 0.0800 Slater + 0.7200 B88
 Correlation:  0.1900 VWN1RPA + 0.8100 LYP
 Using Euler-Maclaurin-Lebedev (99,590) quadrature formula
 using 16 threads for integral computing
 -------------------------------------------------------
 OpenMP Integral computing Module                
 Release: version 2.0, May 2017, Q-Chem Inc. Pleasanton 
 -------------------------------------------------------
 A restricted SCF calculation will be
 performed using Roothaan-Hall, DIIS
 SCF converges when DIIS error is below 1.0e-09
 ---------------------------------------
  Cycle       Energy         DIIS error
 ---------------------------------------
    1    -404.5888049382      6.02e-04  Roothaan Step
 ---------------------------------------
  Cycle       Energy         DIIS error
 ---------------------------------------
    1    -404.5975416760      1.22e-03  
    2    -404.5823921793      2.59e-03  
    3    -404.6082388993      1.98e-04  
    4    -404.6084009408      1.07e-04  
    5    -404.6084435468      3.89e-05  
    6    -404.6084496015      9.14e-06  
    7    -404.6084499091      3.28e-06  
    8    -404.6084499601      5.67e-07  
    9    -404.6084499615      2.51e-07  
   10    -404.6084499617      4.90e-08  
   11    -404.6084499618      1.23e-08  
   12    -404.6084499618      3.28e-09  
   13    -404.6084499618      4.02e-10  Convergence criterion met
 ---------------------------------------
 SCF time:   CPU 988.96s  wall 66.00s 

************** Final PCM Free Energy Summary **************
 G_electrostatic  =      -0.01956706 hartree =     -12.27851320 kcal/mol
 G_cavitation     =       0.00000000 hartree =       0.00000000 kcal/mol
 G_dispersion     =       0.00000000 hartree =       0.00000000 kcal/mol
 G_repulsion      =       0.00000000 hartree =       0.00000000 kcal/mol
 --------------------------------------------------
 Non-electrostatic Free Energy =       0.00000000 hartree =       0.00000000 kcal/mol
 Total                         =      -0.01956706 hartree =     -12.27851320 kcal/mol
 --------------------------------------------------
 SCF Energy (H0 + V/2)                       =    -404.60844996 
 Solute Internal Energy (H0)                 =    -404.58888291 
 Total Free Energy (H0 + V/2 + non-elec)     =    -404.60844996 hartree
                                             = -253895.63439763 kcal/mol
***********************************************************

 SCF   energy in the final basis set =     -404.6084499618
 Total energy in the final basis set =     -404.6084499618
 
 --------------------------------------------------------------
 
                    Orbital Energies (a.u.)
 --------------------------------------------------------------
 
 Alpha MOs
 -- Occupied --
-19.1353 -14.3704 -10.2933 -10.2246 -10.1802 -10.1797 -10.1795 -10.1792
-10.1749  -1.0378  -0.9318  -0.8229  -0.7412  -0.7393  -0.6353  -0.6094
 -0.5903  -0.5620  -0.5248  -0.4831  -0.4594  -0.4406  -0.4361  -0.4184
 -0.4167  -0.3938  -0.3769  -0.3723  -0.3451  -0.3418  -0.3200  -0.3104
 -0.3079  -0.2714  -0.2599
 -- Virtual --
  0.0035   0.0091   0.0207   0.0260   0.0265   0.0434   0.0495   0.0507
  0.0620   0.0723   0.0732   0.0863   0.0869   0.0952   0.1039   0.1096
  0.1151   0.1190   0.1308   0.1357   0.1422   0.1541   0.1601   0.1638
  0.1716   0.1802   0.1846   0.1921   0.2013   0.2052   0.2133   0.2159
  0.2223   0.2287   0.2302   0.2478   0.2499   0.2587   0.2660   0.2738
  0.2767   0.2823   0.2910   0.2930   0.2982   0.3023   0.3122   0.3292
  0.3328   0.3345   0.3599   0.3753   0.3841   0.3909   0.4198   0.4232
  0.4405   0.4627   0.4829   0.6121   0.6413   0.6594   0.6687   0.6701
  0.6848   0.6991   0.7319   0.7353   0.7494   0.7538   0.7774   0.7798
  0.8021   0.8083   0.8233   0.8533   0.8666   0.9145   0.9564   0.9780
  0.9833   0.9940   1.0241   1.0293   1.0309   1.0597   1.0919   1.1093
  1.1227   1.1268   1.1292   1.1439   1.1614   1.1758   1.1862   1.1914
  1.2401   1.2441   1.2811   1.3243   1.3464   1.3752   1.3917   1.4219
  1.4806   1.4880   1.4957   1.5680   1.5736   1.6138   1.6953   1.7346
  1.7354   1.7542   1.7726   1.8063   1.8526   1.8707   1.9053   1.9085
  1.9143   1.9398   1.9856   2.0119   2.0220   2.0475   2.0585   2.0861
  2.0931   2.1304   2.2038   2.2187   2.2800   2.3153   2.3162   2.3485
  2.3966   2.4125   2.4210   2.4251   2.4504   2.5621   2.5872   2.6190
  2.6754   2.6854   2.7053   2.7649   2.7835   2.8354   2.8639   2.9878
  3.1857   4.0966   4.1937   4.2282   4.2972   4.3353   4.4141   4.6068
  4.6131   4.6763
 --------------------------------------------------------------
 
          Ground-State Mulliken Net Atomic Charges

     Atom                 Charge (a.u.)
  ----------------------------------------
      1 C                    -0.257796
      2 C                    -0.444093
      3 C                    -0.276961
      4 C                    -0.459670
      5 C                    -0.365433
      6 C                    -0.464205
      7 H                     0.207523
      8 H                     0.213252
      9 H                     0.230747
     10 H                     0.204405
     11 H                     0.187965
     12 H                     0.210399
     13 H                     0.192828
     14 H                     0.221941
     15 H                     0.187430
     16 H                     0.207831
     17 H                     0.231128
     18 N                    -0.380504
     19 H                     0.460018
     20 C                     0.340481
     21 H                     0.189616
     22 O                    -0.636900
  ----------------------------------------
  Sum of atomic charges =     0.000000

 -----------------------------------------------------------------
[...]

 Mode:                40                     41                     42
 Frequency:      1405.72                1495.20                1497.84
 Force Cnst:      1.7087                 1.4327                 1.4362
 Red. Mass:       1.4676                 1.0877                 1.0865
 IR Active:          YES                    YES                    YES
 IR Intens:        0.192                  0.212                  6.764
 Raman Active:       YES                    YES                    YES
               X      Y      Z        X      Y      Z        X      Y      Z
 C          0.051  0.099  0.015   -0.034  0.012 -0.028    0.002 -0.015  0.004
 C         -0.085 -0.059 -0.005   -0.010  0.014  0.001    0.006  0.004  0.003
 C          0.113  0.010  0.007    0.004  0.030  0.029   -0.012  0.005  0.004
 C         -0.006  0.042  0.004    0.029 -0.007  0.024   -0.014  0.017 -0.017
 C         -0.007 -0.006  0.007    0.007 -0.012 -0.000    0.046  0.034 -0.039
 C          0.037 -0.020 -0.002   -0.006 -0.028 -0.027    0.009 -0.022 -0.023
 H         -0.392 -0.051 -0.067    0.010 -0.093 -0.352    0.011 -0.010 -0.050
 H          0.400  0.282  0.032    0.041 -0.062 -0.005   -0.021 -0.015  0.000
 H         -0.197 -0.285 -0.006    0.351 -0.142 -0.057   -0.037  0.074  0.011
 H         -0.196 -0.329 -0.088    0.115 -0.088  0.361   -0.013  0.021 -0.063
 H          0.008 -0.034 -0.007   -0.297  0.101  0.049    0.191 -0.142 -0.042
 H         -0.142 -0.216 -0.027   -0.100  0.069 -0.300    0.084 -0.040  0.227
 H         -0.028 -0.022  0.058    0.007 -0.003 -0.012   -0.147 -0.147  0.549
 H         -0.058 -0.040  0.007   -0.029  0.065  0.007   -0.490 -0.322 -0.087
 H         -0.033  0.020 -0.002    0.017  0.327 -0.015   -0.063  0.272 -0.013
 H         -0.252 -0.048 -0.012   -0.006  0.086  0.322    0.013  0.076  0.272
 H         -0.339 -0.083  0.009   -0.001 -0.357  0.014    0.054 -0.046 -0.000
 N         -0.023 -0.014 -0.014   -0.000 -0.000  0.000    0.001  0.001  0.000
 H          0.094  0.062 -0.035    0.002 -0.000 -0.000   -0.009 -0.006  0.002
 C          0.020  0.013  0.007    0.000 -0.000 -0.000   -0.001 -0.001  0.000
 H          0.029  0.018  0.013   -0.000  0.001  0.000   -0.001 -0.001 -0.001
 O         -0.003 -0.002 -0.005   -0.000 -0.000  0.000    0.000  0.000 -0.000
 TransDip   0.006 -0.001  0.012    0.010 -0.011 -0.001   -0.034 -0.025  0.072

 Mode:                43                     44                     45
 Frequency:      1500.41                1502.08                1514.53
 Force Cnst:      1.4575                 1.4534                 1.4869
 Red. Mass:       1.0989                 1.0933                 1.1002
 IR Active:          YES                    YES                    YES
 IR Intens:        7.140                 10.476                  0.681
 Raman Active:       YES                    YES                    YES
               X      Y      Z        X      Y      Z        X      Y      Z
 C         -0.035  0.019 -0.020   -0.025  0.023 -0.020   -0.030  0.023 -0.017
 C          0.001 -0.003 -0.000   -0.012 -0.008 -0.004   -0.011 -0.007 -0.007
 C         -0.003  0.033  0.022    0.010 -0.035 -0.029    0.009 -0.034 -0.022
 C         -0.040  0.020 -0.025   -0.028  0.016 -0.018    0.028 -0.019  0.015
 C          0.003 -0.003 -0.001   -0.021 -0.015  0.012    0.032  0.023 -0.017
 C          0.000  0.037  0.026    0.003 -0.032 -0.024   -0.006  0.031  0.019
 H         -0.010 -0.066 -0.294   -0.032  0.092  0.373   -0.005  0.074  0.328
 H         -0.002  0.004 -0.000    0.018  0.016 -0.005    0.020  0.014 -0.006
 H          0.309 -0.162 -0.050    0.283 -0.163 -0.051    0.289 -0.173 -0.049
 H          0.098 -0.056  0.322    0.083 -0.092  0.300    0.090 -0.066  0.311
 H          0.358 -0.174 -0.061    0.278 -0.115 -0.047   -0.247  0.134  0.043
 H          0.120 -0.064  0.376    0.076 -0.085  0.279   -0.075  0.056 -0.268
 H         -0.022  0.023  0.015    0.041  0.042 -0.185   -0.068 -0.071  0.300
 H         -0.008 -0.011 -0.002    0.165  0.107  0.027   -0.273 -0.180 -0.045
 H          0.025 -0.347  0.012   -0.010  0.329 -0.013    0.034 -0.281  0.009
 H         -0.016 -0.079 -0.336   -0.027  0.075  0.315    0.004 -0.059 -0.276
 H          0.036 -0.308  0.007   -0.054  0.388 -0.013   -0.057  0.342 -0.009
 N         -0.000  0.001  0.000    0.003  0.002 -0.000   -0.006 -0.004  0.002
 H          0.000 -0.001  0.000    0.004  0.003 -0.001    0.044  0.028 -0.006
 C         -0.000  0.000 -0.000   -0.000 -0.000 -0.001    0.005  0.003 -0.005
 H          0.000 -0.001  0.000   -0.001 -0.000  0.000    0.004  0.002  0.004
 O          0.000 -0.000  0.000    0.000  0.000  0.001   -0.001 -0.000  0.002
 TransDip   0.050 -0.070  0.002    0.048  0.031  0.087    0.023  0.012  0.005

 Mode:                46                     47                     48
 Frequency:      1560.89                1661.56                2249.47
 Force Cnst:      2.5198                14.2397                 7.1475
 Red. Mass:       1.7554                 8.7542                 2.3974
 IR Active:          YES                    YES                    YES
 IR Intens:      232.422                872.711                 81.368
 Raman Active:       YES                    YES                    YES
               X      Y      Z        X      Y      Z        X      Y      Z
 C          0.007  0.003  0.006   -0.018 -0.005 -0.013   -0.000 -0.000  0.000
 C          0.058  0.038 -0.044    0.022  0.013  0.026    0.002  0.002  0.000
 C          0.005  0.006  0.007   -0.013 -0.013 -0.014   -0.001 -0.000  0.000
 C         -0.007 -0.004 -0.001    0.001  0.008  0.006   -0.000  0.000  0.000
 C          0.000 -0.000  0.001   -0.001 -0.001 -0.001   -0.000 -0.000 -0.000
 C         -0.006 -0.004 -0.001    0.008 -0.003  0.004    0.000 -0.000  0.000
 H          0.009  0.002 -0.019    0.021 -0.002  0.025    0.001 -0.000 -0.001
 H         -0.268 -0.173 -0.076   -0.055 -0.034  0.044    0.006  0.003  0.001
 H         -0.029 -0.050  0.000    0.026  0.031 -0.015   -0.000  0.000  0.000
 H          0.004  0.016 -0.021    0.006  0.015  0.029    0.000  0.001 -0.001
 H          0.034  0.005 -0.004   -0.006 -0.002  0.008   -0.000 -0.000  0.000
 H          0.012  0.009  0.027   -0.028 -0.031 -0.024   -0.000 -0.000 -0.000
 H          0.005  0.006 -0.019   -0.003 -0.003  0.013    0.000  0.000  0.000
 H          0.012  0.008  0.003   -0.004 -0.002 -0.002    0.000  0.000 -0.000
 H          0.016  0.028 -0.002   -0.005 -0.007  0.007   -0.000 -0.000  0.000
 H          0.012  0.004  0.025   -0.041 -0.012 -0.024   -0.000  0.000 -0.000
 H         -0.059 -0.009  0.003    0.036  0.012 -0.018    0.000 -0.000  0.001
 N         -0.163 -0.105  0.059    0.053  0.035 -0.124    0.013  0.008 -0.001
 H          0.753  0.476 -0.086    0.359  0.222 -0.177   -0.050 -0.031 -0.000
 C          0.085  0.054 -0.013   -0.148 -0.093  0.661   -0.138 -0.088 -0.106
 H          0.106  0.068  0.067    0.313  0.201 -0.018    0.707  0.452  0.504
 O         -0.009 -0.006 -0.016    0.006  0.003 -0.382    0.004  0.003  0.017
 TransDip   0.379  0.242 -0.190   -0.408 -0.262  0.813   -0.170 -0.109 -0.206

 Mode:                49                     50                     51
 Frequency:      2995.98                2998.36                3028.30
 Force Cnst:      5.6587                 5.6717                 5.7312
 Red. Mass:       1.0700                 1.0708                 1.0607
 IR Active:          YES                    YES                    YES
 IR Intens:       29.684                120.988                 51.548
 Raman Active:       YES                    YES                    YES
               X      Y      Z        X      Y      Z        X      Y      Z
 C         -0.003  0.001  0.007   -0.003  0.002  0.003    0.003 -0.002  0.004
 C         -0.000  0.001  0.000    0.000 -0.000  0.001    0.000  0.000 -0.002
 C         -0.000  0.002 -0.005    0.001 -0.005  0.006   -0.001  0.006  0.009
 C          0.011 -0.008  0.035   -0.018  0.013 -0.060   -0.008  0.003  0.006
 C          0.001  0.002  0.003    0.008  0.004  0.012    0.044  0.033 -0.037
 C          0.001 -0.016 -0.062    0.001 -0.008 -0.036    0.001 -0.011  0.006
 H          0.003 -0.019  0.004   -0.007  0.059 -0.017    0.007 -0.080  0.027
 H          0.001 -0.002 -0.004   -0.001  0.001 -0.013   -0.000 -0.002  0.024
 H         -0.007  0.007 -0.076   -0.003  0.003 -0.025   -0.003  0.006 -0.063
 H          0.042 -0.022 -0.019    0.039 -0.019 -0.019   -0.034  0.017  0.018
 H         -0.031  0.045 -0.486    0.052 -0.081  0.815   -0.005  0.004 -0.030
 H         -0.100  0.045  0.060    0.157 -0.073 -0.093    0.102 -0.043 -0.049
 H         -0.023 -0.020 -0.012   -0.101 -0.063 -0.047   -0.502 -0.318 -0.260
 H          0.002  0.003 -0.028    0.007  0.014 -0.114   -0.015 -0.068  0.707
 H          0.008 -0.015  0.825    0.003 -0.007  0.479   -0.000 -0.003 -0.032
 H         -0.015  0.194 -0.077   -0.010  0.105 -0.041   -0.008  0.139 -0.043
 H          0.001 -0.000  0.058   -0.001 -0.001 -0.065   -0.001  0.005 -0.133
 N          0.000 -0.000  0.000   -0.000 -0.000  0.000   -0.000  0.000 -0.000
 H         -0.000  0.000  0.000    0.000  0.000  0.001   -0.001 -0.000 -0.000
 C          0.000  0.000 -0.000    0.000  0.000 -0.000   -0.000 -0.000 -0.000
 H         -0.000  0.000  0.000   -0.000 -0.000  0.000    0.000 -0.000  0.000
 O         -0.000 -0.000  0.000   -0.000 -0.000  0.000    0.000  0.000  0.000
 TransDip   0.063 -0.128 -0.100   -0.091  0.012 -0.340    0.181  0.133 -0.048

 Mode:                52                     53                     54
 Frequency:      3029.82                3032.84                3063.10
 Force Cnst:      5.7369                 5.7574                 6.0698
 Red. Mass:       1.0607                 1.0624                 1.0980
 IR Active:          YES                    YES                    YES
 IR Intens:       26.580                 38.558                 98.075
 Raman Active:       YES                    YES                    YES
               X      Y      Z        X      Y      Z        X      Y      Z
 C          0.031 -0.016  0.032   -0.030  0.017 -0.034   -0.008  0.003  0.020
 C         -0.000  0.000  0.000   -0.001 -0.001  0.008    0.000  0.002 -0.016
 C          0.001 -0.030 -0.039    0.001 -0.027 -0.037    0.002 -0.015  0.016
 C         -0.008  0.004  0.003   -0.009  0.005  0.007   -0.012  0.006  0.001
 C          0.003  0.003 -0.002    0.006  0.004 -0.004   -0.041 -0.023 -0.057
 C         -0.001  0.008 -0.002    0.001 -0.013  0.007    0.003 -0.035  0.012
 H         -0.024  0.373 -0.123   -0.024  0.337 -0.110   -0.013  0.187 -0.054
 H         -0.001  0.001 -0.005    0.002  0.010 -0.107   -0.002 -0.017  0.199
 H         -0.027  0.043 -0.550    0.029 -0.046  0.568   -0.013  0.016 -0.177
 H         -0.334  0.149  0.168    0.329 -0.148 -0.165    0.117 -0.053 -0.053
 H         -0.001  0.000  0.014   -0.004  0.004 -0.022    0.001 -0.005  0.048
 H          0.100 -0.049 -0.050    0.117 -0.057 -0.058    0.141 -0.066 -0.068
 H         -0.034 -0.023 -0.018   -0.067 -0.042 -0.033    0.505  0.321  0.241
 H          0.000 -0.006  0.044   -0.002 -0.008  0.085   -0.023 -0.052  0.443
 H         -0.001  0.002 -0.008    0.000 -0.003 -0.034   -0.001 -0.005 -0.018
 H          0.010 -0.101  0.031   -0.015  0.155 -0.048   -0.033  0.422 -0.127
 H          0.012 -0.020  0.585    0.010 -0.018  0.557   -0.002  0.000 -0.141
 N          0.000 -0.000 -0.000    0.000  0.000 -0.000   -0.000 -0.000  0.000
 H          0.001 -0.001  0.000    0.003  0.002  0.001   -0.001 -0.000 -0.002
 C          0.000 -0.000  0.000   -0.000  0.000  0.001    0.000  0.000 -0.001
 H         -0.000  0.000 -0.000    0.000  0.000 -0.000   -0.000 -0.000 -0.000
 O          0.000 -0.000  0.000   -0.000 -0.000 -0.000    0.000  0.000  0.000
 TransDip   0.104 -0.126 -0.025   -0.112 -0.056 -0.155   -0.213 -0.222 -0.075

 Mode:                55                     56                     57
 Frequency:      3065.37                3066.97                3070.80
 Force Cnst:      6.0463                 6.0579                 6.0914
 Red. Mass:       1.0921                 1.0931                 1.0964
 IR Active:          YES                    YES                    YES
 IR Intens:      103.579                 31.919                 98.078
 Raman Active:       YES                    YES                    YES
               X      Y      Z        X      Y      Z        X      Y      Z
 C          0.028 -0.012 -0.021   -0.025  0.010  0.031   -0.002 -0.000  0.013
 C         -0.000 -0.001  0.017   -0.001  0.003 -0.039    0.001  0.001 -0.011
 C         -0.001  0.005 -0.009    0.003 -0.037  0.024   -0.001  0.010  0.003
 C          0.030 -0.013 -0.023    0.029 -0.013 -0.013   -0.046  0.021  0.040
 C          0.004  0.001  0.013    0.018  0.010  0.026    0.011  0.004  0.043
 C          0.005 -0.057  0.029    0.001 -0.008  0.013    0.003 -0.032  0.022
 H          0.004 -0.062  0.018   -0.027  0.440 -0.129    0.008 -0.117  0.034
 H          0.002  0.019 -0.216   -0.005 -0.042  0.479   -0.001 -0.011  0.129
 H          0.011 -0.011  0.098   -0.021  0.021 -0.233   -0.011  0.011 -0.133
 H         -0.340  0.151  0.156    0.320 -0.142 -0.147    0.033 -0.014 -0.015
 H          0.012 -0.012  0.098    0.004 -0.001 -0.001   -0.022  0.026 -0.203
 H         -0.369  0.171  0.176   -0.339  0.159  0.163    0.574 -0.270 -0.274
 H         -0.051 -0.035 -0.024   -0.227 -0.145 -0.109   -0.153 -0.097 -0.071
 H          0.006  0.014 -0.134    0.012  0.025 -0.213    0.020  0.049 -0.437
 H         -0.000 -0.007 -0.150   -0.000 -0.001 -0.121    0.001 -0.005 -0.155
 H         -0.054  0.682 -0.206   -0.007  0.103 -0.031   -0.032  0.382 -0.115
 H          0.002 -0.000  0.086   -0.004 -0.004 -0.164   -0.003  0.002 -0.070
 N          0.000  0.000 -0.000   -0.000 -0.000  0.000   -0.000 -0.000  0.000
 H          0.000 -0.000  0.003   -0.000 -0.000 -0.006   -0.001 -0.000 -0.002
 C         -0.000 -0.000  0.000    0.000  0.000 -0.001    0.000  0.000 -0.000
 H          0.000  0.000  0.000   -0.000 -0.000 -0.000   -0.000 -0.000  0.000
 O         -0.000 -0.000 -0.000    0.000  0.000  0.000    0.000  0.000  0.000
 TransDip   0.216 -0.243  0.016    0.068 -0.111  0.126   -0.120  0.007  0.294

 Mode:                58                     59                     60
 Frequency:      3072.70                3089.17                3570.64
 Force Cnst:      6.1435                 6.1428                 8.1037
 Red. Mass:       1.1044                 1.0925                 1.0788
 IR Active:          YES                    YES                    YES
 IR Intens:       31.507                101.734                 81.233
 Raman Active:       YES                    YES                    YES
               X      Y      Z        X      Y      Z        X      Y      Z
 C          0.034 -0.013 -0.049    0.018 -0.007 -0.032   -0.000 -0.000  0.000
 C          0.000 -0.000 -0.005    0.001  0.006 -0.068    0.001  0.001 -0.000
 C          0.003 -0.047  0.048   -0.002  0.025 -0.030   -0.000 -0.000  0.000
 C         -0.011  0.004  0.016    0.001 -0.000 -0.006   -0.000  0.000  0.000
 C          0.000  0.001  0.003   -0.002 -0.001 -0.004   -0.000 -0.000  0.000
 C         -0.000  0.007 -0.010   -0.000  0.001 -0.006    0.000 -0.000  0.000
 H         -0.036  0.562 -0.163    0.021 -0.294  0.085   -0.000  0.000 -0.000
 H          0.001 -0.007  0.059   -0.014 -0.074  0.803    0.003  0.001  0.011
 H          0.031 -0.036  0.388    0.021 -0.029  0.276   -0.000 -0.001 -0.000
 H         -0.432  0.193  0.197   -0.237  0.109  0.109    0.000 -0.000 -0.000
 H         -0.011  0.012 -0.116    0.007 -0.006  0.065    0.000  0.000 -0.000
 H          0.140 -0.065 -0.067   -0.017  0.008  0.009    0.000 -0.000 -0.000
 H         -0.011 -0.009 -0.006    0.026  0.017  0.013    0.000  0.000  0.000
 H          0.000  0.005 -0.031   -0.003 -0.005  0.042    0.000  0.000 -0.000
 H          0.002  0.001  0.086    0.003  0.002  0.063    0.000  0.000 -0.000
 H          0.006 -0.087  0.026    0.002 -0.017  0.006    0.000  0.000 -0.000
 H         -0.008 -0.000 -0.411    0.001  0.000  0.280   -0.001  0.000 -0.001
 N         -0.000  0.000  0.000   -0.001 -0.001  0.001   -0.008 -0.005 -0.073
 H         -0.001  0.001 -0.001    0.003  0.003 -0.008    0.120  0.070  0.988
 C          0.000 -0.000 -0.000    0.000  0.000 -0.002   -0.002 -0.001 -0.000
 H         -0.000 -0.000  0.000   -0.001 -0.001  0.000    0.002  0.001  0.000
 O          0.000  0.000  0.000    0.000  0.000  0.001   -0.000 -0.000  0.001
 TransDip   0.086 -0.158  0.006    0.002  0.037 -0.321   -0.030 -0.019  0.286

 STANDARD THERMODYNAMIC QUANTITIES AT   298.18 K  AND     1.00 ATM

   This Molecule has  0 Imaginary Frequencies
   Zero point vibrational energy:      121.997 kcal/mol

   Atom    1 Element C  Has Mass   12.00000
   Atom    2 Element C  Has Mass   12.00000
   Atom    3 Element C  Has Mass   12.00000
   Atom    4 Element C  Has Mass   12.00000
   Atom    5 Element C  Has Mass   12.00000
   Atom    6 Element C  Has Mass   12.00000
   Atom    7 Element H  Has Mass    1.00783
   Atom    8 Element H  Has Mass    1.00783
   Atom    9 Element H  Has Mass    1.00783
   Atom   10 Element H  Has Mass    1.00783
   Atom   11 Element H  Has Mass    1.00783
   Atom   12 Element H  Has Mass    1.00783
   Atom   13 Element H  Has Mass    1.00783
   Atom   14 Element H  Has Mass    1.00783
   Atom   15 Element H  Has Mass    1.00783
   Atom   16 Element H  Has Mass    1.00783
   Atom   17 Element H  Has Mass    1.00783
   Atom   18 Element N  Has Mass   14.00307
   Atom   19 Element H  Has Mass    1.00783
   Atom   20 Element C  Has Mass   12.00000
   Atom   21 Element H  Has Mass    2.01410
   Atom   22 Element O  Has Mass   15.99491
   Molecular Mass:   128.106042 amu
   Principal axes and moments of inertia in amu*Bohr^2:
                             1           2           3
    Eigenvalues --      540.65130  2023.06297  2221.96675
          X               0.82484    -0.52819     0.20161
          Y               0.53929     0.84212    -0.00011
          Z              -0.16973     0.10882     0.97947
   Rotational Symmetry Number is   1
   The Molecule is an Asymmetric Top
   Translational Enthalpy:        0.889 kcal/mol
   Rotational Enthalpy:           0.889 kcal/mol
   Vibrational Enthalpy:        125.789 kcal/mol
   gas constant (RT):             0.593 kcal/mol
   Translational Entropy:        40.457  cal/mol.K
   Rotational Entropy:           29.276  cal/mol.K
   Vibrational Entropy:          23.605  cal/mol.K

   Total Enthalpy:              128.159 kcal/mol
   Total Entropy:                93.337  cal/mol.K
Archival summary:
1\1\node028\FREQ\ProcedureUnspecified\6-31+G*\11713\ymao90\TueJul2720:25:402021TueJul2720:25:402021\0\\#,FREQ,ProcedureUnspecified,6-31+G*,\\0,1\N\H,1,1.0162\C,1,1.34262,2,116.889\H,3,1.10157,1,112.768,2,0.671332,0\O,3,1.24384,1,125.943,2,-179.44,0\C,1,1.46635,2,117.614,3,-179.141,0\H,6,1.09538,1,105.763,2,-176.388,0\C,6,1.53873,1,110.762,2,-58.4077,0\H,8,1.09754,6,109.552,1,-57.9956,0\H,8,1.09957,6,108.943,1,58.7509,0\C,8,1.53798,6,111.108,1,179.431,0\H,11,1.09728,8,109.591,6,-177.665,0\H,11,1.10207,8,109.107,6,65.8082,0\C,11,1.53705,8,111.67,6,-55.1138,0\H,14,1.09836,11,110.165,8,177.099,0\H,14,1.09919,11,109.191,8,-66.0999,0\C,14,1.53705,11,111.347,8,54.5366,0\H,17,1.09748,14,110.333,11,-176.665,0\H,17,1.10216,14,109.294,11,66.2639,0\C,17,1.53793,14,111.605,11,-54.5295,0\H,20,1.09768,17,110.703,14,177.071,0\H,20,1.09944,17,109.502,14,-65.1647,0\\\@

 Total job time:  10398.71s(wall), 149815.84s(cpu) 
 Tue Jul 27 20:25:40 2021

        *************************************************************
        *                                                           *
        *  Thank you very much for using Q-Chem.  Have a nice day.  *
        *                                                           *
        *************************************************************


