                  Welcome to Q-Chem
     A Quantum Leap Into The Future Of Chemistry


 Q-Chem 5.2 (devel), Q-Chem, Inc., Pleasanton, CA (2019)

 Yihan Shao,  Zhengting Gan,  E. Epifanovsky,  A. T. B. Gilbert,  M. Wormit,  
 J. Kussmann,  A. W. Lange,  A. Behn,  Jia Deng,  Xintian Feng,  D. Ghosh,  
 M. Goldey,  P. R. Horn,  L. D. Jacobson,  I. Kaliman,  T. Kus,  A. Landau,  
 Jie Liu,  E. I. Proynov,  R. M. Richard,  R. P. Steele,  E. J. Sundstrom,  
 H. L. Woodcock III,  P. M. Zimmerman,  D. Zuev,  B. Alam,  B. Albrecht,  
 E. Alguire,  S. A. Baeppler,  D. Barton,  Z. Benda,  Y. A. Bernard,  
 E. J. Berquist,  K. B. Bravaya,  H. Burton,  K. Carter-Fenk,  D. Casanova,  
 Chun-Min Chang,  Yunqing Chen,  A. Chien,  K. D. Closser,  M. P. Coons,  
 S. Coriani,  S. Dasgupta,  A. L. Dempwolff,  M. Diedenhofen,  Hainam Do,  
 R. G. Edgar,  Po-Tung Fang,  S. Faraji,  S. Fatehi,  Qingguo Feng,  
 J. Fosso-Tande,  J. Gayvert,  Qinghui Ge,  A. Ghysels,  G. Gidofalvi,  
 J. Gomes,  J. Gonthier,  A. Gunina,  D. Hait,  M. W. D. Hanson-Heine,  
 P. H. P. Harbach,  A. W. Hauser,  M. F. Herbst,  J. E. Herr,  
 E. G. Hohenstein,  Z. C. Holden,  Kerwin Hui,  B. C. Huynh,  T.-C. Jagau,  
 Hyunjun Ji,  B. Kaduk,  K. Khistyaev,  Jaehoon Kim,  P. Klunzinger,  K. Koh,  
 D. Kosenkov,  L. Koulias,  T. Kowalczyk,  C. M. Krauter,  A. Kunitsa,  
 Ka Un Lao,  A. Laurent,  K. V. Lawler,  Joonho Lee,  D. Lefrancois,  
 S. Lehtola,  D. S. Levine,  Yi-Pei Li,  You-Sheng Lin,  Fenglai Liu,  
 Kuan-Yu Liu,  E. Livshits,  M. Loipersberger,  A. Luenser,  P. Manohar,  
 E. Mansoor,  S. F. Manzer,  Shan-Ping Mao,  Yuezhi Mao,  N. Mardirossian,  
 A. V. Marenich,  T. Markovich,  L. A. Martinez-Martinez,  S. A. Maurer,  
 N. J. Mayhall,  S. C. McKenzie,  J.-M. Mewes,  P. Morgante,  A. F. Morrison,  
 J. W. Mullinax,  K. Nanda,  T. S. Nguyen-Beck,  R. Olivares-Amaya,  
 J. A. Parkhill,  S. K. Paul,  F. Pavosevic,  Zheng Pei,  T. M. Perrine,  
 F. Plasser,  P. Pokhilko,  S. Prager,  A. Prociuk,  E. Ramos,  B. Rana,  
 D. R. Rehn,  F. Rob,  M. Scheurer,  M. Schneider,  N. Sergueev,  
 S. M. Sharada,  S. Sharma,  D. W. Small,  T. Stauch,  C. J. Stein,  
 T. Stein,  Yu-Chuan Su,  S. P. Veccham,  Zhen Tao,  A. J. W. Thom,  
 A. Tkatchenko,  T. Tsuchimochi,  N. M. Tubman,  L. Vogt,  M. L. Vidal,  
 O. Vydrov,  M. A. Watson,  J. Wenzel,  M. de Wergifosse,  T. A. Wesolowski,  
 A. White,  J. Witte,  A. Yamada,  Jun Yang,  K. Yao,  S. Yeganeh,  
 S. R. Yost,  Zhi-Qiang You,  A. Zech,  Igor Ying Zhang,  Xing Zhang,  
 Yan Zhao,  Ying Zhu,  B. R. Brooks,  G. K. L. Chan,  C. J. Cramer,  
 M. S. Gordon,  W. J. Hehre,  A. Klamt,  M. W. Schmidt,  C. D. Sherrill,  
 D. G. Truhlar,  A. Aspuru-Guzik,  R. Baer,  A. T. Bell,  N. A. Besley,  
 Jeng-Da Chai,  A. E. DePrince, III,  R. A. DiStasio Jr.,  A. Dreuw,  
 B. D. Dunietz,  T. R. Furlani,  Chao-Ping Hsu,  Yousung Jung,  Jing Kong,  
 D. S. Lambrecht,  WanZhen Liang,  C. Ochsenfeld,  V. A. Rassolov,  
 L. V. Slipchenko,  J. E. Subotnik,  T. Van Voorhis,  J. M. Herbert,  
 A. I. Krylov,  P. M. W. Gill,  M. Head-Gordon

 Contributors to earlier versions of Q-Chem not listed above: 
 R. D. Adamson,  B. Austin,  J. Baker,  G. J. O. Beran,  K. Brandhorst,  
 S. T. Brown,  E. F. C. Byrd,  A. K. Chakraborty,  C.-L. Cheng,  
 Siu Hung Chien,  D. M. Chipman,  D. L. Crittenden,  H. Dachsel,  
 R. J. Doerksen,  A. D. Dutoi,  L. Fusti-Molnar,  W. A. Goddard III,  
 A. Golubeva-Zadorozhnaya,  S. R. Gwaltney,  G. Hawkins,  A. Heyden,  
 S. Hirata,  G. Kedziora,  F. J. Keil,  C. Kelley,  Jihan Kim,  R. A. King,  
 R. Z. Khaliullin,  P. P. Korambath,  W. Kurlancheek,  A. M. Lee,  M. S. Lee,  
 S. V. Levchenko,  Ching Yeh Lin,  D. Liotard,  R. C. Lochan,  I. Lotan,  
 P. E. Maslen,  N. Nair,  D. P. O'Neill,  D. Neuhauser,  E. Neuscamman,  
 C. M. Oana,  R. Olson,  B. Peters,  R. Peverati,  P. A. Pieniazek,  
 Y. M. Rhee,  J. Ritchie,  M. A. Rohrdanz,  E. Rosta,  N. J. Russ,  
 H. F. Schaefer III,  N. E. Schultz,  N. Shenvi,  A. C. Simmonett,  A. Sodt,  
 D. Stuck,  K. S. Thanthiriwatte,  V. Vanovschi,  Tao Wang,  A. Warshel,  
 C. F. Williams,  Q. Wu,  X. Xu,  W. Zhang

 Please cite Q-Chem as follows:
 Y. Shao et al., Mol. Phys. 113, 184-215 (2015)
 DOI: 10.1080/00268976.2014.952696

 Q-Chem 5.2.2 for Intel X86 EM64T Linux

 Parts of Q-Chem use Armadillo 9.800.1 (Horizon Scraper).
 http://arma.sourceforge.net/

 Q-Chem begins on Sun Mar  7 02:56:13 2021  

Host: node026
0

     Scratch files written to /home/ymao90/scratch/CCX_CO_-4020210307025611//

Checking the input file for inconsistencies... 	...done.

--------------------------------------------------------------
User input:
--------------------------------------------------------------
$molecule
0 1
C      1.9839655798    2.8343873569   -0.6530035790
C      2.0889665948    1.3399289492   -0.2973932582
C      3.4017166944    0.7321441035   -0.8222227424
C      4.6254659785    1.5200300416   -0.3255741318
C      4.5210827926    3.0122209378   -0.6783481608
C      3.2094896156    3.6188525050   -0.1554554411
H      3.4653882129   -0.3186255299   -0.5134835234
H      2.0538505535    1.2303619181    0.7916336585
H      1.9041773336    2.9373830819   -1.7471760654
H      1.0604862058    3.2447823031   -0.2264495779
H      4.7056113531    1.4098609561    0.7662015896
H      5.5416784391    1.0893334561   -0.7496610014
H      5.3807748665    3.5587419877   -0.2692766409
H      4.5659637339    3.1311627355   -1.7719372538
H      3.2192612515    3.6121018079    0.9447339030
H      3.1260878858    4.6703627905   -0.4590864625
H      3.3863457527    0.7409636912   -1.9242196110
N      0.9315723625    0.5939302253   -0.7942938700
H      0.8024957372    0.5217251348   -1.7968919912
C      0.0000000000    0.0000000000    0.0000000000
H     -0.7899738588   -0.5065817117   -0.5873052394
O     -0.0000000000    0.0000000000    1.2238135054
$end

$rem
JOBTYPE  OPT
METHOD  B3LYP
BASIS  6-31+G(D)
SYMMETRY  FALSE
SYM_IGNORE  TRUE
MEM_TOTAL  8000
MEM_STATIC  2000
MAX_SUB_FILE_NUM  16000
BASIS_LIN_DEP_THRESH  6
THRESH  14
SCF_CONVERGENCE  9
GEN_SCFMAN  TRUE
SCF_GUESS  SAD
FD_MAT_VEC_PROD  FALSE
XC_GRID  000099000590
NL_GRID  1
MAX_SCF_CYCLES  200
GEOM_OPT_TOL_GRADIENT  100
GEOM_OPT_TOL_DISPLACEMENT  100
GEOM_OPT_TOL_ENERGY  10
$end

$multipole_field
Z   0.007779
$end


--------------------------------------------------------------
 ----------------------------------------------------------------
             Standard Nuclear Orientation (Angstroms)
    I     Atom           X                Y                Z
 ----------------------------------------------------------------
    1      C       1.9839655798     2.8343873569    -0.6530035790
    2      C       2.0889665948     1.3399289492    -0.2973932582
    3      C       3.4017166944     0.7321441035    -0.8222227424
    4      C       4.6254659785     1.5200300416    -0.3255741318
    5      C       4.5210827926     3.0122209378    -0.6783481608
    6      C       3.2094896156     3.6188525050    -0.1554554411
    7      H       3.4653882129    -0.3186255299    -0.5134835234
    8      H       2.0538505535     1.2303619181     0.7916336585
    9      H       1.9041773336     2.9373830819    -1.7471760654
   10      H       1.0604862058     3.2447823031    -0.2264495779
   11      H       4.7056113531     1.4098609561     0.7662015896
   12      H       5.5416784391     1.0893334561    -0.7496610014
   13      H       5.3807748665     3.5587419877    -0.2692766409
   14      H       4.5659637339     3.1311627355    -1.7719372538
   15      H       3.2192612515     3.6121018079     0.9447339030
   16      H       3.1260878858     4.6703627905    -0.4590864625
   17      H       3.3863457527     0.7409636912    -1.9242196110
   18      N       0.9315723625     0.5939302253    -0.7942938700
   19      H       0.8024957372     0.5217251348    -1.7968919912
   20      C       0.0000000000     0.0000000000     0.0000000000
   21      H      -0.7899738588    -0.5065817117    -0.5873052394
   22      O       0.0000000000     0.0000000000     1.2238135054
 ----------------------------------------------------------------
 Nuclear Repulsion Energy =         466.63298041 hartrees
 There are       35 alpha and       35 beta electrons
 Requested basis set is 6-31+G(d)
 There are 71 shells and 197 basis functions

 Total QAlloc Memory Limit   8000 MB
 Mega-Array Size      1956 MB
 MEM_STATIC part      2000 MB
 Applying Cartesian multipole field
    Component          Value
    ---------          -----
     (0,0,1)        7.77900E-03
 Nucleus-field energy     =    -0.3072991847 hartrees
 A cutoff of  1.0D-14 yielded   2413 shell pairs
 There are     18998 function pairs
 Smallest overlap matrix eigenvalue = 2.48E-05
 Guess from superposition of atomic densities
 Warning:  Energy on first SCF cycle will be non-variational
 SAD guess density has 70.000000 electrons

 -----------------------------------------------------------------------
  General SCF calculation program by
  Eric Jon Sundstrom, Paul Horn, Yuezhi Mao, Dmitri Zuev, Alec White,
  David Stuck, Shaama M.S., Shane Yost, Joonho Lee, David Small,
  Daniel Levine, Susi Lehtola, Hugh Burton, Evgeny Epifanovsky,
  Bang C. Huynh
 -----------------------------------------------------------------------
 Exchange:     0.2000 Hartree-Fock + 0.0800 Slater + 0.7200 B88
 Correlation:  0.1900 VWN1RPA + 0.8100 LYP
 Using Euler-Maclaurin-Lebedev (99,590) quadrature formula
 using 16 threads for integral computing
 -------------------------------------------------------
 OpenMP Integral computing Module                
 Release: version 2.0, May 2017, Q-Chem Inc. Pleasanton 
 -------------------------------------------------------
 A restricted SCF calculation will be
 performed using DIIS
 SCF converges when DIIS error is below 1.0e-09
 ---------------------------------------
  Cycle       Energy         DIIS error
 ---------------------------------------
    1    -406.2319506881      5.08e-02  
    2    -404.3846444542      6.77e-03  
    3    -403.9598620197      1.24e-02  
    4    -404.5702161423      2.67e-03  
    5    -404.5986431668      7.01e-04  
    6    -404.6005442408      2.29e-04  
    7    -404.6007532202      7.57e-05  
    8    -404.6007774076      1.42e-05  
    9    -404.6007782361      4.54e-06  
   10    -404.6007783218      8.34e-07  
   11    -404.6007783246      3.17e-07  
   12    -404.6007783251      5.61e-08  
   13    -404.6007783251      1.41e-08  
   14    -404.6007783251      4.33e-09  
   15    -404.6007783251      1.30e-09  
   16    -404.6007783251      3.25e-10  Convergence criterion met
 ---------------------------------------
 SCF time:   CPU 749.46s  wall 47.00s 
 SCF   energy in the final basis set =     -404.6007783251
 Total energy in the final basis set =     -404.6007783251
 
 --------------------------------------------------------------
 
                    Orbital Energies (a.u.)
 --------------------------------------------------------------
 
 Alpha MOs
 -- Occupied --
-19.1291 -14.3689 -10.2906 -10.2280 -10.1885 -10.1875 -10.1863 -10.1860
-10.1827  -1.0397  -0.9306  -0.8285  -0.7466  -0.7452  -0.6379  -0.6167
 -0.5936  -0.5682  -0.5267  -0.4849  -0.4627  -0.4466  -0.4416  -0.4190
 -0.4169  -0.3997  -0.3836  -0.3759  -0.3506  -0.3497  -0.3276  -0.3175
 -0.3137  -0.2644  -0.2576
 -- Virtual --
 -0.0057   0.0137   0.0182   0.0195   0.0237   0.0389   0.0475   0.0483
  0.0570   0.0683   0.0687   0.0826   0.0851   0.0892   0.1015   0.1067
  0.1111   0.1154   0.1276   0.1323   0.1394   0.1482   0.1575   0.1613
  0.1698   0.1785   0.1790   0.1870   0.1967   0.2038   0.2131   0.2149
  0.2193   0.2247   0.2286   0.2438   0.2471   0.2552   0.2678   0.2714
  0.2801   0.2838   0.2871   0.2872   0.2946   0.3081   0.3093   0.3261
  0.3268   0.3303   0.3594   0.3683   0.3822   0.3856   0.4142   0.4167
  0.4379   0.4555   0.4928   0.6071   0.6358   0.6537   0.6615   0.6655
  0.6796   0.6942   0.7276   0.7296   0.7468   0.7496   0.7748   0.7812
  0.8008   0.8027   0.8186   0.8461   0.8583   0.9065   0.9514   0.9716
  0.9768   0.9858   1.0161   1.0268   1.0282   1.0538   1.0863   1.0997
  1.1156   1.1187   1.1216   1.1453   1.1547   1.1681   1.1777   1.1853
  1.2371   1.2541   1.2886   1.3343   1.3414   1.3708   1.3879   1.4145
  1.4794   1.4892   1.4918   1.5664   1.5701   1.6125   1.7000   1.7267
  1.7304   1.7549   1.7692   1.8061   1.8530   1.8701   1.8988   1.9033
  1.9083   1.9391   1.9795   2.0089   2.0134   2.0430   2.0521   2.0864
  2.0897   2.1280   2.1985   2.2198   2.2773   2.3098   2.3116   2.3462
  2.3987   2.4078   2.4144   2.4186   2.4485   2.5621   2.5851   2.6245
  2.6689   2.6832   2.7023   2.7576   2.7749   2.8310   2.8676   3.0127
  3.1892   4.0907   4.1942   4.2357   4.2897   4.3311   4.4194   4.5981
  4.6033   4.6707
 --------------------------------------------------------------
 
          Ground-State Mulliken Net Atomic Charges

     Atom                 Charge (a.u.)
  ----------------------------------------
      1 C                    -0.232137
      2 C                    -0.497653
      3 C                    -0.250816
      4 C                    -0.447678
      5 C                    -0.355585
      6 C                    -0.451619
      7 H                     0.206210
      8 H                     0.220740
      9 H                     0.220857
     10 H                     0.203192
     11 H                     0.178200
     12 H                     0.209219
     13 H                     0.187919
     14 H                     0.223386
     15 H                     0.177652
     16 H                     0.205498
     17 H                     0.220786
     18 N                    -0.387519
     19 H                     0.417925
     20 C                     0.323562
     21 H                     0.158090
     22 O                    -0.530227
  ----------------------------------------
  Sum of atomic charges =     0.000000

 -----------------------------------------------------------------
                    Cartesian Multipole Moments
 -----------------------------------------------------------------
    Charge (ESU x 10^10)
                -0.0000
    Dipole Moment (Debye)
         X       1.7905      Y       1.1566      Z      -5.3369
       Tot       5.7468
    Quadrupole Moments (Debye-Ang)
        XX     -51.3615     XY       3.5137     YY     -54.6624
        XZ      -3.9598     YZ      -2.6290     ZZ     -56.7932
    Octopole Moments (Debye-Ang^2)
       XXX    -392.4528    XXY     -80.9594    XYY    -130.1008
       YYY    -263.6099    XXZ       2.5074    XYZ      -8.9683
       YYZ      10.3243    XZZ    -129.0949    YZZ     -85.0807
       ZZZ      35.0148
    Hexadecapole Moments (Debye-Ang^3)
      XXXX   -2980.2002   XXXY    -848.3446   XXYY    -744.5739
      XYYY    -859.8315   YYYY   -1515.4549   XXXZ     145.3981
      XXYZ      13.2246   XYYZ      45.2767   YYYZ      99.1865
      XXZZ    -533.0556   XYZZ    -280.0947   YYZZ    -293.8288
      XZZZ     187.6167   YZZZ     112.4972   ZZZZ    -249.4081
 -----------------------------------------------------------------
 Calculating analytic gradient of the SCF energy
 Gradient of SCF Energy
            1           2           3           4           5           6
    1   0.0001323  -0.0004291   0.0000815   0.0000063   0.0000802   0.0000285
    2   0.0000625  -0.0001787   0.0000083  -0.0001177   0.0000292  -0.0000566
    3   0.0014942   0.0003001   0.0015185   0.0013282   0.0011273   0.0013698
            7           8           9          10          11          12
    1  -0.0000198  -0.0000037  -0.0000255   0.0003509   0.0000601   0.0004120
    2   0.0002171   0.0000478  -0.0002475  -0.0001725   0.0000923  -0.0001816
    3   0.0003209  -0.0004696  -0.0012667   0.0002132  -0.0015766   0.0002885
           13          14          15          16          17          18
    1  -0.0003576  -0.0001126  -0.0000168   0.0000112  -0.0003432   0.0032295
    2  -0.0002470   0.0000278   0.0002461   0.0002445   0.0002524   0.0019012
    3   0.0002525  -0.0012863  -0.0016268   0.0003827  -0.0012620  -0.0038759
           19          20          21          22
    1   0.0001727  -0.0026478  -0.0008362   0.0002272
    2   0.0001627  -0.0016757  -0.0005491   0.0001345
    3   0.0009271   0.0130832  -0.0006308  -0.0106117
 Max gradient component =       1.308E-02
 RMS gradient           =       2.291E-03
 Gradient time:  CPU 120.00 s  wall 7.59 s
 Geometry Optimization Parameters
   NAtoms,    NIC,     NZ,  NCons,   NDum,   NFix, NCnnct, MaxDiis
       22     172       0       0       0       0       0       0


** GEOMETRY OPTIMIZATION IN DELOCALIZED INTERNAL COORDINATES **
   Searching for a Minimum

   Optimization Cycle:   1

                       Coordinates (Angstroms)
     ATOM                X               Y               Z
      1  C         1.9839655798    2.8343873569   -0.6530035790
      2  C         2.0889665948    1.3399289492   -0.2973932582
      3  C         3.4017166944    0.7321441035   -0.8222227424
      4  C         4.6254659785    1.5200300416   -0.3255741318
      5  C         4.5210827926    3.0122209378   -0.6783481608
      6  C         3.2094896156    3.6188525050   -0.1554554411
      7  H         3.4653882129   -0.3186255299   -0.5134835234
      8  H         2.0538505535    1.2303619181    0.7916336585
      9  H         1.9041773336    2.9373830819   -1.7471760654
     10  H         1.0604862058    3.2447823031   -0.2264495779
     11  H         4.7056113531    1.4098609561    0.7662015896
     12  H         5.5416784391    1.0893334561   -0.7496610014
     13  H         5.3807748665    3.5587419877   -0.2692766409
     14  H         4.5659637339    3.1311627355   -1.7719372538
     15  H         3.2192612515    3.6121018079    0.9447339030
     16  H         3.1260878858    4.6703627905   -0.4590864625
     17  H         3.3863457527    0.7409636912   -1.9242196110
     18  N         0.9315723625    0.5939302253   -0.7942938700
     19  H         0.8024957372    0.5217251348   -1.7968919912
     20  C         0.0000000000    0.0000000000    0.0000000000
     21  H        -0.7899738588   -0.5065817117   -0.5873052394
     22  O         0.0000000000    0.0000000000    1.2238135054
   Point Group: c1    Number of degrees of freedom:    60


   Energy is   -404.600778325


 Attempting to generate delocalized internal coordinates
 Initial Hessian constructed with Jon Baker's OPTIMIZE code

 60 Hessian modes will be used to form the next step
  Hessian Eigenvalues:
     0.005967    0.006024    0.006964    0.007193    0.012605    0.019501
     0.019786    0.020845    0.020845    0.037215    0.038526    0.039417
     0.041724    0.048166    0.048450    0.048891    0.055292    0.055631
     0.055746    0.059934    0.066958    0.081508    0.081536    0.081616
     0.082032    0.082133    0.084029    0.087513    0.120967    0.121178
     0.142989    0.159989    0.160000    0.160554    0.174868    0.210947
     0.220000    0.220003    0.272263    0.272658    0.275535    0.286789
     0.287121    0.287175    0.329119    0.334466    0.334727    0.335769
     0.336541    0.336553    0.339301    0.339441    0.339454    0.340119
     0.340274    0.342312    0.364811    0.454000    0.528079    0.937134

 Minimum search - taking simple RFO step
 Searching for Lamda that Minimizes Along All modes
 Value Taken    Lamda =  -0.00026310
 Step Taken.  Stepsize is  0.083431

                             Maximum     Tolerance    Cnvgd?
         Gradient           0.006017      0.000100      NO
         Displacement       0.030401      0.000100      NO
         Energy change     *********      0.000000      NO


 New Cartesian Coordinates Obtained by Inverse Iteration

 Displacement from previous Coordinates is:  0.156174
 ----------------------------------------------------------------
             Standard Nuclear Orientation (Angstroms)
    I     Atom           X                Y                Z
 ----------------------------------------------------------------
    1      C       1.9837977681     2.8332108460    -0.6674402536
    2      C       2.0901539117     1.3398267804    -0.3079107425
    3      C       3.4018985444     0.7333082075    -0.8371483570
    4      C       4.6223709106     1.5167960616    -0.3257918097
    5      C       4.5221153295     3.0125922315    -0.6659456542
    6      C       3.2039614127     3.6162978561    -0.1549272877
    7      H       3.4638486500    -0.3210416243    -0.5398488755
    8      H       2.0616394558     1.2343595824     0.7824081766
    9      H       1.9160277504     2.9383903581    -1.7602500690
   10      H       1.0546146143     3.2431089343    -0.2518440524
   11      H       4.6950102295     1.3961752987     0.7679689368
   12      H       5.5397456241     1.0900310550    -0.7500308427
   13      H       5.3782490333     3.5562805055    -0.2443903917
   14      H       4.5804153762     3.1407258880    -1.7557197757
   15      H       3.2015916096     3.6051801382     0.9479017444
   16      H       3.1230802080     4.6678186917    -0.4583833427
   17      H       3.3931147388     0.7521211604    -1.9370841195
   18      N       0.9285806683     0.5907955636    -0.7898739024
   19      H       0.7912486864     0.5101625516    -1.7919336803
   20      C       0.0062730759     0.0057407335     0.0142725711
   21      H      -0.7867322008    -0.5032863663    -0.5633880598
   22      O       0.0134016883     0.0144722873     1.2439638936
 ----------------------------------------------------------------
 Nuclear Repulsion Energy =         466.66809760 hartrees
 There are       35 alpha and       35 beta electrons
 Applying Cartesian multipole field
    Component          Value
    ---------          -----
     (0,0,1)        7.77900E-03
 Nucleus-field energy     =    -0.3057835753 hartrees
 Requested basis set is 6-31+G(d)
 There are 71 shells and 197 basis functions
 A cutoff of  1.0D-14 yielded   2413 shell pairs
 There are     18998 function pairs
 Smallest overlap matrix eigenvalue = 2.50E-05
 Guess MOs from SCF MO coefficient file

 -----------------------------------------------------------------------
  General SCF calculation program by
  Eric Jon Sundstrom, Paul Horn, Yuezhi Mao, Dmitri Zuev, Alec White,
  David Stuck, Shaama M.S., Shane Yost, Joonho Lee, David Small,
  Daniel Levine, Susi Lehtola, Hugh Burton, Evgeny Epifanovsky,
  Bang C. Huynh
 -----------------------------------------------------------------------
 Exchange:     0.2000 Hartree-Fock + 0.0800 Slater + 0.7200 B88
 Correlation:  0.1900 VWN1RPA + 0.8100 LYP
 Using Euler-Maclaurin-Lebedev (99,590) quadrature formula
 using 16 threads for integral computing
 -------------------------------------------------------
 OpenMP Integral computing Module                
 Release: version 2.0, May 2017, Q-Chem Inc. Pleasanton 
 -------------------------------------------------------
 A restricted SCF calculation will be
 performed using DIIS
 SCF converges when DIIS error is below 1.0e-09
 ---------------------------------------
  Cycle       Energy         DIIS error
 ---------------------------------------
    1    -404.6005686835      2.07e-04  
    2    -404.6009278289      3.52e-05  
    3    -404.6009252990      4.84e-05  
    4    -404.6009331904      1.56e-05  
    5    -404.6009341266      3.68e-06  
    6    -404.6009341850      5.34e-07  
    7    -404.6009341858      3.52e-07  
    8    -404.6009341864      3.95e-08  
    9    -404.6009341864      1.88e-08  
   10    -404.6009341864      2.78e-09  
   11    -404.6009341864      8.09e-10  Convergence criterion met
 ---------------------------------------
 SCF time:   CPU 522.34s  wall 32.00s 
 SCF   energy in the final basis set =     -404.6009341864
 Total energy in the final basis set =     -404.6009341864
 
 --------------------------------------------------------------
 
                    Orbital Energies (a.u.)
 --------------------------------------------------------------
 
 Alpha MOs
 -- Occupied --
-19.1285 -14.3701 -10.2907 -10.2282 -10.1889 -10.1879 -10.1863 -10.1861
-10.1829  -1.0367  -0.9314  -0.8290  -0.7468  -0.7456  -0.6388  -0.6167
 -0.5942  -0.5684  -0.5273  -0.4851  -0.4623  -0.4471  -0.4417  -0.4187
 -0.4161  -0.3996  -0.3839  -0.3750  -0.3508  -0.3499  -0.3277  -0.3180
 -0.3137  -0.2638  -0.2580
 -- Virtual --
 -0.0055   0.0131   0.0178   0.0195   0.0239   0.0386   0.0473   0.0482
  0.0569   0.0683   0.0687   0.0825   0.0849   0.0893   0.1014   0.1065
  0.1111   0.1152   0.1276   0.1324   0.1395   0.1481   0.1571   0.1616
  0.1700   0.1782   0.1786   0.1869   0.1964   0.2039   0.2131   0.2154
  0.2191   0.2243   0.2284   0.2439   0.2473   0.2553   0.2667   0.2705
  0.2798   0.2838   0.2867   0.2875   0.2946   0.3078   0.3091   0.3267
  0.3275   0.3302   0.3586   0.3686   0.3826   0.3861   0.4137   0.4166
  0.4368   0.4566   0.4902   0.6069   0.6354   0.6543   0.6615   0.6658
  0.6795   0.6943   0.7274   0.7293   0.7470   0.7500   0.7750   0.7803
  0.8003   0.8022   0.8182   0.8465   0.8583   0.9070   0.9520   0.9716
  0.9770   0.9857   1.0159   1.0256   1.0277   1.0519   1.0855   1.0982
  1.1150   1.1194   1.1209   1.1463   1.1535   1.1681   1.1792   1.1858
  1.2372   1.2540   1.2888   1.3361   1.3426   1.3722   1.3874   1.4160
  1.4778   1.4873   1.4924   1.5638   1.5699   1.6125   1.7031   1.7273
  1.7297   1.7530   1.7700   1.8061   1.8524   1.8689   1.9002   1.9025
  1.9084   1.9391   1.9810   2.0082   2.0139   2.0434   2.0519   2.0846
  2.0876   2.1280   2.1995   2.2195   2.2783   2.3101   2.3108   2.3445
  2.3979   2.4074   2.4135   2.4166   2.4485   2.5625   2.5849   2.6222
  2.6693   2.6824   2.7002   2.7580   2.7758   2.8309   2.8670   3.0077
  3.1881   4.0913   4.1948   4.2345   4.2890   4.3305   4.4183   4.5991
  4.6040   4.6709
 --------------------------------------------------------------
 
          Ground-State Mulliken Net Atomic Charges

     Atom                 Charge (a.u.)
  ----------------------------------------
      1 C                    -0.232664
      2 C                    -0.506329
      3 C                    -0.252533
      4 C                    -0.445239
      5 C                    -0.355367
      6 C                    -0.449040
      7 H                     0.206639
      8 H                     0.221550
      9 H                     0.221701
     10 H                     0.203661
     11 H                     0.178064
     12 H                     0.209205
     13 H                     0.187765
     14 H                     0.223716
     15 H                     0.177482
     16 H                     0.205406
     17 H                     0.221776
     18 N                    -0.380910
     19 H                     0.418168
     20 C                     0.323688
     21 H                     0.158239
     22 O                    -0.534979
  ----------------------------------------
  Sum of atomic charges =     0.000000

 -----------------------------------------------------------------
                    Cartesian Multipole Moments
 -----------------------------------------------------------------
    Charge (ESU x 10^10)
                 0.0000
    Dipole Moment (Debye)
         X       1.7926      Y       1.1439      Z      -5.4248
       Tot       5.8267
    Quadrupole Moments (Debye-Ang)
        XX     -51.2927     XY       3.5452     YY     -54.6267
        XZ      -4.0773     YZ      -2.7143     ZZ     -56.9300
    Octopole Moments (Debye-Ang^2)
       XXX    -392.3042    XXY     -80.8712    XYY    -130.0415
       YYY    -263.6413    XXZ       2.0964    XYZ      -9.0764
       YYZ      10.0269    XZZ    -129.1131    YZZ     -85.1880
       ZZZ      34.3853
    Hexadecapole Moments (Debye-Ang^3)
      XXXX   -2977.1556   XXXY    -846.7801   XXYY    -743.5236
      XYYY    -858.7229   YYYY   -1513.7370   XXXZ     144.1600
      XXYZ      12.6144   XYYZ      44.7902   YYYZ      98.3752
      XXZZ    -532.7129   XYZZ    -279.6309   YYZZ    -293.9080
      XZZZ     187.7027   YZZZ     112.3779   ZZZZ    -252.5925
 -----------------------------------------------------------------
 Calculating analytic gradient of the SCF energy
 Gradient of SCF Energy
            1           2           3           4           5           6
    1   0.0001756  -0.0002414   0.0003344  -0.0001820   0.0002153  -0.0001544
    2   0.0001982  -0.0001019   0.0000656  -0.0001100   0.0001416  -0.0001603
    3   0.0000988  -0.0000446   0.0001210  -0.0000800   0.0001734  -0.0000648
            7           8           9          10          11          12
    1  -0.0000722  -0.0001889   0.0000040  -0.0000270   0.0000132   0.0000010
    2   0.0000186  -0.0001062   0.0000027  -0.0000576   0.0000120  -0.0000652
    3  -0.0000053  -0.0000358  -0.0000318  -0.0000140   0.0000652   0.0000740
           13          14          15          16          17          18
    1  -0.0000053  -0.0000099   0.0000102  -0.0000724   0.0000023   0.0010193
    2   0.0000037  -0.0000098   0.0000051   0.0000226   0.0000079   0.0006434
    3   0.0000455   0.0001031   0.0000553   0.0000731  -0.0000368  -0.0013058
           19          20          21          22
    1   0.0000343  -0.0009065   0.0000660  -0.0000155
    2   0.0000744  -0.0006855   0.0000690   0.0000317
    3  -0.0000521   0.0040384  -0.0006609  -0.0025157
 Max gradient component =       4.038E-03
 RMS gradient           =       6.528E-04
 Gradient time:  CPU 119.43 s  wall 7.58 s
 Geometry Optimization Parameters
   NAtoms,    NIC,     NZ,  NCons,   NDum,   NFix, NCnnct, MaxDiis
       22     172       0       0       0       0       0       0

 Cartesian Hessian Update
 Hessian updated using BFGS update


** GEOMETRY OPTIMIZATION IN DELOCALIZED INTERNAL COORDINATES **
   Searching for a Minimum

   Optimization Cycle:   2

                       Coordinates (Angstroms)
     ATOM                X               Y               Z
      1  C         1.9837977681    2.8332108460   -0.6674402536
      2  C         2.0901539117    1.3398267804   -0.3079107425
      3  C         3.4018985444    0.7333082075   -0.8371483570
      4  C         4.6223709106    1.5167960616   -0.3257918097
      5  C         4.5221153295    3.0125922315   -0.6659456542
      6  C         3.2039614127    3.6162978561   -0.1549272877
      7  H         3.4638486500   -0.3210416243   -0.5398488755
      8  H         2.0616394558    1.2343595824    0.7824081766
      9  H         1.9160277504    2.9383903581   -1.7602500690
     10  H         1.0546146143    3.2431089343   -0.2518440524
     11  H         4.6950102295    1.3961752987    0.7679689368
     12  H         5.5397456241    1.0900310550   -0.7500308427
     13  H         5.3782490333    3.5562805055   -0.2443903917
     14  H         4.5804153762    3.1407258880   -1.7557197757
     15  H         3.2015916096    3.6051801382    0.9479017444
     16  H         3.1230802080    4.6678186917   -0.4583833427
     17  H         3.3931147388    0.7521211604   -1.9370841195
     18  N         0.9285806683    0.5907955636   -0.7898739024
     19  H         0.7912486864    0.5101625516   -1.7919336803
     20  C         0.0062730759    0.0057407335    0.0142725711
     21  H        -0.7867322008   -0.5032863663   -0.5633880598
     22  O         0.0134016883    0.0144722873    1.2439638936
   Point Group: c1    Number of degrees of freedom:    60


   Energy is   -404.600934186

 Hessian updated using BFGS update

 60 Hessian modes will be used to form the next step
  Hessian Eigenvalues:
     0.005788    0.005976    0.006919    0.007186    0.012604    0.019500
     0.019729    0.020845    0.020873    0.037136    0.038516    0.039416
     0.041745    0.048202    0.048449    0.048872    0.055294    0.055726
     0.055983    0.060090    0.066958    0.081162    0.081533    0.081607
     0.082032    0.082133    0.084213    0.087501    0.120967    0.121318
     0.142960    0.159824    0.160073    0.161702    0.174928    0.211027
     0.219963    0.222672    0.272016    0.272703    0.275539    0.286824
     0.287031    0.287412    0.327851    0.334532    0.334858    0.335994
     0.336546    0.339254    0.339415    0.339436    0.340109    0.340218
     0.341973    0.345371    0.366083    0.454151    0.483666    0.836205

 Minimum search - taking simple RFO step
 Searching for Lamda that Minimizes Along All modes
 Value Taken    Lamda =  -0.00002529
 Step Taken.  Stepsize is  0.029211

                             Maximum     Tolerance    Cnvgd?
         Gradient           0.001698      0.000100      NO
         Displacement       0.012063      0.000100      NO
         Energy change     -0.000156      0.000000      NO


 New Cartesian Coordinates Obtained by Inverse Iteration

 Displacement from previous Coordinates is:  0.049917
 ----------------------------------------------------------------
             Standard Nuclear Orientation (Angstroms)
    I     Atom           X                Y                Z
 ----------------------------------------------------------------
    1      C       1.9837802237     2.8327442758    -0.6716476971
    2      C       2.0905990741     1.3398507387    -0.3107536774
    3      C       3.4015057993     0.7338423651    -0.8418710026
    4      C       4.6213363454     1.5158382750    -0.3259270681
    5      C       4.5219711455     3.0124197822    -0.6623643921
    6      C       3.2024502759     3.6157634251    -0.1547418211
    7      H       3.4636730514    -0.3214787744    -0.5479189812
    8      H       2.0659183128     1.2365885197     0.7798994530
    9      H       1.9195602477     2.9380018173    -1.7645004752
   10      H       1.0534597414     3.2429406159    -0.2588422555
   11      H       4.6911055236     1.3918594912     0.7677530988
   12      H       5.5397494762     1.0907636628    -0.7494526254
   13      H       5.3764997807     3.5545655421    -0.2354275904
   14      H       4.5852783071     3.1440006180    -1.7513954499
   15      H       3.1961533040     3.6031678344     0.9481807824
   16      H       3.1232734904     4.6675384978    -0.4575511824
   17      H       3.3940345789     0.7563929560    -1.9415647284
   18      N       0.9275771880     0.5896009963    -0.7885829779
   19      H       0.7890687572     0.5053586307    -1.7902874368
   20      C       0.0072239307     0.0082220234     0.0169644987
   21      H      -0.7875473493    -0.5045880869    -0.5539595306
   22      O       0.0177358803     0.0196735345     1.2485951655
 ----------------------------------------------------------------
 Nuclear Repulsion Energy =         466.71168460 hartrees
 There are       35 alpha and       35 beta electrons
 Applying Cartesian multipole field
    Component          Value
    ---------          -----
     (0,0,1)        7.77900E-03
 Nucleus-field energy     =    -0.3055937031 hartrees
 Requested basis set is 6-31+G(d)
 There are 71 shells and 197 basis functions
 A cutoff of  1.0D-14 yielded   2412 shell pairs
 There are     18997 function pairs
 Smallest overlap matrix eigenvalue = 2.51E-05
 Guess MOs from SCF MO coefficient file

 -----------------------------------------------------------------------
  General SCF calculation program by
  Eric Jon Sundstrom, Paul Horn, Yuezhi Mao, Dmitri Zuev, Alec White,
  David Stuck, Shaama M.S., Shane Yost, Joonho Lee, David Small,
  Daniel Levine, Susi Lehtola, Hugh Burton, Evgeny Epifanovsky,
  Bang C. Huynh
 -----------------------------------------------------------------------
 Exchange:     0.2000 Hartree-Fock + 0.0800 Slater + 0.7200 B88
 Correlation:  0.1900 VWN1RPA + 0.8100 LYP
 Using Euler-Maclaurin-Lebedev (99,590) quadrature formula
 using 16 threads for integral computing
 -------------------------------------------------------
 OpenMP Integral computing Module                
 Release: version 2.0, May 2017, Q-Chem Inc. Pleasanton 
 -------------------------------------------------------
 A restricted SCF calculation will be
 performed using DIIS
 SCF converges when DIIS error is below 1.0e-09
 ---------------------------------------
  Cycle       Energy         DIIS error
 ---------------------------------------
    1    -404.6009045890      7.06e-05  
    2    -404.6009456655      1.85e-05  
    3    -404.6009429357      3.33e-05  
    4    -404.6009469576      4.59e-06  
    5    -404.6009470453      1.23e-06  
    6    -404.6009470518      2.71e-07  
    7    -404.6009470521      1.10e-07  
    8    -404.6009470521      2.20e-08  
    9    -404.6009470521      4.87e-09  
   10    -404.6009470521      1.52e-09  
   11    -404.6009470521      4.74e-10  Convergence criterion met
 ---------------------------------------
 SCF time:   CPU 522.72s  wall 33.00s 
 SCF   energy in the final basis set =     -404.6009470521
 Total energy in the final basis set =     -404.6009470521
 
 --------------------------------------------------------------
 
                    Orbital Energies (a.u.)
 --------------------------------------------------------------
 
 Alpha MOs
 -- Occupied --
-19.1280 -14.3705 -10.2905 -10.2284 -10.1889 -10.1880 -10.1863 -10.1862
-10.1830  -1.0357  -0.9316  -0.8292  -0.7469  -0.7458  -0.6390  -0.6167
 -0.5944  -0.5685  -0.5276  -0.4853  -0.4622  -0.4473  -0.4418  -0.4186
 -0.4157  -0.3996  -0.3840  -0.3746  -0.3508  -0.3499  -0.3277  -0.3181
 -0.3137  -0.2634  -0.2581
 -- Virtual --
 -0.0054   0.0130   0.0177   0.0195   0.0239   0.0385   0.0473   0.0482
  0.0569   0.0683   0.0687   0.0825   0.0849   0.0893   0.1014   0.1064
  0.1111   0.1151   0.1276   0.1324   0.1396   0.1481   0.1570   0.1618
  0.1701   0.1781   0.1785   0.1869   0.1964   0.2038   0.2129   0.2155
  0.2190   0.2242   0.2285   0.2439   0.2473   0.2553   0.2664   0.2704
  0.2796   0.2839   0.2866   0.2876   0.2946   0.3076   0.3091   0.3269
  0.3279   0.3303   0.3584   0.3687   0.3831   0.3864   0.4136   0.4168
  0.4366   0.4571   0.4894   0.6068   0.6353   0.6544   0.6614   0.6658
  0.6795   0.6943   0.7272   0.7292   0.7472   0.7500   0.7750   0.7802
  0.8002   0.8022   0.8181   0.8467   0.8585   0.9069   0.9518   0.9715
  0.9770   0.9857   1.0158   1.0254   1.0278   1.0514   1.0851   1.0979
  1.1148   1.1196   1.1208   1.1464   1.1534   1.1681   1.1796   1.1859
  1.2371   1.2542   1.2892   1.3367   1.3431   1.3727   1.3871   1.4164
  1.4773   1.4870   1.4928   1.5629   1.5699   1.6118   1.7034   1.7276
  1.7294   1.7528   1.7704   1.8062   1.8525   1.8690   1.9004   1.9026
  1.9083   1.9392   1.9815   2.0079   2.0141   2.0436   2.0516   2.0842
  2.0874   2.1286   2.1995   2.2193   2.2791   2.3101   2.3117   2.3439
  2.3975   2.4070   2.4133   2.4167   2.4487   2.5622   2.5850   2.6214
  2.6694   2.6822   2.6998   2.7582   2.7765   2.8308   2.8664   3.0060
  3.1880   4.0915   4.1950   4.2341   4.2888   4.3305   4.4175   4.5996
  4.6044   4.6709
 --------------------------------------------------------------
 
          Ground-State Mulliken Net Atomic Charges

     Atom                 Charge (a.u.)
  ----------------------------------------
      1 C                    -0.231935
      2 C                    -0.509681
      3 C                    -0.252811
      4 C                    -0.444303
      5 C                    -0.355731
      6 C                    -0.448151
      7 H                     0.206786
      8 H                     0.222022
      9 H                     0.221864
     10 H                     0.203799
     11 H                     0.178167
     12 H                     0.209209
     13 H                     0.187634
     14 H                     0.223795
     15 H                     0.177576
     16 H                     0.205411
     17 H                     0.221965
     18 N                    -0.378884
     19 H                     0.418241
     20 C                     0.323205
     21 H                     0.158615
     22 O                    -0.536793
  ----------------------------------------
  Sum of atomic charges =     0.000000

 -----------------------------------------------------------------
                    Cartesian Multipole Moments
 -----------------------------------------------------------------
    Charge (ESU x 10^10)
                -0.0000
    Dipole Moment (Debye)
         X       1.7964      Y       1.1386      Z      -5.4494
       Tot       5.8498
    Quadrupole Moments (Debye-Ang)
        XX     -51.2506     XY       3.5663     YY     -54.6077
        XZ      -4.1006     YZ      -2.7285     ZZ     -56.9732
    Octopole Moments (Debye-Ang^2)
       XXX    -392.1816    XXY     -80.8443    XYY    -130.0013
       YYY    -263.6399    XXZ       2.0506    XYZ      -9.0770
       YYZ       9.9945    XZZ    -129.1012    YZZ     -85.2358
       ZZZ      34.2540
    Hexadecapole Moments (Debye-Ang^3)
      XXXX   -2975.8148   XXXY    -846.4081   XXYY    -743.2081
      XYYY    -858.3108   YYYY   -1513.0116   XXXZ     144.1091
      XXYZ      12.5372   XYYZ      44.7629   YYYZ      98.2765
      XXZZ    -532.5551   XYZZ    -279.4681   YYZZ    -293.9200
      XZZZ     187.7373   YZZZ     112.3235   ZZZZ    -253.4572
 -----------------------------------------------------------------
 Calculating analytic gradient of the SCF energy
 Gradient of SCF Energy
            1           2           3           4           5           6
    1   0.0001468  -0.0001134   0.0001202  -0.0000453   0.0000115  -0.0000632
    2   0.0000068  -0.0000826   0.0001332  -0.0000528   0.0000089  -0.0000105
    3  -0.0000461  -0.0000861  -0.0000192  -0.0000401   0.0000130  -0.0000482
            7           8           9          10          11          12
    1  -0.0000138  -0.0000073   0.0000282  -0.0000322  -0.0000269  -0.0000027
    2  -0.0000157   0.0000056   0.0000309   0.0000029  -0.0000209   0.0000093
    3  -0.0000279   0.0000342   0.0000581  -0.0000292   0.0001519   0.0000664
           13          14          15          16          17          18
    1  -0.0000156   0.0000452  -0.0000301   0.0000029   0.0000389   0.0002025
    2  -0.0000079   0.0000242  -0.0000356   0.0000007   0.0000044   0.0000473
    3   0.0000916   0.0001301   0.0001496   0.0000596   0.0000650  -0.0000976
           19          20          21          22
    1  -0.0000443  -0.0003867   0.0000818   0.0001037
    2  -0.0000245   0.0001522  -0.0000843  -0.0000916
    3  -0.0000880   0.0001505  -0.0002214  -0.0002661
 Max gradient component =       3.867E-04
 RMS gradient           =       9.600E-05
 Gradient time:  CPU 117.80 s  wall 7.49 s
 Geometry Optimization Parameters
   NAtoms,    NIC,     NZ,  NCons,   NDum,   NFix, NCnnct, MaxDiis
       22     172       0       0       0       0       0       0

 Cartesian Hessian Update
 Hessian updated using BFGS update


** GEOMETRY OPTIMIZATION IN DELOCALIZED INTERNAL COORDINATES **
   Searching for a Minimum

   Optimization Cycle:   3

                       Coordinates (Angstroms)
     ATOM                X               Y               Z
      1  C         1.9837802237    2.8327442758   -0.6716476971
      2  C         2.0905990741    1.3398507387   -0.3107536774
      3  C         3.4015057993    0.7338423651   -0.8418710026
      4  C         4.6213363454    1.5158382750   -0.3259270681
      5  C         4.5219711455    3.0124197822   -0.6623643921
      6  C         3.2024502759    3.6157634251   -0.1547418211
      7  H         3.4636730514   -0.3214787744   -0.5479189812
      8  H         2.0659183128    1.2365885197    0.7798994530
      9  H         1.9195602477    2.9380018173   -1.7645004752
     10  H         1.0534597414    3.2429406159   -0.2588422555
     11  H         4.6911055236    1.3918594912    0.7677530988
     12  H         5.5397494762    1.0907636628   -0.7494526254
     13  H         5.3764997807    3.5545655421   -0.2354275904
     14  H         4.5852783071    3.1440006180   -1.7513954499
     15  H         3.1961533040    3.6031678344    0.9481807824
     16  H         3.1232734904    4.6675384978   -0.4575511824
     17  H         3.3940345789    0.7563929560   -1.9415647284
     18  N         0.9275771880    0.5896009963   -0.7885829779
     19  H         0.7890687572    0.5053586307   -1.7902874368
     20  C         0.0072239307    0.0082220234    0.0169644987
     21  H        -0.7875473493   -0.5045880869   -0.5539595306
     22  O         0.0177358803    0.0196735345    1.2485951655
   Point Group: c1    Number of degrees of freedom:    60


   Energy is   -404.600947052

 Hessian updated using BFGS update

 60 Hessian modes will be used to form the next step
  Hessian Eigenvalues:
     0.005690    0.005974    0.006913    0.007166    0.012614    0.019496
     0.019659    0.020837    0.022765    0.037440    0.038581    0.039419
     0.041893    0.048295    0.048451    0.049005    0.055294    0.055729
     0.056017    0.060095    0.066961    0.080751    0.081534    0.081606
     0.082069    0.082133    0.084081    0.087515    0.120849    0.120968
     0.142995    0.150562    0.160572    0.162147    0.174887    0.210873
     0.219766    0.226672    0.271941    0.272737    0.275540    0.285789
     0.286865    0.287464    0.327053    0.334564    0.334949    0.336028
     0.336546    0.339163    0.339422    0.339437    0.340128    0.340220
     0.341988    0.347185    0.366119    0.454546    0.468740    0.820037

 Minimum search - taking simple RFO step
 Searching for Lamda that Minimizes Along All modes
 Value Taken    Lamda =  -0.00000364
 Step Taken.  Stepsize is  0.012982

                             Maximum     Tolerance    Cnvgd?
         Gradient           0.000191      0.000100      NO
         Displacement       0.006758      0.000100      NO
         Energy change     -0.000013      0.000000      NO


 New Cartesian Coordinates Obtained by Inverse Iteration

 Displacement from previous Coordinates is:  0.021216
 ----------------------------------------------------------------
             Standard Nuclear Orientation (Angstroms)
    I     Atom           X                Y                Z
 ----------------------------------------------------------------
    1      C       1.9833905244     2.8316417486    -0.6714541809
    2      C       2.0915043251     1.3388073327    -0.3107921070
    3      C       3.4023081690     0.7335341121    -0.8427897314
    4      C       4.6218701044     1.5160239406    -0.3265444833
    5      C       4.5216369989     3.0127599230    -0.6619301586
    6      C       3.2017365341     3.6152645069    -0.1543372034
    7      H       3.4653166912    -0.3218899051    -0.5494327924
    8      H       2.0672744134     1.2352368102     0.7797555286
    9      H       1.9191545080     2.9370365132    -1.7643597875
   10      H       1.0529357056     3.2412181429    -0.2584186070
   11      H       4.6917303024     1.3912198425     0.7668919726
   12      H       5.5405372251     1.0918394384    -0.7504272211
   13      H       5.3757747503     3.5550307947    -0.2342805592
   14      H       4.5852294101     3.1451214020    -1.7509215440
   15      H       3.1951935086     3.6024642397     0.9484387346
   16      H       3.1221207584     4.6670509435    -0.4569494045
   17      H       3.3946018662     0.7569331317    -1.9425369293
   18      N       0.9287810482     0.5878835953    -0.7883469245
   19      H       0.7913670675     0.5026793803    -1.7901055863
   20      C       0.0078788813     0.0080946099     0.0170280854
   21      H      -0.7898517190    -0.5009882086    -0.5528815821
   22      O       0.0139160118     0.0261044460     1.2489985874
 ----------------------------------------------------------------
 Nuclear Repulsion Energy =         466.71770640 hartrees
 There are       35 alpha and       35 beta electrons
 Applying Cartesian multipole field
    Component          Value
    ---------          -----
     (0,0,1)        7.77900E-03
 Nucleus-field energy     =    -0.3055665492 hartrees
 Requested basis set is 6-31+G(d)
 There are 71 shells and 197 basis functions
 A cutoff of  1.0D-14 yielded   2412 shell pairs
 There are     18997 function pairs
 Smallest overlap matrix eigenvalue = 2.51E-05
 Guess MOs from SCF MO coefficient file

 -----------------------------------------------------------------------
  General SCF calculation program by
  Eric Jon Sundstrom, Paul Horn, Yuezhi Mao, Dmitri Zuev, Alec White,
  David Stuck, Shaama M.S., Shane Yost, Joonho Lee, David Small,
  Daniel Levine, Susi Lehtola, Hugh Burton, Evgeny Epifanovsky,
  Bang C. Huynh
 -----------------------------------------------------------------------
 Exchange:     0.2000 Hartree-Fock + 0.0800 Slater + 0.7200 B88
 Correlation:  0.1900 VWN1RPA + 0.8100 LYP
 Using Euler-Maclaurin-Lebedev (99,590) quadrature formula
 using 16 threads for integral computing
 -------------------------------------------------------
 OpenMP Integral computing Module                
 Release: version 2.0, May 2017, Q-Chem Inc. Pleasanton 
 -------------------------------------------------------
 A restricted SCF calculation will be
 performed using DIIS
 SCF converges when DIIS error is below 1.0e-09
 ---------------------------------------
  Cycle       Energy         DIIS error
 ---------------------------------------
    1    -404.6009145411      5.83e-05  
    2    -404.6009441418      9.07e-06  
    3    -404.6009441594      1.11e-05  
    4    -404.6009445422      4.69e-06  
    5    -404.6009446279      4.20e-07  
    6    -404.6009446286      2.16e-07  
    7    -404.6009446288      4.39e-08  
    8    -404.6009446288      1.65e-08  
    9    -404.6009446288      4.30e-09  
   10    -404.6009446288      8.71e-10  Convergence criterion met
 ---------------------------------------
 SCF time:   CPU 480.32s  wall 31.00s 
 SCF   energy in the final basis set =     -404.6009446288
 Total energy in the final basis set =     -404.6009446288
 
 --------------------------------------------------------------
 
                    Orbital Energies (a.u.)
 --------------------------------------------------------------
 
 Alpha MOs
 -- Occupied --
-19.1279 -14.3706 -10.2905 -10.2284 -10.1889 -10.1880 -10.1864 -10.1862
-10.1830  -1.0355  -0.9317  -0.8293  -0.7469  -0.7458  -0.6390  -0.6167
 -0.5945  -0.5685  -0.5276  -0.4854  -0.4622  -0.4473  -0.4418  -0.4186
 -0.4156  -0.3996  -0.3840  -0.3746  -0.3508  -0.3500  -0.3277  -0.3182
 -0.3137  -0.2633  -0.2581
 -- Virtual --
 -0.0054   0.0130   0.0177   0.0195   0.0239   0.0385   0.0473   0.0482
  0.0569   0.0683   0.0687   0.0825   0.0849   0.0893   0.1014   0.1064
  0.1111   0.1151   0.1276   0.1324   0.1396   0.1481   0.1570   0.1617
  0.1701   0.1781   0.1785   0.1868   0.1964   0.2038   0.2129   0.2156
  0.2190   0.2242   0.2285   0.2439   0.2472   0.2552   0.2664   0.2704
  0.2796   0.2838   0.2866   0.2876   0.2946   0.3077   0.3091   0.3268
  0.3279   0.3303   0.3584   0.3687   0.3832   0.3865   0.4136   0.4168
  0.4366   0.4571   0.4893   0.6067   0.6354   0.6544   0.6614   0.6658
  0.6794   0.6944   0.7272   0.7292   0.7468   0.7504   0.7749   0.7802
  0.8001   0.8022   0.8180   0.8468   0.8585   0.9070   0.9518   0.9716
  0.9770   0.9857   1.0158   1.0254   1.0278   1.0513   1.0851   1.0979
  1.1148   1.1195   1.1208   1.1465   1.1534   1.1680   1.1796   1.1860
  1.2372   1.2540   1.2892   1.3367   1.3433   1.3727   1.3869   1.4163
  1.4776   1.4866   1.4926   1.5632   1.5698   1.6118   1.7035   1.7276
  1.7293   1.7528   1.7704   1.8062   1.8523   1.8693   1.9003   1.9029
  1.9082   1.9391   1.9814   2.0079   2.0141   2.0436   2.0517   2.0843
  2.0874   2.1285   2.1996   2.2191   2.2793   2.3101   2.3115   2.3438
  2.3974   2.4069   2.4132   2.4167   2.4487   2.5621   2.5850   2.6213
  2.6694   2.6821   2.6998   2.7583   2.7765   2.8307   2.8664   3.0057
  3.1881   4.0916   4.1951   4.2341   4.2888   4.3305   4.4174   4.5996
  4.6044   4.6708
 --------------------------------------------------------------
 
          Ground-State Mulliken Net Atomic Charges

     Atom                 Charge (a.u.)
  ----------------------------------------
      1 C                    -0.231952
      2 C                    -0.509767
      3 C                    -0.252817
      4 C                    -0.444151
      5 C                    -0.355832
      6 C                    -0.448153
      7 H                     0.206780
      8 H                     0.222042
      9 H                     0.221863
     10 H                     0.203909
     11 H                     0.178198
     12 H                     0.209220
     13 H                     0.187618
     14 H                     0.223790
     15 H                     0.177634
     16 H                     0.205422
     17 H                     0.221953
     18 N                    -0.378681
     19 H                     0.418321
     20 C                     0.323022
     21 H                     0.158664
     22 O                    -0.537084
  ----------------------------------------
  Sum of atomic charges =     0.000000

 -----------------------------------------------------------------
                    Cartesian Multipole Moments
 -----------------------------------------------------------------
    Charge (ESU x 10^10)
                -0.0000
    Dipole Moment (Debye)
         X       1.8077      Y       1.1276      Z      -5.4530
       Tot       5.8544
    Quadrupole Moments (Debye-Ang)
        XX     -51.2423     XY       3.5694     YY     -54.6030
        XZ      -4.0899     YZ      -2.7491     ZZ     -56.9778
    Octopole Moments (Debye-Ang^2)
       XXX    -392.1459    XXY     -80.8478    XYY    -129.9829
       YYY    -263.6429    XXZ       2.0441    XYZ      -9.0703
       YYZ      10.0001    XZZ    -129.0639    YZZ     -85.2808
       ZZZ      34.2363
    Hexadecapole Moments (Debye-Ang^3)
      XXXX   -2976.0600   XXXY    -846.2369   XXYY    -743.1583
      XYYY    -858.1250   YYYY   -1512.3960   XXXZ     144.2950
      XXYZ      12.4734   XYYZ      44.8413   YYYZ      98.0656
      XXZZ    -532.5804   XYZZ    -279.4116   YYZZ    -293.8534
      XZZZ     187.8955   YZZZ     112.0862   ZZZZ    -253.5349
 -----------------------------------------------------------------
 Calculating analytic gradient of the SCF energy
 Gradient of SCF Energy
            1           2           3           4           5           6
    1   0.0000387  -0.0000610   0.0000022  -0.0000071  -0.0000128  -0.0000162
    2  -0.0000241   0.0000093   0.0000097  -0.0000091  -0.0000119   0.0000145
    3  -0.0000275  -0.0000364  -0.0000120   0.0000449   0.0000555   0.0000316
            7           8           9          10          11          12
    1   0.0000078  -0.0000149   0.0000384  -0.0000191  -0.0000399   0.0000056
    2  -0.0000115  -0.0000136   0.0000348   0.0000146  -0.0000232   0.0000122
    3  -0.0000219  -0.0000219   0.0000115  -0.0000262   0.0000653   0.0000698
           13          14          15          16          17          18
    1  -0.0000036   0.0000443  -0.0000400   0.0000114   0.0000475  -0.0001218
    2  -0.0000038   0.0000261  -0.0000327  -0.0000042   0.0000227   0.0001749
    3   0.0001134   0.0000845   0.0000658   0.0000655   0.0000177   0.0000580
           19          20          21          22
    1  -0.0000256   0.0006403  -0.0001857  -0.0002886
    2   0.0000717  -0.0008605   0.0002947   0.0003095
    3  -0.0000830  -0.0005281  -0.0000881   0.0001616
 Max gradient component =       8.605E-04
 RMS gradient           =       1.694E-04
 Gradient time:  CPU 118.94 s  wall 7.52 s
 Geometry Optimization Parameters
   NAtoms,    NIC,     NZ,  NCons,   NDum,   NFix, NCnnct, MaxDiis
       22     172       0       0       0       0       0       0

 Cartesian Hessian Update
 Hessian updated using BFGS update


** GEOMETRY OPTIMIZATION IN DELOCALIZED INTERNAL COORDINATES **
   Searching for a Minimum

   Optimization Cycle:   4

                       Coordinates (Angstroms)
     ATOM                X               Y               Z
      1  C         1.9833905244    2.8316417486   -0.6714541809
      2  C         2.0915043251    1.3388073327   -0.3107921070
      3  C         3.4023081690    0.7335341121   -0.8427897314
      4  C         4.6218701044    1.5160239406   -0.3265444833
      5  C         4.5216369989    3.0127599230   -0.6619301586
      6  C         3.2017365341    3.6152645069   -0.1543372034
      7  H         3.4653166912   -0.3218899051   -0.5494327924
      8  H         2.0672744134    1.2352368102    0.7797555286
      9  H         1.9191545080    2.9370365132   -1.7643597875
     10  H         1.0529357056    3.2412181429   -0.2584186070
     11  H         4.6917303024    1.3912198425    0.7668919726
     12  H         5.5405372251    1.0918394384   -0.7504272211
     13  H         5.3757747503    3.5550307947   -0.2342805592
     14  H         4.5852294101    3.1451214020   -1.7509215440
     15  H         3.1951935086    3.6024642397    0.9484387346
     16  H         3.1221207584    4.6670509435   -0.4569494045
     17  H         3.3946018662    0.7569331317   -1.9425369293
     18  N         0.9287810482    0.5878835953   -0.7883469245
     19  H         0.7913670675    0.5026793803   -1.7901055863
     20  C         0.0078788813    0.0080946099    0.0170280854
     21  H        -0.7898517190   -0.5009882086   -0.5528815821
     22  O         0.0139160118    0.0261044460    1.2489985874
   Point Group: c1    Number of degrees of freedom:    60


   Energy is   -404.600944629

 Hessian updated using BFGS update

 60 Hessian modes will be used to form the next step
  Hessian Eigenvalues:
     0.005836    0.005971    0.006802    0.006946    0.012622    0.019498
     0.019778    0.020839    0.037248    0.038456    0.039416    0.041795
     0.047587    0.048449    0.048890    0.055283    0.055717    0.055942
     0.060062    0.066906    0.080428    0.081502    0.081564    0.081993
     0.082127    0.083901    0.084772    0.087763    0.120708    0.120968
     0.143032    0.145633    0.160476    0.161493    0.175107    0.210868
     0.219766    0.224116    0.272002    0.272696    0.275541    0.284919
     0.286852    0.287433    0.326902    0.334523    0.334877    0.335756
     0.336548    0.338422    0.339421    0.339437    0.340076    0.340235
     0.341225    0.342022    0.366266    0.454461    0.471184    0.826185

 Minimum search - taking simple RFO step
 Searching for Lamda that Minimizes Along All modes
 Value Taken    Lamda =  -0.00000645
 Step Taken.  Stepsize is  0.009213

                             Maximum     Tolerance    Cnvgd?
         Gradient           0.000593      0.000100      NO
         Displacement       0.007121      0.000100      NO
         Energy change      0.000002      0.000000      NO


 New Cartesian Coordinates Obtained by Inverse Iteration

 Displacement from previous Coordinates is:  0.010583
 ----------------------------------------------------------------
             Standard Nuclear Orientation (Angstroms)
    I     Atom           X                Y                Z
 ----------------------------------------------------------------
    1      C       1.9834243344     2.8321417324    -0.6710243609
    2      C       2.0911722509     1.3392583987    -0.3104142870
    3      C       3.4019203208     0.7335439313    -0.8421108502
    4      C       4.6217470579     1.5159827960    -0.3264253779
    5      C       4.5217704533     3.0126273829    -0.6623356783
    6      C       3.2021462573     3.6155400877    -0.1544794450
    7      H       3.4646655001    -0.3217444524    -0.5482512916
    8      H       2.0663417375     1.2354842876     0.7800847817
    9      H       1.9188138879     2.9374311673    -1.7639466764
   10      H       1.0532101467     3.2419135420    -0.2576767099
   11      H       4.6918808928     1.3915991148     0.7670086117
   12      H       5.5402058658     1.0913632284    -0.7503472205
   13      H       5.3762084264     3.5549059295    -0.2353037840
   14      H       4.5848636995     3.1444856604    -1.7514305783
   15      H       3.1959902065     3.6030831707     0.9482656652
   16      H       3.1225900303     4.6672697183    -0.4573292755
   17      H       3.3941090398     0.7564364680    -1.9419005301
   18      N       0.9284268532     0.5887753113    -0.7885155153
   19      H       0.7916835729     0.5034582323    -1.7903418002
   20      C       0.0069148319     0.0091794314     0.0166271883
   21      H      -0.7883473401    -0.5030571748    -0.5539924177
   22      O       0.0146690590     0.0233887770     1.2484436582
 ----------------------------------------------------------------
 Nuclear Repulsion Energy =         466.71160618 hartrees
 There are       35 alpha and       35 beta electrons
 Applying Cartesian multipole field
    Component          Value
    ---------          -----
     (0,0,1)        7.77900E-03
 Nucleus-field energy     =    -0.3055902343 hartrees
 Requested basis set is 6-31+G(d)
 There are 71 shells and 197 basis functions
 A cutoff of  1.0D-14 yielded   2412 shell pairs
 There are     18997 function pairs
 Smallest overlap matrix eigenvalue = 2.50E-05
 Guess MOs from SCF MO coefficient file

 -----------------------------------------------------------------------
  General SCF calculation program by
  Eric Jon Sundstrom, Paul Horn, Yuezhi Mao, Dmitri Zuev, Alec White,
  David Stuck, Shaama M.S., Shane Yost, Joonho Lee, David Small,
  Daniel Levine, Susi Lehtola, Hugh Burton, Evgeny Epifanovsky,
  Bang C. Huynh
 -----------------------------------------------------------------------
 Exchange:     0.2000 Hartree-Fock + 0.0800 Slater + 0.7200 B88
 Correlation:  0.1900 VWN1RPA + 0.8100 LYP
 Using Euler-Maclaurin-Lebedev (99,590) quadrature formula
 using 16 threads for integral computing
 -------------------------------------------------------
 OpenMP Integral computing Module                
 Release: version 2.0, May 2017, Q-Chem Inc. Pleasanton 
 -------------------------------------------------------
 A restricted SCF calculation will be
 performed using DIIS
 SCF converges when DIIS error is below 1.0e-09
 ---------------------------------------
  Cycle       Energy         DIIS error
 ---------------------------------------
    1    -404.6009396111      3.14e-05  
    2    -404.6009477363      4.81e-06  
    3    -404.6009478066      3.95e-06  
    4    -404.6009478364      2.84e-06  
    5    -404.6009478669      2.48e-07  
    6    -404.6009478671      1.27e-07  
    7    -404.6009478672      3.00e-08  
    8    -404.6009478672      9.35e-09  
    9    -404.6009478672      2.42e-09  
   10    -404.6009478672      4.52e-10  Convergence criterion met
 ---------------------------------------
 SCF time:   CPU 484.19s  wall 31.00s 
 SCF   energy in the final basis set =     -404.6009478672
 Total energy in the final basis set =     -404.6009478672
 
 --------------------------------------------------------------
 
                    Orbital Energies (a.u.)
 --------------------------------------------------------------
 
 Alpha MOs
 -- Occupied --
-19.1279 -14.3705 -10.2905 -10.2284 -10.1889 -10.1880 -10.1864 -10.1862
-10.1830  -1.0356  -0.9317  -0.8292  -0.7469  -0.7458  -0.6390  -0.6168
 -0.5945  -0.5685  -0.5276  -0.4853  -0.4622  -0.4473  -0.4418  -0.4186
 -0.4156  -0.3996  -0.3840  -0.3746  -0.3508  -0.3500  -0.3277  -0.3181
 -0.3137  -0.2633  -0.2581
 -- Virtual --
 -0.0055   0.0130   0.0177   0.0195   0.0239   0.0385   0.0473   0.0482
  0.0569   0.0683   0.0687   0.0825   0.0849   0.0893   0.1014   0.1064
  0.1111   0.1151   0.1276   0.1324   0.1396   0.1481   0.1570   0.1617
  0.1701   0.1781   0.1785   0.1868   0.1964   0.2038   0.2129   0.2155
  0.2190   0.2242   0.2285   0.2439   0.2472   0.2552   0.2664   0.2704
  0.2796   0.2838   0.2866   0.2875   0.2946   0.3076   0.3091   0.3268
  0.3279   0.3303   0.3584   0.3686   0.3831   0.3864   0.4136   0.4168
  0.4366   0.4570   0.4894   0.6067   0.6354   0.6543   0.6614   0.6658
  0.6794   0.6943   0.7272   0.7292   0.7470   0.7501   0.7749   0.7802
  0.8001   0.8022   0.8180   0.8466   0.8585   0.9070   0.9518   0.9716
  0.9770   0.9857   1.0158   1.0254   1.0278   1.0514   1.0851   1.0980
  1.1148   1.1195   1.1208   1.1464   1.1534   1.1680   1.1796   1.1859
  1.2371   1.2541   1.2892   1.3367   1.3431   1.3725   1.3870   1.4163
  1.4773   1.4871   1.4927   1.5631   1.5699   1.6119   1.7035   1.7276
  1.7293   1.7528   1.7703   1.8062   1.8525   1.8691   1.9004   1.9028
  1.9082   1.9392   1.9813   2.0079   2.0141   2.0436   2.0517   2.0843
  2.0874   2.1285   2.1995   2.2191   2.2792   2.3102   2.3115   2.3438
  2.3974   2.4069   2.4132   2.4167   2.4487   2.5622   2.5850   2.6214
  2.6694   2.6822   2.6998   2.7582   2.7765   2.8307   2.8665   3.0058
  3.1881   4.0916   4.1950   4.2341   4.2888   4.3305   4.4175   4.5996
  4.6043   4.6708
 --------------------------------------------------------------
 
          Ground-State Mulliken Net Atomic Charges

     Atom                 Charge (a.u.)
  ----------------------------------------
      1 C                    -0.231638
      2 C                    -0.509510
      3 C                    -0.253115
      4 C                    -0.444273
      5 C                    -0.355782
      6 C                    -0.448245
      7 H                     0.206802
      8 H                     0.222015
      9 H                     0.221845
     10 H                     0.203851
     11 H                     0.178200
     12 H                     0.209223
     13 H                     0.187634
     14 H                     0.223781
     15 H                     0.177620
     16 H                     0.205424
     17 H                     0.221924
     18 N                    -0.378894
     19 H                     0.418320
     20 C                     0.323126
     21 H                     0.158622
     22 O                    -0.536931
  ----------------------------------------
  Sum of atomic charges =     0.000000

 -----------------------------------------------------------------
                    Cartesian Multipole Moments
 -----------------------------------------------------------------
    Charge (ESU x 10^10)
                 0.0000
    Dipole Moment (Debye)
         X       1.8059      Y       1.1320      Z      -5.4505
       Tot       5.8524
    Quadrupole Moments (Debye-Ang)
        XX     -51.2444     XY       3.5668     YY     -54.6059
        XZ      -4.0937     YZ      -2.7375     ZZ     -56.9725
    Octopole Moments (Debye-Ang^2)
       XXX    -392.1305    XXY     -80.8553    XYY    -129.9893
       YYY    -263.6649    XXZ       2.0484    XYZ      -9.0700
       YYZ      10.0044    XZZ    -129.0628    YZZ     -85.2749
       ZZZ      34.2510
    Hexadecapole Moments (Debye-Ang^3)
      XXXX   -2975.9444   XXXY    -846.3144   XXYY    -743.1994
      XYYY    -858.2282   YYYY   -1512.7123   XXXZ     144.2501
      XXYZ      12.5079   XYYZ      44.8274   YYYZ      98.1508
      XXZZ    -532.5623   XYZZ    -279.4436   YYZZ    -293.8836
      XZZZ     187.8351   YZZZ     112.1695   ZZZZ    -253.4229
 -----------------------------------------------------------------
 Calculating analytic gradient of the SCF energy
 Gradient of SCF Energy
            1           2           3           4           5           6
    1  -0.0000047  -0.0000302   0.0000237  -0.0000127   0.0000120  -0.0000139
    2  -0.0000044  -0.0000229  -0.0000034  -0.0000106   0.0000041  -0.0000082
    3  -0.0000052  -0.0000265   0.0000084   0.0000487   0.0000819   0.0000441
            7           8           9          10          11          12
    1   0.0000026  -0.0000469   0.0000391  -0.0000120  -0.0000360   0.0000087
    2  -0.0000056  -0.0000191   0.0000289   0.0000045  -0.0000193   0.0000042
    3  -0.0000178  -0.0000374  -0.0000070  -0.0000240   0.0000440   0.0000715
           13          14          15          16          17          18
    1   0.0000003   0.0000369  -0.0000379   0.0000005   0.0000438   0.0000491
    2  -0.0000013   0.0000211  -0.0000264  -0.0000032   0.0000246   0.0000466
    3   0.0001100   0.0000768   0.0000408   0.0000655  -0.0000003  -0.0000696
           19          20          21          22
    1   0.0000324   0.0000218   0.0000060  -0.0000824
    2   0.0000351  -0.0000027   0.0000047  -0.0000468
    3  -0.0000796  -0.0001481  -0.0001250  -0.0000512
 Max gradient component =       1.481E-04
 RMS gradient           =       4.421E-05
 Gradient time:  CPU 120.50 s  wall 7.69 s
 Geometry Optimization Parameters
   NAtoms,    NIC,     NZ,  NCons,   NDum,   NFix, NCnnct, MaxDiis
       22     172       0       0       0       0       0       0

 Cartesian Hessian Update
 Hessian updated using BFGS update


** GEOMETRY OPTIMIZATION IN DELOCALIZED INTERNAL COORDINATES **
   Searching for a Minimum

   Optimization Cycle:   5

                       Coordinates (Angstroms)
     ATOM                X               Y               Z
      1  C         1.9834243344    2.8321417324   -0.6710243609
      2  C         2.0911722509    1.3392583987   -0.3104142870
      3  C         3.4019203208    0.7335439313   -0.8421108502
      4  C         4.6217470579    1.5159827960   -0.3264253779
      5  C         4.5217704533    3.0126273829   -0.6623356783
      6  C         3.2021462573    3.6155400877   -0.1544794450
      7  H         3.4646655001   -0.3217444524   -0.5482512916
      8  H         2.0663417375    1.2354842876    0.7800847817
      9  H         1.9188138879    2.9374311673   -1.7639466764
     10  H         1.0532101467    3.2419135420   -0.2576767099
     11  H         4.6918808928    1.3915991148    0.7670086117
     12  H         5.5402058658    1.0913632284   -0.7503472205
     13  H         5.3762084264    3.5549059295   -0.2353037840
     14  H         4.5848636995    3.1444856604   -1.7514305783
     15  H         3.1959902065    3.6030831707    0.9482656652
     16  H         3.1225900303    4.6672697183   -0.4573292755
     17  H         3.3941090398    0.7564364680   -1.9419005301
     18  N         0.9284268532    0.5887753113   -0.7885155153
     19  H         0.7916835729    0.5034582323   -1.7903418002
     20  C         0.0069148319    0.0091794314    0.0166271883
     21  H        -0.7883473401   -0.5030571748   -0.5539924177
     22  O         0.0146690590    0.0233887770    1.2484436582
   Point Group: c1    Number of degrees of freedom:    60


   Energy is   -404.600947867

 Hessian updated using BFGS update

 60 Hessian modes will be used to form the next step
  Hessian Eigenvalues:
     0.005835    0.005971    0.006743    0.006951    0.012625    0.019498
     0.019781    0.020839    0.037251    0.038461    0.039416    0.041824
     0.047631    0.048449    0.048891    0.055284    0.055714    0.055975
     0.060067    0.066892    0.080536    0.081516    0.081579    0.081995
     0.082106    0.083959    0.085056    0.087868    0.120681    0.120969
     0.143076    0.145105    0.160491    0.161239    0.175289    0.210830
     0.219599    0.224653    0.271980    0.272693    0.275542    0.284945
     0.286852    0.287512    0.326799    0.334523    0.334892    0.335767
     0.336546    0.338452    0.339419    0.339436    0.340051    0.340214
     0.341276    0.342020    0.366292    0.454437    0.471658    0.822508

 Minimum search - taking simple RFO step
 Searching for Lamda that Minimizes Along All modes
 Value Taken    Lamda =  -0.00000010
 Step Taken.  Stepsize is  0.002870

                             Maximum     Tolerance    Cnvgd?
         Gradient           0.000062      0.000100     YES
         Displacement       0.001593      0.000100      NO
         Energy change     -0.000003      0.000000      NO


 New Cartesian Coordinates Obtained by Inverse Iteration

 Displacement from previous Coordinates is:  0.005120
 ----------------------------------------------------------------
             Standard Nuclear Orientation (Angstroms)
    I     Atom           X                Y                Z
 ----------------------------------------------------------------
    1      C       1.9834104390     2.8319276989    -0.6707387580
    2      C       2.0913077916     1.3389954238    -0.3103639726
    3      C       3.4021058672     0.7335292060    -0.8421514071
    4      C       4.6218975084     1.5160934087    -0.3265416529
    5      C       4.5216972630     3.0127180816    -0.6624277071
    6      C       3.2021069391     3.6154567570    -0.1543192795
    7      H       3.4650086821    -0.3217419743    -0.5482975204
    8      H       2.0665620711     1.2350983896     0.7801408907
    9      H       1.9185725443     2.9373122867    -1.7636290630
   10      H       1.0532289693     3.2415045738    -0.2571560173
   11      H       4.6921694389     1.3916696356     0.7668909146
   12      H       5.5403512484     1.0915911100    -0.7505928164
   13      H       5.3761335297     3.5550790747    -0.2355250291
   14      H       4.5845984320     3.1446083575    -1.7515266173
   15      H       3.1961124316     3.6029703445     0.9484359243
   16      H       3.1223830307     4.6671883181    -0.4571385949
   17      H       3.3942016281     0.7564421916    -1.9419352752
   18      N       0.9285964162     0.5883720671    -0.7886025391
   19      H       0.7923411769     0.5024065858    -1.7904370146
   20      C       0.0064674483     0.0096847041     0.0164649329
   21      H      -0.7886828991    -0.5027343134    -0.5541823486
   22      O       0.0138371281     0.0248948133     1.2482370568
 ----------------------------------------------------------------
 Nuclear Repulsion Energy =         466.71318199 hartrees
 There are       35 alpha and       35 beta electrons
 Applying Cartesian multipole field
    Component          Value
    ---------          -----
     (0,0,1)        7.77900E-03
 Nucleus-field energy     =    -0.3056129243 hartrees
 Requested basis set is 6-31+G(d)
 There are 71 shells and 197 basis functions
 A cutoff of  1.0D-14 yielded   2412 shell pairs
 There are     18997 function pairs
 Smallest overlap matrix eigenvalue = 2.50E-05
 Guess MOs from SCF MO coefficient file

 -----------------------------------------------------------------------
  General SCF calculation program by
  Eric Jon Sundstrom, Paul Horn, Yuezhi Mao, Dmitri Zuev, Alec White,
  David Stuck, Shaama M.S., Shane Yost, Joonho Lee, David Small,
  Daniel Levine, Susi Lehtola, Hugh Burton, Evgeny Epifanovsky,
  Bang C. Huynh
 -----------------------------------------------------------------------
 Exchange:     0.2000 Hartree-Fock + 0.0800 Slater + 0.7200 B88
 Correlation:  0.1900 VWN1RPA + 0.8100 LYP
 Using Euler-Maclaurin-Lebedev (99,590) quadrature formula
 using 16 threads for integral computing
 -------------------------------------------------------
 OpenMP Integral computing Module                
 Release: version 2.0, May 2017, Q-Chem Inc. Pleasanton 
 -------------------------------------------------------
 A restricted SCF calculation will be
 performed using DIIS
 SCF converges when DIIS error is below 1.0e-09
 ---------------------------------------
  Cycle       Energy         DIIS error
 ---------------------------------------
    1    -404.6009469312      1.02e-05  
    2    -404.6009479222      1.45e-06  
    3    -404.6009479339      9.73e-07  
    4    -404.6009479366      6.11e-07  
    5    -404.6009479381      1.71e-07  
    6    -404.6009479382      4.73e-08  
    7    -404.6009479382      1.29e-08  
    8    -404.6009479382      4.22e-09  
    9    -404.6009479382      6.71e-10  Convergence criterion met
 ---------------------------------------
 SCF time:   CPU 440.86s  wall 28.00s 
 SCF   energy in the final basis set =     -404.6009479382
 Total energy in the final basis set =     -404.6009479382
 
 --------------------------------------------------------------
 
                    Orbital Energies (a.u.)
 --------------------------------------------------------------
 
 Alpha MOs
 -- Occupied --
-19.1279 -14.3705 -10.2905 -10.2284 -10.1889 -10.1880 -10.1863 -10.1862
-10.1830  -1.0356  -0.9317  -0.8292  -0.7469  -0.7458  -0.6390  -0.6168
 -0.5945  -0.5685  -0.5276  -0.4853  -0.4622  -0.4473  -0.4418  -0.4186
 -0.4156  -0.3996  -0.3840  -0.3746  -0.3508  -0.3500  -0.3277  -0.3181
 -0.3137  -0.2633  -0.2581
 -- Virtual --
 -0.0055   0.0130   0.0177   0.0195   0.0239   0.0385   0.0473   0.0482
  0.0569   0.0683   0.0687   0.0825   0.0849   0.0893   0.1014   0.1064
  0.1111   0.1151   0.1276   0.1324   0.1396   0.1481   0.1570   0.1617
  0.1701   0.1781   0.1785   0.1868   0.1964   0.2038   0.2129   0.2155
  0.2190   0.2242   0.2285   0.2439   0.2472   0.2552   0.2665   0.2704
  0.2796   0.2838   0.2866   0.2875   0.2946   0.3076   0.3091   0.3268
  0.3279   0.3304   0.3584   0.3686   0.3831   0.3864   0.4136   0.4168
  0.4366   0.4570   0.4894   0.6067   0.6354   0.6543   0.6614   0.6658
  0.6794   0.6943   0.7272   0.7292   0.7470   0.7501   0.7749   0.7802
  0.8001   0.8022   0.8180   0.8466   0.8585   0.9070   0.9518   0.9716
  0.9770   0.9857   1.0158   1.0254   1.0278   1.0514   1.0851   1.0980
  1.1148   1.1195   1.1208   1.1464   1.1534   1.1680   1.1796   1.1859
  1.2371   1.2542   1.2892   1.3367   1.3431   1.3725   1.3870   1.4163
  1.4772   1.4871   1.4927   1.5631   1.5699   1.6118   1.7035   1.7277
  1.7294   1.7528   1.7704   1.8062   1.8525   1.8691   1.9003   1.9028
  1.9082   1.9391   1.9812   2.0079   2.0141   2.0436   2.0517   2.0843
  2.0875   2.1285   2.1995   2.2191   2.2793   2.3102   2.3115   2.3438
  2.3974   2.4069   2.4132   2.4167   2.4486   2.5621   2.5850   2.6214
  2.6694   2.6822   2.6999   2.7582   2.7765   2.8307   2.8665   3.0059
  3.1881   4.0915   4.1950   4.2341   4.2888   4.3305   4.4175   4.5996
  4.6043   4.6707
 --------------------------------------------------------------
 
          Ground-State Mulliken Net Atomic Charges

     Atom                 Charge (a.u.)
  ----------------------------------------
      1 C                    -0.231478
      2 C                    -0.509369
      3 C                    -0.253291
      4 C                    -0.444289
      5 C                    -0.355773
      6 C                    -0.448305
      7 H                     0.206801
      8 H                     0.222021
      9 H                     0.221845
     10 H                     0.203851
     11 H                     0.178195
     12 H                     0.209227
     13 H                     0.187637
     14 H                     0.223783
     15 H                     0.177618
     16 H                     0.205424
     17 H                     0.221915
     18 N                    -0.378964
     19 H                     0.418305
     20 C                     0.323115
     21 H                     0.158634
     22 O                    -0.536904
  ----------------------------------------
  Sum of atomic charges =     0.000000

 -----------------------------------------------------------------
                    Cartesian Multipole Moments
 -----------------------------------------------------------------
    Charge (ESU x 10^10)
                 0.0000
    Dipole Moment (Debye)
         X       1.8075      Y       1.1284      Z      -5.4500
       Tot       5.8518
    Quadrupole Moments (Debye-Ang)
        XX     -51.2436     XY       3.5669     YY     -54.6069
        XZ      -4.0915     YZ      -2.7404     ZZ     -56.9711
    Octopole Moments (Debye-Ang^2)
       XXX    -392.1175    XXY     -80.8602    XYY    -129.9867
       YYY    -263.6853    XXZ       2.0472    XYZ      -9.0693
       YYZ      10.0089    XZZ    -129.0510    YZZ     -85.2942
       ZZZ      34.2568
    Hexadecapole Moments (Debye-Ang^3)
      XXXX   -2976.0422   XXXY    -846.2969   XXYY    -743.2031
      XYYY    -858.2180   YYYY   -1512.6299   XXXZ     144.2720
      XXYZ      12.4828   XYYZ      44.8383   YYYZ      98.0896
      XXZZ    -532.5689   XYZZ    -279.4428   YYZZ    -293.8730
[...]

 Mode:                40                     41                     42
 Frequency:      1411.40                1504.73                1509.13
 Force Cnst:      1.7193                 1.4482                 1.4638
 Red. Mass:       1.4649                 1.0856                 1.0909
 IR Active:          YES                    YES                    YES
 IR Intens:        0.591                  0.402                  5.328
 Raman Active:       YES                    YES                    YES
               X      Y      Z        X      Y      Z        X      Y      Z
 C          0.053  0.100  0.017   -0.034  0.013 -0.028    0.015 -0.024  0.013
 C         -0.085 -0.065 -0.009   -0.009  0.012  0.001    0.010  0.007  0.005
 C          0.112  0.013  0.006    0.004  0.030  0.029   -0.015  0.016  0.014
 C         -0.011  0.030  0.005    0.027 -0.008  0.023   -0.001  0.009 -0.008
 C         -0.003 -0.002  0.007    0.006 -0.012  0.000    0.049  0.036 -0.037
 C          0.026 -0.022  0.001   -0.005 -0.026 -0.026    0.007 -0.013 -0.016
 H         -0.376 -0.042 -0.063    0.009 -0.091 -0.360    0.023 -0.041 -0.182
 H          0.401  0.328  0.033    0.034 -0.051 -0.004   -0.025 -0.023  0.002
 H         -0.207 -0.320 -0.014    0.359 -0.152 -0.055   -0.180  0.149  0.034
 H         -0.182 -0.311 -0.086    0.116 -0.088  0.373   -0.055  0.060 -0.213
 H          0.032  0.008 -0.002   -0.286  0.102  0.044    0.055 -0.068 -0.018
 H         -0.122 -0.179 -0.026   -0.095  0.070 -0.293    0.039 -0.006  0.083
 H         -0.023 -0.018  0.054    0.006  0.000 -0.015   -0.153 -0.154  0.556
 H         -0.058 -0.048  0.005   -0.020  0.057  0.006   -0.501 -0.329 -0.097
 H          0.006  0.033  0.001    0.011  0.317 -0.011   -0.047  0.176 -0.008
 H         -0.216 -0.044 -0.010   -0.010  0.082  0.314    0.017  0.052  0.181
 H         -0.353 -0.085  0.001    0.004 -0.363  0.010    0.069 -0.181  0.004
 N         -0.025 -0.015 -0.014    0.000  0.000 -0.000    0.002  0.001 -0.000
 H          0.105  0.070 -0.039    0.002 -0.004  0.000   -0.019 -0.012  0.004
 C          0.021  0.014  0.008   -0.000 -0.000 -0.000   -0.002 -0.001  0.001
 H          0.031  0.019  0.015   -0.001  0.000 -0.000   -0.002 -0.001 -0.002
 O         -0.003 -0.002 -0.007    0.000 -0.000  0.000    0.000  0.000 -0.001
 TransDip   0.009 -0.000  0.023    0.013 -0.016 -0.002   -0.056 -0.032  0.035

 Mode:                43                     44                     45
 Frequency:      1510.52                1515.39                1528.91
 Force Cnst:      1.4741                 1.4725                 1.5151
 Red. Mass:       1.0966                 1.0883                 1.1001
 IR Active:          YES                    YES                    YES
 IR Intens:        5.368                 12.243                  1.271
 Raman Active:       YES                    YES                    YES
               X      Y      Z        X      Y      Z        X      Y      Z
 C         -0.031  0.015 -0.017   -0.022  0.014 -0.017   -0.030  0.022 -0.019
 C          0.003 -0.004  0.000   -0.010 -0.007 -0.001   -0.007 -0.005 -0.008
 C         -0.005  0.036  0.023    0.004 -0.026 -0.022    0.008 -0.035 -0.024
 C         -0.039  0.020 -0.024   -0.034  0.023 -0.026    0.024 -0.017  0.013
 C          0.008  0.000 -0.004   -0.004 -0.002 -0.003    0.034  0.025 -0.018
 C         -0.000  0.038  0.026    0.007 -0.037 -0.030   -0.005  0.027  0.016
 H         -0.006 -0.069 -0.322   -0.023  0.070  0.287   -0.007  0.076  0.341
 H         -0.011  0.013  0.001    0.012  0.010 -0.003    0.004  0.005 -0.008
 H          0.272 -0.132 -0.040    0.242 -0.121 -0.040    0.300 -0.173 -0.050
 H          0.084 -0.045  0.281    0.070 -0.073  0.250    0.092 -0.069  0.322
 H          0.354 -0.172 -0.057    0.362 -0.181 -0.063   -0.212  0.117  0.036
 H          0.117 -0.067  0.375    0.111 -0.103  0.383   -0.062  0.052 -0.234
 H         -0.033  0.008  0.062   -0.014 -0.011  0.016   -0.082 -0.082  0.328
 H         -0.058 -0.029 -0.010   -0.014 -0.010 -0.006   -0.300 -0.198 -0.057
 H          0.019 -0.363  0.009   -0.037  0.403 -0.014    0.031 -0.243  0.006
 H         -0.007 -0.080 -0.352   -0.024  0.096  0.393    0.007 -0.050 -0.241
 H          0.037 -0.335  0.005   -0.025  0.298 -0.009   -0.053  0.353 -0.008
 N         -0.000  0.002 -0.000    0.010  0.006 -0.002   -0.012 -0.008  0.005
 H         -0.001 -0.007  0.001   -0.031 -0.019  0.005    0.073  0.048 -0.011
 C         -0.001 -0.000 -0.000   -0.005 -0.003  0.000    0.008  0.005 -0.005
 H         -0.000 -0.001 -0.000   -0.006 -0.004 -0.003    0.008  0.005  0.006
 O          0.000 -0.000  0.000    0.001  0.000  0.002   -0.001 -0.001  0.002
 TransDip   0.035 -0.065 -0.000    0.011  0.000  0.111    0.029  0.015  0.015

 Mode:                46                     47                     48
 Frequency:      1553.22                1723.03                2222.13
 Force Cnst:      2.4522                15.5485                 7.0283
 Red. Mass:       1.7252                 8.8890                 2.4158
 IR Active:          YES                    YES                    YES
 IR Intens:      154.230                482.417                 76.914
 Raman Active:       YES                    YES                    YES
               X      Y      Z        X      Y      Z        X      Y      Z
 C          0.007  0.003  0.006   -0.015 -0.005 -0.012   -0.000 -0.000  0.000
 C          0.063  0.041 -0.046    0.022  0.013  0.024    0.002  0.001 -0.000
 C          0.005  0.007  0.007   -0.011 -0.010 -0.013   -0.000 -0.000  0.000
 C         -0.011 -0.003 -0.002    0.000  0.005  0.004    0.000  0.000  0.000
 C         -0.001 -0.001  0.002   -0.001 -0.000 -0.001   -0.000 -0.000  0.000
 C         -0.006 -0.009 -0.003    0.006 -0.003  0.003    0.000 -0.000  0.000
 H          0.013 -0.000 -0.030    0.020  0.000  0.024    0.001 -0.000 -0.001
 H         -0.294 -0.194 -0.082   -0.080 -0.051  0.040    0.011  0.006  0.001
 H         -0.042 -0.059 -0.002    0.030  0.032 -0.010   -0.001  0.000  0.001
 H          0.004  0.022 -0.028    0.008  0.010  0.031    0.000  0.001 -0.002
 H          0.076 -0.006 -0.009   -0.004 -0.005  0.007   -0.000 -0.000 -0.000
 H          0.021 -0.001  0.065   -0.019 -0.022 -0.017    0.000 -0.000  0.000
 H          0.008  0.010 -0.032   -0.001 -0.002  0.008    0.000  0.000  0.000
 H          0.022  0.015  0.005    0.000  0.000 -0.002    0.000  0.000 -0.000
 H          0.022  0.072 -0.002   -0.008 -0.004  0.007   -0.000  0.000 -0.000
 H          0.008  0.012  0.064   -0.028 -0.008 -0.017   -0.000  0.000  0.000
 H         -0.074 -0.021  0.001    0.040  0.010 -0.013   -0.000 -0.000  0.001
 N         -0.157 -0.101  0.061    0.036  0.023 -0.106    0.012  0.008  0.001
 H          0.731  0.463 -0.100    0.302  0.187 -0.161   -0.060 -0.038  0.004
 C          0.080  0.051 -0.021   -0.122 -0.073  0.661   -0.138 -0.089 -0.113
 H          0.101  0.065  0.063    0.366  0.235  0.047    0.713  0.459  0.485
 O         -0.010 -0.006 -0.010   -0.003 -0.005 -0.406    0.005  0.003  0.023
 TransDip   0.317  0.201 -0.132   -0.326 -0.208  0.588   -0.177 -0.115 -0.185

 Mode:                49                     50                     51
 Frequency:      2989.33                2993.29                3028.31
 Force Cnst:      5.6406                 5.6577                 5.7440
 Red. Mass:       1.0714                 1.0717                 1.0631
 IR Active:          YES                    YES                    YES
 IR Intens:       17.463                 75.898                  9.623
 Raman Active:       YES                    YES                    YES
               X      Y      Z        X      Y      Z        X      Y      Z
 C         -0.002  0.001  0.008   -0.002  0.001  0.005    0.021 -0.012  0.031
 C         -0.000  0.001  0.000    0.000 -0.000  0.002   -0.000 -0.000  0.002
 C         -0.000  0.002 -0.006    0.001 -0.004  0.008    0.001 -0.028 -0.050
 C          0.011 -0.008  0.041   -0.015  0.012 -0.058   -0.008  0.004 -0.001
 C          0.001  0.001  0.002    0.007  0.004  0.013   -0.002 -0.001  0.002
 C          0.001 -0.012 -0.060    0.001 -0.008 -0.041   -0.001  0.008  0.000
 H          0.004 -0.019  0.004   -0.006  0.041 -0.011   -0.022  0.350 -0.116
 H          0.002 -0.003 -0.004   -0.002  0.001 -0.021   -0.001  0.004 -0.030
 H         -0.006  0.009 -0.092   -0.004  0.005 -0.051   -0.020  0.042 -0.488
 H          0.029 -0.017 -0.012    0.030 -0.016 -0.014   -0.227  0.099  0.115
 H         -0.029  0.057 -0.552    0.042 -0.085  0.778    0.001 -0.004  0.052
 H         -0.092  0.040  0.058    0.130 -0.059 -0.079    0.095 -0.047 -0.048
 H         -0.013 -0.015 -0.008   -0.094 -0.058 -0.046    0.021  0.012  0.012
 H          0.002  0.003 -0.021    0.010  0.017 -0.125    0.003  0.002 -0.040
 H         -0.002 -0.019  0.791   -0.004 -0.012  0.544   -0.001  0.003 -0.032
 H         -0.011  0.156 -0.065   -0.009  0.107 -0.043    0.009 -0.095  0.030
 H          0.000 -0.001  0.074   -0.000  0.001 -0.089    0.006 -0.028  0.716
 N          0.000 -0.000  0.000   -0.000 -0.000  0.000    0.000  0.000 -0.000
 H         -0.000  0.000  0.000    0.001  0.000  0.001    0.003 -0.002  0.000
 C          0.000  0.000 -0.000    0.000  0.000 -0.000    0.000  0.000  0.000
 H         -0.000  0.000  0.000   -0.000 -0.000  0.000   -0.000  0.000 -0.000
 O         -0.000 -0.000  0.000   -0.000 -0.000  0.000   -0.000 -0.000  0.000
 TransDip   0.058 -0.106 -0.059   -0.065  0.003 -0.271    0.032 -0.088 -0.033

 Mode:                52                     53                     54
 Frequency:      3031.11                3032.80                3065.74
 Force Cnst:      5.7561                 5.7558                 6.0625
 Red. Mass:       1.0633                 1.0621                 1.0948
 IR Active:          YES                    YES                    YES
 IR Intens:       33.724                 22.292                 68.330
 Raman Active:       YES                    YES                    YES
               X      Y      Z        X      Y      Z        X      Y      Z
 C         -0.028  0.017 -0.044   -0.008  0.004 -0.011   -0.017  0.007  0.022
 C         -0.001 -0.002  0.012   -0.000 -0.000  0.003    0.000  0.003 -0.029
 C          0.001 -0.017 -0.033    0.000 -0.007 -0.012    0.002 -0.023  0.016
 C         -0.003  0.002 -0.000   -0.012  0.005  0.008   -0.013  0.006  0.004
 C         -0.014 -0.011  0.014    0.046  0.033 -0.028   -0.031 -0.017 -0.045
 C          0.001 -0.007 -0.000    0.001 -0.015  0.007    0.003 -0.041  0.016
 H         -0.015  0.214 -0.070   -0.005  0.091 -0.029   -0.017  0.280 -0.080
 H          0.002  0.013 -0.151    0.001  0.004 -0.040   -0.004 -0.031  0.351
 H          0.029 -0.062  0.676    0.008 -0.016  0.177   -0.013  0.017 -0.167
 H          0.300 -0.134 -0.151    0.089 -0.038 -0.043    0.220 -0.098 -0.099
 H          0.001 -0.001  0.018   -0.005  0.004 -0.022   -0.001 -0.002  0.022
 H          0.030 -0.018 -0.016    0.144 -0.063 -0.069    0.158 -0.073 -0.074
 H          0.154  0.097  0.085   -0.521 -0.329 -0.280    0.394  0.250  0.195
 H          0.008  0.026 -0.247   -0.021 -0.065  0.615   -0.023 -0.045  0.344
 H          0.001 -0.002  0.025    0.000 -0.004 -0.030   -0.001 -0.006 -0.047
 H         -0.011  0.083 -0.026   -0.012  0.189 -0.058   -0.037  0.488 -0.144
 H          0.001 -0.017  0.464    0.002 -0.006  0.171   -0.001 -0.001 -0.111
 N          0.000  0.000  0.000    0.000  0.000 -0.000   -0.000 -0.000  0.000
 H          0.003  0.003  0.001    0.001  0.001  0.000   -0.000 -0.000 -0.004
 C          0.000  0.000  0.000   -0.000 -0.000  0.000    0.000  0.000 -0.001
 H          0.000  0.000 -0.000    0.000  0.000  0.000   -0.001 -0.000 -0.000
 O         -0.000 -0.000 -0.000   -0.000 -0.000 -0.000    0.000  0.000  0.000
 TransDip  -0.135 -0.059 -0.114    0.111  0.076 -0.069   -0.182 -0.191 -0.027

 Mode:                55                     56                     57
 Frequency:      3068.90                3070.21                3075.25
 Force Cnst:      6.0436                 6.0750                 6.1050
 Red. Mass:       1.0891                 1.0939                 1.0957
 IR Active:          YES                    YES                    YES
 IR Intens:       28.765                 39.431                 36.358
 Raman Active:       YES                    YES                    YES
               X      Y      Z        X      Y      Z        X      Y      Z
 C          0.031 -0.014 -0.018    0.009 -0.003 -0.014    0.009 -0.004 -0.003
 C          0.000 -0.002  0.036    0.000 -0.003  0.028    0.001  0.001 -0.009
 C         -0.002  0.024 -0.017   -0.001  0.020 -0.006   -0.001  0.011  0.003
 C          0.016 -0.006 -0.016   -0.039  0.017  0.019   -0.048  0.021  0.040
 C         -0.010 -0.006 -0.010   -0.023 -0.012 -0.045    0.010  0.003  0.047
 C          0.004 -0.050  0.021   -0.002  0.029 -0.023    0.002 -0.026  0.017
 H          0.017 -0.286  0.082    0.013 -0.240  0.069    0.008 -0.127  0.036
 H          0.005  0.040 -0.445    0.005  0.029 -0.336   -0.000 -0.009  0.099
 H          0.009 -0.007  0.053    0.010 -0.009  0.113   -0.001 -0.001 -0.012
 H         -0.372  0.162  0.168   -0.119  0.052  0.054   -0.108  0.048  0.049
 H          0.008 -0.012  0.091   -0.008  0.003 -0.019   -0.020  0.028 -0.195
 H         -0.202  0.093  0.094    0.465 -0.213 -0.219    0.596 -0.276 -0.280
 H          0.118  0.073  0.059    0.302  0.193  0.149   -0.161 -0.102 -0.077
 H         -0.005 -0.010  0.068   -0.027 -0.049  0.397    0.028  0.059 -0.477
 H          0.000 -0.007 -0.076   -0.003  0.002  0.161    0.003 -0.003 -0.118
 H         -0.045  0.601 -0.178    0.026 -0.352  0.103   -0.025  0.313 -0.092
 H          0.003  0.002  0.120    0.001  0.004  0.011   -0.003  0.002 -0.066
 N          0.000  0.000 -0.000    0.000  0.000 -0.000   -0.000 -0.000  0.000
 H          0.000 -0.000  0.005   -0.000  0.000  0.004   -0.001 -0.000 -0.001
 C         -0.000 -0.000  0.001   -0.000 -0.000  0.000    0.000  0.000 -0.000
 H          0.000  0.000  0.000    0.000  0.000  0.000   -0.000 -0.000 -0.000
 O         -0.000 -0.000 -0.000   -0.000 -0.000 -0.000    0.000  0.000  0.000
 TransDip   0.107 -0.131 -0.027   -0.135  0.118 -0.092   -0.071  0.009  0.179

 Mode:                58                     59                     60
 Frequency:      3075.74                3089.73                3580.86
 Force Cnst:      6.1383                 6.1577                 8.1457
 Red. Mass:       1.1013                 1.0948                 1.0782
 IR Active:          YES                    YES                    YES
 IR Intens:       35.263                 50.547                 31.998
 Raman Active:       YES                    YES                    YES
               X      Y      Z        X      Y      Z        X      Y      Z
 C          0.040 -0.016 -0.047    0.023 -0.009 -0.035   -0.000  0.000  0.000
 C          0.000 -0.000 -0.002    0.001  0.006 -0.061    0.001  0.001 -0.001
 C          0.003 -0.051  0.041   -0.002  0.030 -0.032   -0.000 -0.000  0.000
 C         -0.000 -0.000  0.006    0.003 -0.001 -0.009   -0.000  0.000  0.000
 C         -0.001  0.000 -0.002   -0.003 -0.001 -0.010    0.000  0.000  0.000
 C         -0.000  0.003 -0.008   -0.000  0.003 -0.008    0.000 -0.000  0.000
 H         -0.037  0.615 -0.174    0.024 -0.357  0.100   -0.000  0.001 -0.000
 H          0.002 -0.005  0.022   -0.013 -0.067  0.723    0.002  0.001  0.010
 H          0.026 -0.034  0.329    0.020 -0.034  0.289   -0.000 -0.001 -0.000
 H         -0.508  0.224  0.227   -0.297  0.133  0.133    0.001 -0.001 -0.000
 H         -0.006  0.006 -0.067    0.009 -0.009  0.090    0.000  0.000 -0.000
 H          0.010 -0.005 -0.005   -0.044  0.021  0.022    0.000 -0.000 -0.000
 H          0.006  0.002  0.003    0.046  0.029  0.023    0.000  0.000 -0.000
 H         -0.002 -0.000  0.017   -0.008 -0.013  0.101    0.000  0.000 -0.000
 H          0.001  0.000  0.077    0.002  0.002  0.087    0.000  0.000 -0.000
 H          0.003 -0.043  0.013    0.004 -0.042  0.013   -0.000  0.000 -0.000
 H         -0.002 -0.001 -0.314   -0.003 -0.000  0.289   -0.001  0.000 -0.001
 N         -0.000  0.000  0.000   -0.001 -0.001  0.001   -0.009 -0.006 -0.073
 H         -0.000  0.000 -0.000    0.004  0.003 -0.007    0.133  0.084  0.985
 C          0.000 -0.000 -0.000    0.000  0.000 -0.002   -0.002 -0.001  0.000
 H          0.000 -0.000  0.000   -0.001 -0.000  0.000    0.002  0.002  0.000
 O         -0.000  0.000  0.000    0.000  0.000  0.001   -0.000 -0.000  0.001
 TransDip   0.104 -0.158 -0.022    0.001  0.025 -0.226   -0.018 -0.010  0.180

 STANDARD THERMODYNAMIC QUANTITIES AT   298.18 K  AND     1.00 ATM

   This Molecule has  0 Imaginary Frequencies
   Zero point vibrational energy:      122.214 kcal/mol

   Atom    1 Element C  Has Mass   12.00000
   Atom    2 Element C  Has Mass   12.00000
   Atom    3 Element C  Has Mass   12.00000
   Atom    4 Element C  Has Mass   12.00000
   Atom    5 Element C  Has Mass   12.00000
   Atom    6 Element C  Has Mass   12.00000
   Atom    7 Element H  Has Mass    1.00783
   Atom    8 Element H  Has Mass    1.00783
   Atom    9 Element H  Has Mass    1.00783
   Atom   10 Element H  Has Mass    1.00783
   Atom   11 Element H  Has Mass    1.00783
   Atom   12 Element H  Has Mass    1.00783
   Atom   13 Element H  Has Mass    1.00783
   Atom   14 Element H  Has Mass    1.00783
   Atom   15 Element H  Has Mass    1.00783
   Atom   16 Element H  Has Mass    1.00783
   Atom   17 Element H  Has Mass    1.00783
   Atom   18 Element N  Has Mass   14.00307
   Atom   19 Element H  Has Mass    1.00783
   Atom   20 Element C  Has Mass   12.00000
   Atom   21 Element H  Has Mass    2.01410
   Atom   22 Element O  Has Mass   15.99491
   Molecular Mass:   128.106042 amu
   Principal axes and moments of inertia in amu*Bohr^2:
                             1           2           3
    Eigenvalues --      544.61603  2013.39802  2208.99214
          X               0.82506    -0.52614     0.20604
          Y               0.53826     0.84277    -0.00328
          Z              -0.17192     0.11362     0.97854
   Rotational Symmetry Number is   1
   The Molecule is an Asymmetric Top
   Translational Enthalpy:        0.889 kcal/mol
   Rotational Enthalpy:           0.889 kcal/mol
   Vibrational Enthalpy:        126.015 kcal/mol
   gas constant (RT):             0.593 kcal/mol
   Translational Entropy:        40.457  cal/mol.K
   Rotational Entropy:           29.273  cal/mol.K
   Vibrational Entropy:          23.719  cal/mol.K

   Total Enthalpy:              128.385 kcal/mol
   Total Entropy:                93.448  cal/mol.K
Archival summary:
1\1\node026\FREQ\ProcedureUnspecified\6-31+G*\11713\ymao90\SunMar704:26:232021SunMar704:26:232021\0\\#,FREQ,ProcedureUnspecified,6-31+G*,\\0,1\N\H,1,1.01471\C,1,1.35401,2,117.347\H,3,1.10475,1,112.414,2,0.61297,0\O,3,1.23189,1,125.815,2,-179.51,0\C,1,1.46426,2,118.198,3,-179.235,0\H,6,1.09572,1,104.982,2,-176.106,0\C,6,1.53869,1,111.214,2,-58.3466,0\H,8,1.09723,6,109.556,1,-56.7884,0\H,8,1.10005,6,109.342,1,59.8796,0\C,8,1.53823,6,111.07,1,-179.438,0\H,11,1.09708,8,109.722,6,-177.728,0\H,11,1.10273,8,108.996,6,65.8469,0\C,11,1.53712,8,111.74,6,-55.0696,0\H,14,1.09839,11,110.19,8,176.884,0\H,14,1.09886,11,109.251,8,-66.6272,0\C,14,1.53714,11,111.439,8,54.1917,0\H,17,1.09736,14,110.302,11,-176.535,0\H,17,1.10284,14,109.315,11,66.5144,0\C,17,1.53812,14,111.682,11,-54.1954,0\H,20,1.09729,17,110.792,14,177.001,0\H,20,1.09987,17,109.361,14,-65.5575,0\\\@

 Total job time:  5157.64s(wall), 81596.04s(cpu) 
 Sun Mar  7 04:26:23 2021

        *************************************************************
        *                                                           *
        *  Thank you very much for using Q-Chem.  Have a nice day.  *
        *                                                           *
        *************************************************************


